INSANE! Membrane UpperLeaflet>loPI:POPI:DPPI:PYPI:ERGO=20.0:5.0:3.0:2.0:10.0 LowerLeaflet>loPI:POPI:DPPI:PYPI:ERGO=20.0:5.0:3.0:2.0:10.0
48566
    1loPI    C1    1   6.293  11.261  10.793  0.1896 -0.0402 -0.1453
    1loPI    C2    2   6.378  11.004  11.088 -0.3917  0.0062  0.0772
    1loPI    C3    3   6.409  11.398  11.150  0.1190  0.0087 -0.1410
    1loPI   PO4    4   6.443  11.159  10.591 -0.2037 -0.0046  0.0586
    1loPI   GL1    5   6.411  11.399  10.227  0.3602  0.1048  0.1198
    1loPI   GL2    6   6.412  11.266   9.852  0.0495  0.1888  0.5500
    1loPI   C1A    7   5.957  11.617   9.984  0.1311  0.2324 -0.0769
    1loPI   C2A    8   5.666  11.916   9.856  0.1209 -0.0059 -0.1412
    1loPI   C3A    9   5.545  12.149   9.583  0.0093 -0.1892 -0.4804
    1loPI   C4A   10   5.783  12.300   9.337  0.0690  0.0698 -0.3460
    1loPI   C5A   11   6.012  12.179   9.074 -0.0967 -0.0997 -0.0122
    1loPI   C6A   12   6.212  12.180   8.715 -0.1028  0.0830  0.0153
    1loPI   C1B   13   6.342  10.975   9.518  0.1230 -0.2163 -0.1532
    1loPI   C2B   14   6.410  10.825   9.140 -0.4994 -0.2115 -0.3994
    1loPI   C3B   15   6.404  10.820   8.713 -0.2527 -0.0339 -0.3820
    1loPI   C4B   16   6.303  10.653   8.294  0.2707 -0.1295  0.2530
    2loPI    C1   17  14.464   8.525  11.075 -0.0562 -0.2521  0.0373
    2loPI    C2   18  14.072   8.448  11.047 -0.1070 -0.0225  0.0927
    2loPI    C3   19  14.205   8.711  11.317  0.0733 -0.0063 -0.0104
    2loPI   PO4   20  14.474   8.670  10.748 -0.1478  0.2348  0.2171
    2loPI   GL1   21  14.636   8.566  10.402  0.2666  0.2311  0.0961
    2loPI   GL2   22  14.633   8.287  10.132 -0.3160 -0.1049 -0.1050
    2loPI   C1A   23  14.866   8.740  10.041 -0.0147 -0.1169 -0.0670
    2loPI   C2A   24  15.002   8.669   9.601 -0.6164  0.0120 -0.3237
    2loPI   C3A   25  15.050   8.767   9.260 -0.0103 -0.0356  0.0225
    2loPI   C4A   26  15.097   8.884   8.804  0.0084  0.1935  0.1555
    2loPI   C5A   27  14.940   8.689   8.628 -0.2486  0.0033  0.0616
    2loPI   C6A   28  14.586   8.497   8.377  0.1754 -0.1650 -0.1088
    2loPI   C1B   29  14.701   8.213   9.813 -0.0142  0.0882  0.2931
    2loPI   C2B   30  14.750   8.242   9.366 -0.0699  0.1536 -0.1559
    2loPI   C3B   31  14.642   8.058   8.945 -0.2463  0.0742 -0.1379
    2loPI   C4B   32  14.620   8.047   8.600  0.2821 -0.1715 -0.1501
    3loPI    C1   33  14.220  10.684  10.838  0.1565 -0.1341 -0.0817
    3loPI    C2   34  14.097  10.725  11.217  0.1511 -0.0567 -0.0917
    3loPI    C3   35  14.288  10.392  11.103 -0.0868 -0.1973 -0.0862
    3loPI   PO4   36  14.314  10.861  10.803  0.0962 -0.1980 -0.0816
    3loPI   GL1   37  14.500  10.880  10.400  0.2418 -0.2325 -0.0240
    3loPI   GL2   38  14.491  10.559  10.385  0.0652  0.0068  0.2676
    3loPI   C1A   39  14.573  10.994   9.860 -0.2874  0.1358 -0.0501
    3loPI   C2A   40  14.616  10.918   9.378 -0.2178  0.0585 -0.3553
    3loPI   C3A   41  14.662  11.087   8.866  0.0924  0.3940 -0.1890
    3loPI   C4A   42  14.699  10.990   8.447  0.2210  0.2287 -0.4730
    3loPI   C5A   43  14.481  11.107   8.106 -0.2608  0.0961  0.0343
    3loPI   C6A   44  14.128  11.263   8.011  0.1188  0.0338 -0.2115
    3loPI   C1B   45  14.665  10.437   9.988  0.3632 -0.4514 -0.0395
    3loPI   C2B   46  14.766  10.444   9.501 -0.1757  0.0442 -0.1351
    3loPI   C3B   47  14.773  10.540   9.067  0.1351 -0.3137  0.0128
    3loPI   C4B   48  14.878  10.661   8.706  0.0577  0.0407 -0.1622
    4loPI    C1   49   7.484   9.925  11.040 -0.2063 -0.0414 -0.1853
    4loPI    C2   50   7.498   9.552  11.185  0.0051  0.0191 -0.0456
    4loPI    C3   51   7.832   9.773  11.167 -0.1065  0.1788 -0.1896
    4loPI   PO4   52   7.279   9.882  10.878  0.2111 -0.1446  0.1510
    4loPI   GL1   53   7.324   9.804  10.528  0.0445  0.1581  0.0579
    4loPI   GL2   54   7.244  10.017  10.356  0.0192 -0.1593 -0.0635
    4loPI   C1A   55   7.247   9.661  10.072 -0.2444 -0.1351 -0.2495
    4loPI   C2A   56   7.243   9.795   9.596  0.2246  0.3654  0.0318
    4loPI   C3A   57   7.276   9.855   9.220  0.0865 -0.1457  0.2886
    4loPI   C4A   58   7.372   9.719   8.799 -0.0765  0.2852  0.0942
    4loPI   C5A   59   7.689   9.516   8.445 -0.0731 -0.1086 -0.1818
    4loPI   C6A   60   8.120   9.455   8.315  0.2177  0.0664  0.1309
    4loPI   C1B   61   7.373  10.193  10.042 -0.3444 -0.4108 -0.1862
    4loPI   C2B   62   7.357  10.284   9.546  0.2743 -0.0602  0.1471
    4loPI   C3B   63   7.125  10.349   9.069  0.0171 -0.1626 -0.0302
    4loPI   C4B   64   7.252  10.346   8.683  0.1118 -0.0348 -0.0395
    5loPI    C1   65  13.781  13.099  11.259  0.0355  0.2446 -0.0226
    5loPI    C2   66  13.958  12.773  11.408  0.1060  0.1923 -0.2187
    5loPI    C3   67  13.818  13.054  11.655 -0.0624 -0.0417 -0.0436
    5loPI   PO4   68  13.898  13.171  10.998 -0.3015 -0.1998  0.0410
    5loPI   GL1   69  13.865  12.976  10.657 -0.1412 -0.5748  0.0095
    5loPI   GL2   70  13.599  13.158  10.511 -0.0733 -0.1764  0.0314
    5loPI   C1A   71  13.831  12.883  10.169  0.1619 -0.0118  0.1023
    5loPI   C2A   72  13.701  12.645   9.816 -0.1096 -0.1050  0.1500
    5loPI   C3A   73  13.606  12.579   9.376 -0.2492  0.2562  0.1404
    5loPI   C4A   74  13.713  12.562   8.971 -0.1690  0.1293 -0.0681
    5loPI   C5A   75  13.737  12.699   8.562  0.0522 -0.2870 -0.0519
    5loPI   C6A   76  13.619  12.536   8.201  0.0253 -0.5339 -0.1240
    5loPI   C1B   77  13.352  13.339  10.225  0.0995  0.1492 -0.2708
    5loPI   C2B   78  13.375  13.400   9.812  0.2351  0.0289  0.1206
    5loPI   C3B   79  13.280  13.537   9.401 -0.1588  0.1225  0.3441
    5loPI   C4B   80  13.156  13.309   9.063 -0.0190 -0.1359 -0.1589
    6loPI    C1   81   1.256   5.170  10.913 -0.0814  0.1232 -0.0874
    6loPI    C2   82   1.555   5.207  11.176 -0.0427 -0.2025 -0.0806
    6loPI    C3   83   1.219   5.420  11.223  0.1443  0.0880 -0.0302
    6loPI   PO4   84   1.330   5.185  10.702 -0.1182 -0.0786 -0.2988
    6loPI   GL1   85   1.641   5.119  10.487  0.0866  0.2473  0.6115
    6loPI   GL2   86   1.723   5.414  10.346  0.0229  0.1308  0.2896
    6loPI   C1A   87   1.739   5.107   9.974 -0.2500 -0.0243  0.3649
    6loPI   C2A   88   1.572   5.276   9.622  0.3083 -0.1191 -0.1597
    6loPI   C3A   89   1.641   5.332   9.218 -0.2896  0.0107  0.0347
    6loPI   C4A   90   1.774   5.393   8.804 -0.0196 -0.0512  0.0005
    6loPI   C5A   91   1.722   5.255   8.433 -0.1741 -0.0694 -0.1671
    6loPI   C6A   92   2.011   5.340   8.158 -0.4147 -0.1257 -0.0140
    6loPI   C1B   93   1.266   5.246  10.112  0.2618  0.0520  0.2523
    6loPI   C2B   94   0.837   5.214  10.055  0.1244 -0.2864  0.0429
    6loPI   C3B   95   0.397   5.191   9.827  0.0164  0.4256 -0.6607
    6loPI   C4B   96   0.274   5.405   9.548  0.4546  0.0571 -0.2488
    7loPI    C1   97   8.985   8.894  10.811 -0.0073 -0.0483 -0.0179
    7loPI    C2   98   8.688   9.123  10.673  0.1072  0.1868  0.1192
    7loPI    C3   99   8.885   9.230  11.004  0.4510  0.1194 -0.0590
    7loPI   PO4  100   8.945   8.633  10.719  0.2292  0.0202  0.0202
    7loPI   GL1  101   9.031   8.376  10.484 -0.1068 -0.0830 -0.4016
    7loPI   GL2  102   9.342   8.250  10.504  0.0980  0.2015  0.2319
    7loPI   C1A  103   9.179   8.562  10.040 -0.0797  0.3231  0.0486
    7loPI   C2A  104   9.301   8.658   9.570 -0.1380 -0.0760  0.0874
    7loPI   C3A  105   9.492   8.917   9.125  0.1295  0.0756  0.1197
    7loPI   C4A  106   9.492   9.046   8.594 -0.1966  0.0593  0.1058
    7loPI   C5A  107   9.382   9.143   8.239  0.2565 -0.2469 -0.1554
    7loPI   C6A  108   9.114   9.128   7.778 -0.0661 -0.1753  0.0082
    7loPI   C1B  109   9.413   8.095  10.075 -0.4045  0.0484  0.0411
    7loPI   C2B  110   9.500   8.236   9.746 -0.0370 -0.1804 -0.1902
    7loPI   C3B  111   9.510   8.289   9.329 -0.0961 -0.0004 -0.1049
    7loPI   C4B  112   9.456   8.227   8.939  0.0546 -0.0432  0.3215
    8loPI    C1  113   0.235  14.098  10.825 -0.2798 -0.0802 -0.2585
    8loPI    C2  114   0.453  14.012  11.149 -0.0807  0.0941 -0.3436
    8loPI    C3  115   0.054  14.025  11.174 -0.0758 -0.0736 -0.1496
    8loPI   PO4  116   0.342  13.949  10.587 -0.4388 -0.1639 -0.2819
    8loPI   GL1  117   0.503  13.823  10.276  0.1127 -0.0789  0.0863
    8loPI   GL2  118   0.775  13.834  10.163 -0.2161 -0.1338 -0.0428
    8loPI   C1A  119   0.310  13.685   9.961  0.1632 -0.3635  0.0432
    8loPI   C2A  120   0.103  13.725   9.565 -0.1364  0.2969  0.1773
    8loPI   C3A  121  -0.031  13.781   9.171 -0.1372  0.1549  0.0163
    8loPI   C4A  122  -0.216  13.791   8.686 -0.2633  0.2186 -0.4008
    8loPI   C5A  123  -0.097  14.122   8.405 -0.1054 -0.0013 -0.2257
    8loPI   C6A  124   0.308  14.095   8.317  0.1916  0.3264 -0.0501
    8loPI   C1B  125   0.818  13.716   9.784  0.1714  0.0280 -0.0258
    8loPI   C2B  126   1.011  13.792   9.399  0.0392  0.0203 -0.1298
    8loPI   C3B  127   1.027  13.950   9.071 -0.4760  0.3352  0.0437
    8loPI   C4B  128   1.215  13.857   8.733 -0.1080  0.1285  0.1352
    9loPI    C1  129  12.393   7.686  10.957 -0.2276 -0.3146  0.0327
    9loPI    C2  130  12.499   7.380  11.191 -0.2651 -0.1895  0.2150
    9loPI    C3  131  12.303   7.692  11.346 -0.0335  0.0285  0.0759
    9loPI   PO4  132  12.297   7.581  10.723  0.0159  0.1409 -0.0550
    9loPI   GL1  133  12.535   7.538  10.339  0.0411  0.1795  0.1208
    9loPI   GL2  134  12.428   7.230  10.344 -0.0217 -0.0446  0.1529
    9loPI   C1A  135  12.524   7.729   9.947 -0.0906 -0.2649 -0.0351
    9loPI   C2A  136  12.623   7.853   9.530  0.0472  0.2250 -0.1065
    9loPI   C3A  137  12.832   7.741   9.256  0.0736  0.1451  0.0837
    9loPI   C4A  138  12.776   7.759   8.887  0.1941  0.2214  0.2318
    9loPI   C5A  139  12.659   7.477   8.587 -0.0173 -0.0583 -0.2963
    9loPI   C6A  140  12.599   7.218   8.261 -0.2219 -0.1106  0.1138
    9loPI   C1B  141  12.198   7.397   9.965  0.1482 -0.1605  0.1563
    9loPI   C2B  142  12.341   7.380   9.564 -0.1074 -0.3538 -0.0837
    9loPI   C3B  143  12.301   7.408   9.012 -0.0342  0.2559  0.0011
    9loPI   C4B  144  12.154   7.150   8.684 -0.1874  0.2028 -0.1981
   10loPI    C1  145   7.489   3.259  11.157  0.0809  0.2328 -0.1625
   10loPI    C2  146   7.463   2.866  11.083  0.3495  0.1301  0.2480
   10loPI    C3  147   7.147   3.064  11.228  0.2047  0.0747  0.0133
   10loPI   PO4  148   7.716   3.272  10.913  0.0312  0.2172 -0.0323
   10loPI   GL1  149   7.840   3.352  10.523  0.0044 -0.1089 -0.0060
   10loPI   GL2  150   7.992   3.176  10.384  0.2135  0.2496 -0.0485
   10loPI   C1A  151   7.684   3.365  10.082  0.2442 -0.3871  0.0608
   10loPI   C2A  152   7.735   3.138   9.648  0.0782  0.0512  0.0314
   10loPI   C3A  153   7.650   2.996   9.204 -0.0683  0.1240  0.0019
   10loPI   C4A  154   7.665   3.138   8.722  0.1344 -0.0601  0.0901
   10loPI   C5A  155   8.052   3.209   8.482  0.1466 -0.0364 -0.0652
   10loPI   C6A  156   8.069   3.280   8.065  0.2455 -0.3898  0.1912
   10loPI   C1B  157   8.162   2.836  10.143 -0.2282  0.0759 -0.3077
   10loPI   C2B  158   8.146   2.784   9.781  0.1665 -0.0676 -0.0968
   10loPI   C3B  159   8.074   2.758   9.356  0.1412  0.0703 -0.0439
   10loPI   C4B  160   7.986   2.676   8.891  0.3674  0.0538  0.0325
   11loPI    C1  161   5.578   4.664  10.704  0.2827 -0.0773  0.2703
   11loPI    C2  162   5.470   4.323  10.884 -0.1003 -0.0450  0.1102
   11loPI    C3  163   5.761   4.547  11.040  0.0882 -0.3940  0.2711
   11loPI   PO4  164   5.554   4.555  10.414 -0.0082 -0.0706 -0.2245
   11loPI   GL1  165   5.663   4.621   9.961  0.1052  0.1980  0.0961
   11loPI   GL2  166   5.392   4.754   9.925  0.2368 -0.0688 -0.1220
   11loPI   C1A  167   5.648   4.675   9.502 -0.0055  0.1160  0.3493
   11loPI   C2A  168   5.697   4.638   9.089  0.2879 -0.1050 -0.0234
   11loPI   C3A  169   5.772   4.581   8.653  0.0882  0.2110  0.2845
   11loPI   C4A  170   5.473   4.533   8.295  0.2825 -0.3456 -0.1171
   11loPI   C5A  171   5.247   4.255   7.924 -0.1466  0.2084 -0.1433
   11loPI   C6A  172   4.955   3.889   7.947  0.0347  0.2986  0.2130
   11loPI   C1B  173   5.138   4.511   9.621  0.0670  0.3223  0.1055
   11loPI   C2B  174   5.300   4.435   9.205  0.1832 -0.1687  0.1165
   11loPI   C3B  175   5.226   4.521   8.727 -0.0385 -0.1338  0.0116
   11loPI   C4B  176   4.940   4.647   8.469  0.1746  0.0674  0.1042
   12loPI    C1  177  14.727  10.124  11.110  0.0239 -0.1069 -0.1468
   12loPI    C2  178  15.097  10.233  11.003  0.0087 -0.1266 -0.2198
   12loPI    C3  179  14.933  10.382  11.336 -0.0480  0.1498 -0.3688
   12loPI   PO4  180  14.687  10.016  10.832 -0.2181  0.2154 -0.0504
   12loPI   GL1  181  14.709  10.074  10.412  0.1620 -0.3102  0.2738
   12loPI   GL2  182  14.334  10.009  10.119 -0.1467  0.2889 -0.0905
   12loPI   C1A  183  14.887   9.991  10.103  0.3359  0.2375  0.3241
   12loPI   C2A  184  14.835   9.979   9.697 -0.1188  0.1016  0.2458
   12loPI   C3A  185  14.868  10.032   9.209  0.0958  0.2651 -0.1120
   12loPI   C4A  186  14.824  10.141   8.775 -0.1684  0.0920 -0.0240
   12loPI   C5A  187  14.788   9.778   8.364  0.2675 -0.3008  0.0162
   12loPI   C6A  188  14.782   9.379   8.057  0.0942  0.3212  0.3899
   12loPI   C1B  189  14.355  10.106   9.731 -0.2543 -0.5094  0.1972
   12loPI   C2B  190  14.350  10.118   9.318  0.0897 -0.0730 -0.1779
   12loPI   C3B  191  14.264   9.994   8.839 -0.1123 -0.1262  0.2711
   12loPI   C4B  192  14.351   9.649   8.587 -0.2944  0.0237 -0.0101
   13loPI    C1  193   0.909   7.306  10.625 -0.0672 -0.0276 -0.0242
   13loPI    C2  194   0.826   7.654  10.803 -0.1563 -0.0948  0.0667
   13loPI    C3  195   0.961   7.346  11.020  0.1811 -0.0364 -0.0543
   13loPI   PO4  196   1.070   7.407  10.407  0.0021 -0.1675 -0.0950
   13loPI   GL1  197   1.224   7.518  10.017 -0.0600 -0.1011  0.0551
   13loPI   GL2  198   0.880   7.630   9.857 -0.2096 -0.1517 -0.2719
   13loPI   C1A  199   1.360   7.444   9.595  0.0762 -0.2613 -0.1350
   13loPI   C2A  200   1.396   7.470   9.087 -0.2609  0.0430 -0.0555
   13loPI   C3A  201   1.518   7.576   8.771 -0.1351 -0.3187 -0.2545
   13loPI   C4A  202   1.487   7.847   8.415  0.2157  0.0308  0.0163
   13loPI   C5A  203   1.306   8.120   8.149  0.2239  0.0900  0.2008
   13loPI   C6A  204   0.927   8.108   7.985 -0.0193 -0.3950 -0.1265
   13loPI   C1B  205   0.589   7.795   9.513  0.2138 -0.2692  0.2269
   13loPI   C2B  206   0.538   7.859   9.154 -0.1867  0.2875  0.1145
   13loPI   C3B  207   0.664   8.114   8.810  0.0326  0.1206  0.0483
   13loPI   C4B  208   0.767   8.338   8.400 -0.0576  0.0942 -0.1950
   14loPI    C1  209  16.555  16.831  10.681 -0.2223 -0.0176 -0.1234
   14loPI    C2  210  16.910  16.675  10.583 -0.1810  0.0653 -0.1065
   14loPI    C3  211  16.708  16.529  10.895 -0.0979  0.1095 -0.0315
   14loPI   PO4  212  16.529  16.934  10.411 -0.0004 -0.0362  0.2205
   14loPI   GL1  213  16.618  16.832   9.907 -0.3701 -0.2089 -0.0297
   14loPI   GL2  214  16.862  16.604   9.956  0.2451 -0.2313 -0.1358
   14loPI   C1A  215  16.625  16.911   9.506 -0.0312 -0.0231 -0.1111
   14loPI   C2A  216  16.572  16.886   9.085  0.0988 -0.1685  0.0209
   14loPI   C3A  217  16.704  16.910   8.655  0.0968  0.0154 -0.0322
   14loPI   C4A  218  16.816  17.360   8.523 -0.0762  0.1100  0.0296
   14loPI   C5A  219  17.124  17.712   8.586 -0.2377 -0.2598  0.0966
   14loPI   C6A  220  17.581  17.790   8.682  0.1322  0.2670 -0.4679
   14loPI   C1B  221  17.090  16.361   9.679 -0.0832  0.1483  0.2400
   14loPI   C2B  222  17.206  16.183   9.212  0.1738 -0.0059 -0.0372
   14loPI   C3B  223  17.217  16.002   8.786 -0.0874  0.0308  0.4677
   14loPI   C4B  224  17.007  16.006   8.377  0.0140 -0.0947  0.1775
   15loPI    C1  225   1.865  10.202  11.037 -0.1852  0.0304  0.0187
   15loPI    C2  226   2.121  10.438  11.233 -0.3027  0.1530  0.0253
   15loPI    C3  227   1.985  10.105  11.406 -0.0923  0.0491 -0.0063
   15loPI   PO4  228   1.968  10.367  10.773  0.0010  0.0017 -0.1591
   15loPI   GL1  229   2.038  10.287  10.382  0.1256 -0.0829 -0.1847
   15loPI   GL2  230   1.872  10.162  10.210  0.1220  0.1451  0.0829
   15loPI   C1A  231   2.298   9.960  10.079 -0.0682  0.1240  0.0489
   15loPI   C2A  232   2.657   9.875   9.823  0.0352 -0.2679 -0.0234
   15loPI   C3A  233   2.676   9.958   9.378 -0.3195  0.0069 -0.0358
   15loPI   C4A  234   2.609   9.747   8.955  0.0464 -0.0189 -0.0379
   15loPI   C5A  235   2.784   9.781   8.515  0.1797 -0.2527  0.0409
   15loPI   C6A  236   2.931   9.448   8.317  0.1095 -0.2377 -0.0052
   15loPI   C1B  237   2.048  10.272   9.771  0.3278  0.1626  0.3298
   15loPI   C2B  238   2.268  10.386   9.410 -0.1744  0.0345 -0.2351
   15loPI   C3B  239   2.277  10.337   9.005 -0.3935  0.3135  0.1270
   15loPI   C4B  240   2.429  10.453   8.552  0.0826  0.0441 -0.0408
   16loPI    C1  241   5.343  12.684  10.874  0.0924 -0.0565 -0.2191
   16loPI    C2  242   4.958  12.774  10.814  0.0413 -0.0637  0.0802
   16loPI    C3  243   5.201  13.040  10.988  0.1628 -0.0750 -0.0706
   16loPI   PO4  244   5.454  12.594  10.590  0.0944  0.2720  0.0178
   16loPI   GL1  245   5.137  12.585  10.260 -0.0957 -0.0561 -0.2342
   16loPI   GL2  246   4.861  12.359  10.203 -0.4712  0.0172 -0.1697
   16loPI   C1A  247   5.043  12.603   9.811 -0.0665  0.0935 -0.2545
   16loPI   C2A  248   4.869  12.876   9.387  0.3383 -0.0664  0.1372
   16loPI   C3A  249   5.100  12.987   9.026  0.2409 -0.0144 -0.3282
   16loPI   C4A  250   5.319  13.063   8.791 -0.1006  0.1055 -0.2926
   16loPI   C5A  251   5.410  13.306   8.566  0.4327  0.0407 -0.1925
   16loPI   C6A  252   5.668  13.613   8.639 -0.0723  0.0901 -0.3432
   16loPI   C1B  253   4.635  12.328   9.791  0.1540 -0.1343 -0.4306
   16loPI   C2B  254   4.720  12.389   9.340  0.0770  0.1597  0.0519
   16loPI   C3B  255   4.948  12.505   9.041  0.2459  0.0931 -0.1789
   16loPI   C4B  256   5.239  12.569   8.730 -0.2241  0.3250 -0.1127
   17loPI    C1  257   8.602  14.740  10.709 -0.1131  0.1612  0.1256
   17loPI    C2  258   8.449  14.588  11.046  0.2517 -0.1041  0.1788
   17loPI    C3  259   8.673  14.919  11.059 -0.1391  0.1697  0.1264
   17loPI   PO4  260   8.470  14.683  10.554 -0.0632  0.3502 -0.0085
   17loPI   GL1  261   8.599  14.466  10.267 -0.1588 -0.3198 -0.0789
   17loPI   GL2  262   8.883  14.392  10.239 -0.0484  0.0548  0.3346
   17loPI   C1A  263   8.530  14.304   9.867 -0.0477 -0.1929  0.2479
   17loPI   C2A  264   8.724  14.083   9.506 -0.3653 -0.0347  0.0812
   17loPI   C3A  265   8.564  13.926   9.135  0.0716 -0.2790  0.1449
   17loPI   C4A  266   8.292  13.913   8.877  0.0177  0.2209  0.0543
   17loPI   C5A  267   8.004  13.883   8.510 -0.1507 -0.0484  0.4477
   17loPI   C6A  268   7.726  14.224   8.428  0.2723 -0.0104 -0.0304
   17loPI   C1B  269   9.055  14.534   9.812  0.2156  0.0394 -0.0688
   17loPI   C2B  270   9.130  14.369   9.423  0.0515  0.3274 -0.0892
   17loPI   C3B  271   8.996  14.297   9.023 -0.1301 -0.1138 -0.0146
   17loPI   C4B  272   8.917  14.076   8.626 -0.0295  0.1190 -0.0771
   18loPI    C1  273   8.215  17.219  11.046  0.1856 -0.1225  0.2583
   18loPI    C2  274   7.875  17.023  11.122  0.1620 -0.2612 -0.1751
   18loPI    C3  275   7.993  17.319  11.363 -0.1873 -0.3096  0.0639
   18loPI   PO4  276   8.184  17.197  10.704 -0.2735  0.1373 -0.0543
   18loPI   GL1  277   8.122  17.078  10.333  0.0194  0.2853  0.2357
   18loPI   GL2  278   8.254  16.796  10.289  0.1034  0.0664 -0.3908
   18loPI   C1A  279   7.982  17.020   9.957  0.0519 -0.1805  0.2913
   18loPI   C2A  280   7.851  16.940   9.483 -0.1208  0.1043 -0.0573
   18loPI   C3A  281   7.665  17.025   9.083  0.2009 -0.1207  0.2814
   18loPI   C4A  282   7.481  16.798   8.733  0.1552  0.0426  0.0379
   18loPI   C5A  283   7.044  16.920   8.610 -0.1245 -0.1444  0.0087
   18loPI   C6A  284   6.680  17.070   8.690  0.3861 -0.3936 -0.0847
   18loPI   C1B  285   8.345  16.683   9.899 -0.2010  0.1857  0.0468
   18loPI   C2B  286   8.376  16.697   9.372  0.2340 -0.1250 -0.0883
   18loPI   C3B  287   8.409  16.670   8.924 -0.1366  0.0215 -0.0769
   18loPI   C4B  288   8.223  16.393   8.656 -0.0431  0.0913  0.0479
   19loPI    C1  289  10.484  10.660  10.952 -0.1043 -0.0471  0.1178
   19loPI    C2  290  10.260  10.682  10.621  0.0141  0.0216  0.0412
   19loPI    C3  291  10.219  10.957  10.909 -0.0914 -0.0403  0.0861
   19loPI   PO4  292  10.719  10.647  10.815  0.0262 -0.2480  0.0129
   19loPI   GL1  293  10.711  10.792  10.447 -0.3657 -0.0555 -0.0485
   19loPI   GL2  294  10.861  11.000  10.297  0.0514  0.3978  0.1427
   19loPI   C1A  295  10.554  10.433  10.191  0.2907 -0.1176  0.2683
   19loPI   C2A  296  10.542  10.372   9.704 -0.3235 -0.2167 -0.3919
   19loPI   C3A  297  10.242  10.086   9.438  0.2483  0.1376  0.0872
   19loPI   C4A  298  10.069  10.065   9.069 -0.1313  0.0641 -0.0487
   19loPI   C5A  299  10.174   9.922   8.738  0.2967 -0.1465  0.1153
   19loPI   C6A  300  10.602   9.826   8.527 -0.2230 -0.0136 -0.0540
   19loPI   C1B  301  10.695  11.021   9.923 -0.2085 -0.1661  0.0332
   19loPI   C2B  302  10.653  10.961   9.381  0.0418 -0.1109 -0.1916
   19loPI   C3B  303  10.540  10.934   8.938 -0.0472  0.0418 -0.2563
   19loPI   C4B  304  10.383  11.108   8.525 -0.1845 -0.0524 -0.0183
   20loPI    C1  305  11.505   2.747  11.144  0.1753 -0.0668  0.0234
   20loPI    C2  306  11.500   3.052  10.885  0.2365 -0.0928 -0.0088
   20loPI    C3  307  11.185   2.985  11.122  0.1871 -0.0583 -0.0642
   20loPI   PO4  308  11.533   2.447  10.962 -0.1274 -0.1815 -0.1659
   20loPI   GL1  309  11.531   2.468  10.532  0.2655 -0.0552 -0.1108
   20loPI   GL2  310  11.647   2.817  10.475  0.0906  0.1172  0.0337
   20loPI   C1A  311  11.817   2.169  10.232  0.0773 -0.0015  0.1733
   20loPI   C2A  312  11.732   2.160   9.779  0.3584 -0.1576 -0.0018
   20loPI   C3A  313  11.767   2.087   9.284 -0.0967 -0.1082 -0.0632
   20loPI   C4A  314  11.995   2.132   8.940  0.0315  0.0597 -0.2949
   20loPI   C5A  315  12.000   1.790   8.711  0.0016 -0.2241 -0.1657
   20loPI   C6A  316  12.149   1.458   8.437 -0.0532 -0.2072  0.0941
   20loPI   C1B  317  11.680   2.637   9.974 -0.4596  0.0124 -0.1453
   20loPI   C2B  318  11.671   2.624   9.536  0.1718  0.1430  0.0656
   20loPI   C3B  319  11.712   2.555   9.055  0.2290  0.1534 -0.2071
   20loPI   C4B  320  11.552   2.588   8.651 -0.1433  0.0211  0.1727
   21loPI    C1  321  12.104  17.236  11.097  0.0958 -0.0034  0.1537
   21loPI    C2  322  12.143  17.537  11.358  0.1554  0.0911  0.0369
   21loPI    C3  323  12.078  17.165  11.490  0.4144  0.0998  0.1963
   21loPI   PO4  324  12.275  17.350  10.888  0.0284 -0.1120  0.0412
   21loPI   GL1  325  12.396  17.631  10.557  0.1604  0.3524  0.0644
   21loPI   GL2  326  12.206  17.827  10.404  0.0617 -0.0037 -0.1441
   21loPI   C1A  327  12.688  17.513  10.151  0.4422  0.0289 -0.1271
   21loPI   C2A  328  12.756  17.471   9.735  0.3680 -0.2030  0.0207
   21loPI   C3A  329  12.456  17.465   9.476  0.0405  0.0120 -0.2976
   21loPI   C4A  330  12.400  17.664   9.010 -0.0669  0.4465  0.2290
   21loPI   C5A  331  12.395  17.924   8.723  0.1873  0.1167 -0.1157
   21loPI   C6A  332  12.554  18.159   8.502 -0.0573  0.2368  0.0942
   21loPI   C1B  333  12.261  17.716   9.970 -0.2596 -0.2575 -0.2632
   21loPI   C2B  334  12.310  17.929   9.606  0.1096  0.1905  0.0050
   21loPI   C3B  335  12.574  18.067   9.260  0.0040 -0.2199 -0.1550
   21loPI   C4B  336  12.835  18.090   8.971  0.1852 -0.3420  0.1089
   22loPI    C1  337   5.974  16.946  11.292  0.0763  0.0018  0.0102
   22loPI    C2  338   5.836  16.693  11.569 -0.0369  0.0111 -0.0372
   22loPI    C3  339   5.720  17.076  11.572  0.0526  0.0385 -0.0280
   22loPI   PO4  340   5.968  16.759  11.028  0.0449  0.2748  0.1328
   22loPI   GL1  341   6.050  16.696  10.514  0.0176  0.1243  0.0932
   22loPI   GL2  342   6.047  16.985  10.513  0.2367 -0.1759  0.1315
   22loPI   C1A  343   6.152  16.542  10.176 -0.1284 -0.2002 -0.2665
   22loPI   C2A  344   6.181  16.547   9.776 -0.0546 -0.0732 -0.2163
   22loPI   C3A  345   6.151  16.639   9.383 -0.2012 -0.0089 -0.1187
   22loPI   C4A  346   6.204  16.891   8.936 -0.0852  0.0103 -0.3139
   22loPI   C5A  347   6.237  16.906   8.415  0.2728  0.0899  0.0514
   22loPI   C6A  348   6.667  16.871   8.187 -0.0729 -0.0062  0.1326
   22loPI   C1B  349   5.814  17.001  10.048  0.1363  0.2815  0.1832
   22loPI   C2B  350   5.796  16.843   9.653  0.0391  0.2790 -0.1237
   22loPI   C3B  351   5.733  16.877   9.223  0.0446  0.0934  0.1269
   22loPI   C4B  352   5.698  16.700   8.750 -0.2450 -0.0925  0.0385
   23loPI    C1  353  16.095   0.812  10.855 -0.2217 -0.0243 -0.0738
   23loPI    C2  354  16.059   1.204  10.925 -0.2480 -0.0335 -0.0359
   23loPI    C3  355  15.815   1.024  10.665 -0.2058 -0.0159 -0.0878
   23loPI   PO4  356  16.378   0.677  10.865  0.1965  0.1774  0.0152
   23loPI   GL1  357  16.504   0.669  10.382 -0.1513 -0.2272  0.2085
   23loPI   GL2  358  16.743   0.726  10.474 -0.0816 -0.0004  0.4650
   23loPI   C1A  359  16.509   0.516   9.932 -0.0833  0.1919 -0.4420
   23loPI   C2A  360  16.403   0.599   9.502 -0.0929 -0.3319 -0.0112
   23loPI   C3A  361  16.270   0.482   9.144 -0.0049 -0.1489 -0.0754
   23loPI   C4A  362  16.183   0.644   8.741 -0.2254  0.0525 -0.1754
   23loPI   C5A  363  15.951   0.951   8.510 -0.1068  0.1794 -0.3740
   23loPI   C6A  364  15.513   1.133   8.712 -0.0974  0.1655  0.0117
   23loPI   C1B  365  16.908   0.755  10.133  0.0535 -0.2037 -0.0796
   23loPI   C2B  366  16.901   0.728   9.756  0.1963  0.0232 -0.3702
   23loPI   C3B  367  16.802   0.853   9.262 -0.2425 -0.1565 -0.0690
   23loPI   C4B  368  16.505   1.016   8.840 -0.1792 -0.1602 -0.0597
   24loPI    C1  369   4.953  16.709  10.782  0.1097 -0.2663  0.0153
   24loPI    C2  370   4.957  16.815  11.167 -0.0049 -0.0992 -0.0290
   24loPI    C3  371   4.691  16.546  11.037  0.1055 -0.2377  0.0294
   24loPI   PO4  372   5.053  16.921  10.626  0.0266 -0.0924 -0.1952
   24loPI   GL1  373   5.109  16.762  10.234 -0.1232 -0.0754 -0.0120
   24loPI   GL2  374   5.089  16.531  10.337 -0.1852  0.2459 -0.2598
   24loPI   C1A  375   5.348  16.876   9.932 -0.1633 -0.1188 -0.0769
   24loPI   C2A  376   5.330  17.037   9.519  0.1165  0.2908 -0.0907
   24loPI   C3A  377   5.202  16.923   9.129 -0.0796 -0.3698  0.2378
   24loPI   C4A  378   5.002  17.035   8.790 -0.0592 -0.0264 -0.1716
   24loPI   C5A  379   5.347  16.901   8.478 -0.0854 -0.0453  0.0377
   24loPI   C6A  380   5.802  16.805   8.311  0.1268  0.0416 -0.0812
   24loPI   C1B  381   4.762  16.537   9.937 -0.1233  0.2332 -0.1354
   24loPI   C2B  382   4.460  16.699   9.569 -0.1565  0.2170 -0.3624
   24loPI   C3B  383   4.457  16.763   9.196  0.0106  0.0670  0.1993
   24loPI   C4B  384   4.754  16.611   8.928 -0.0321  0.2378 -0.0937
   25loPI    C1  385  17.303   8.249  10.822 -0.0640  0.1211  0.0843
   25loPI    C2  386  17.619   8.488  10.874  0.0930 -0.0985  0.1543
   25loPI    C3  387  17.518   8.225  11.158  0.0888 -0.3069 -0.0374
   25loPI   PO4  388  17.357   8.216  10.554  0.1359 -0.1234 -0.0081
   25loPI   GL1  389  17.295   8.272  10.221  0.1190  0.1515  0.3275
   25loPI   GL2  390  16.975   8.313  10.233  0.1426  0.0746  0.3479
   25loPI   C1A  391  17.445   8.034   9.800 -0.1356 -0.1301  0.0555
   25loPI   C2A  392  17.493   8.019   9.290 -0.0458  0.1600  0.0515
   25loPI   C3A  393  17.397   8.027   8.922  0.0973 -0.0937  0.1000
   25loPI   C4A  394  17.082   8.053   8.553 -0.3049  0.2552 -0.0040
   25loPI   C5A  395  16.771   8.452   8.475  0.0735 -0.3237  0.4451
   25loPI   C6A  396  16.708   8.736   8.070  0.0525  0.2801  0.0203
   25loPI   C1B  397  17.073   8.373   9.765  0.2172  0.2145 -0.0351
   25loPI   C2B  398  16.893   8.374   9.391  0.1459 -0.0916  0.1253
   25loPI   C3B  399  16.773   8.680   8.966  0.0874 -0.3149  0.1330
   25loPI   C4B  400  16.781   8.925   8.580 -0.0105  0.1581 -0.0061
   26loPI    C1  401  17.726  14.836  11.329  0.3332  0.1344  0.2835
   26loPI    C2  402  17.658  15.229  11.300  0.0032  0.0514 -0.1736
   26loPI    C3  403  17.492  15.019  11.597 -0.1770  0.1844 -0.1785
   26loPI   PO4  404  17.748  14.799  10.939 -0.2777  0.1464 -0.0586
   26loPI   GL1  405  17.933  14.980  10.571  0.1287 -0.0746 -0.2593
   26loPI   GL2  406  17.663  14.966  10.307 -0.3178  0.0794  0.3327
   26loPI   C1A  407  18.112  15.161  10.126  0.1008  0.0956 -0.3421
   26loPI   C2A  408  18.465  15.149   9.831 -0.3414 -0.1302 -0.2357
   26loPI   C3A  409  18.750  15.338   9.576 -0.3410  0.1562  0.0106
   26loPI   C4A  410  18.827  15.432   9.080 -0.0478 -0.1084  0.1891
   26loPI   C5A  411  18.714  15.526   8.636 -0.0157  0.2161 -0.0943
   26loPI   C6A  412  18.586  15.792   8.350 -0.1412 -0.0794  0.2067
   26loPI   C1B  413  17.678  15.024   9.917 -0.0726  0.1240 -0.0031
   26loPI   C2B  414  17.574  15.014   9.517 -0.1448  0.2524 -0.0883
   26loPI   C3B  415  17.574  14.764   9.116  0.2169  0.0714 -0.0945
   26loPI   C4B  416  17.677  14.752   8.636  0.1686 -0.0478 -0.0101
   27loPI    C1  417   5.787   3.559  11.081 -0.2917  0.2265 -0.0546
   27loPI    C2  418   5.652   3.912  10.951 -0.1497  0.2452 -0.1542
   27loPI    C3  419   5.956   3.897  11.209  0.0024  0.1906 -0.3343
   27loPI   PO4  420   5.630   3.397  10.845  0.0296  0.1315  0.1275
   27loPI   GL1  421   5.635   3.493  10.472 -0.0236  0.1439 -0.0822
   27loPI   GL2  422   5.666   3.752  10.306  0.5221 -0.1144 -0.0591
   27loPI   C1A  423   5.759   3.285  10.115  0.0467 -0.1247  0.3484
   27loPI   C2A  424   5.804   3.275   9.704 -0.2511  0.1945  0.1356
   27loPI   C3A  425   5.921   3.197   9.235  0.3830 -0.0921 -0.1411
   27loPI   C4A  426   5.838   3.237   8.746 -0.1275  0.0156 -0.1583
   27loPI   C5A  427   5.696   2.819   8.373 -0.3364 -0.2854  0.0762
   27loPI   C6A  428   5.616   2.671   8.003 -0.1471  0.3938  0.3036
   27loPI   C1B  429   5.413   3.724   9.929 -0.1447  0.1004  0.5073
   27loPI   C2B  430   5.459   3.593   9.485  0.2552 -0.1205 -0.0575
   27loPI   C3B  431   5.531   3.573   9.094 -0.1960  0.1755  0.0141
   27loPI   C4B  432   5.664   3.711   8.671  0.1173  0.4195  0.1243
   28loPI    C1  433   1.205   8.760  10.566  0.2183 -0.0649  0.0950
   28loPI    C2  434   1.322   9.000  10.865  0.1523  0.0786  0.0071
   28loPI    C3  435   1.018   8.746  10.919  0.0813  0.1691  0.0338
   28loPI   PO4  436   1.465   8.733  10.482 -0.1775  0.0832  0.0145
   28loPI   GL1  437   1.524   8.868  10.123 -0.0477 -0.0743  0.0087
   28loPI   GL2  438   1.252   9.049  10.013 -0.0197 -0.2953 -0.0821
   28loPI   C1A  439   1.560   8.799   9.697  0.1642  0.2369  0.1658
   28loPI   C2A  440   1.699   8.892   9.305  0.0862  0.1685  0.0927
   28loPI   C3A  441   1.873   9.046   9.000 -0.3401  0.0734  0.3554
   28loPI   C4A  442   1.847   8.950   8.562 -0.2304 -0.0906  0.3024
   28loPI   C5A  443   1.734   8.736   8.210 -0.1549  0.0158  0.1541
   28loPI   C6A  444   1.567   8.551   7.873  0.0906 -0.2107  0.0608
   28loPI   C1B  445   1.127   9.414   9.763 -0.1513 -0.1391  0.1867
   28loPI   C2B  446   1.106   9.677   9.273  0.2070 -0.1379 -0.2751
   28loPI   C3B  447   1.163   9.670   8.838 -0.1066  0.2720  0.0416
   28loPI   C4B  448   1.047   9.673   8.411  0.0200  0.0218 -0.1752
   29loPI    C1  449  10.399  14.714  10.847 -0.0991 -0.0226  0.0522
   29loPI    C2  450  10.205  14.614  11.182  0.0346  0.1081  0.1705
   29loPI    C3  451  10.586  14.502  11.130  0.0491  0.1831  0.1110
   29loPI   PO4  452  10.271  14.647  10.632 -0.2749  0.0428 -0.1025
   29loPI   GL1  453  10.042  14.608  10.408  0.0478 -0.1858 -0.2771
   29loPI   GL2  454   9.930  14.911  10.446  0.2064 -0.0184  0.0579
   29loPI   C1A  455   9.998  14.362  10.067 -0.0011 -0.0127 -0.0115
   29loPI   C2A  456   9.994  14.362   9.637 -0.2244 -0.0944 -0.2001
   29loPI   C3A  457   9.992  14.382   9.222 -0.0846 -0.0900 -0.0652
   29loPI   C4A  458   9.902  14.215   8.839  0.0747  0.0010 -0.0587
   29loPI   C5A  459  10.228  14.050   8.545 -0.1282 -0.0298 -0.0696
   29loPI   C6A  460  10.335  14.248   8.110 -0.0701 -0.1543  0.0398
   29loPI   C1B  461  10.050  14.954   9.945 -0.1494 -0.1631  0.0114
   29loPI   C2B  462   9.996  14.914   9.514 -0.1396  0.1522 -0.0431
   29loPI   C3B  463  10.056  14.869   9.088  0.2601  0.0459  0.2603
   29loPI   C4B  464  10.279  15.079   8.786 -0.0166 -0.0972  0.0301
   30loPI    C1  465  10.203   3.292  11.144 -0.1561  0.0220  0.0170
   30loPI    C2  466   9.948   3.315  11.451 -0.1910 -0.0549 -0.0059
   30loPI    C3  467  10.333   3.224  11.516 -0.1393  0.1904  0.0430
   30loPI   PO4  468   9.986   3.469  10.910  0.3582 -0.0730 -0.0947
   30loPI   GL1  469   9.914   3.293  10.503  0.1014  0.1565 -0.0016
   30loPI   GL2  470  10.108   3.139  10.355  0.1382 -0.1392 -0.0480
   30loPI   C1A  471   9.650   3.254  10.158  0.1916 -0.0168  0.4393
   30loPI   C2A  472   9.502   2.974   9.778 -0.1577  0.4681 -0.0008
   30loPI   C3A  473   9.445   2.938   9.372 -0.1252 -0.0011 -0.4112
   30loPI   C4A  474   9.460   2.917   8.928  0.1085  0.3331 -0.1416
   30loPI   C5A  475   9.388   2.929   8.515 -0.2733 -0.1624 -0.0789
   30loPI   C6A  476   9.145   2.583   8.251  0.1592  0.0290  0.2108
   30loPI   C1B  477  10.245   3.108   9.959 -0.0742  0.1800  0.2532
   30loPI   C2B  478   9.933   3.238   9.628 -0.3283  0.4007 -0.3306
   30loPI   C3B  479   9.807   3.218   9.239 -0.2559 -0.0727 -0.0311
   30loPI   C4B  480   9.613   3.348   8.862  0.0029  0.0550  0.1295
   31loPI    C1  481   9.318  14.155  11.048  0.1171 -0.0654  0.1034
   31loPI    C2  482   9.269  13.838  10.810 -0.2462  0.0397  0.0317
   31loPI    C3  483   9.013  13.903  11.110 -0.1158  0.2119  0.1070
   31loPI   PO4  484   9.372  14.323  10.866 -0.1343  0.2126  0.1671
   31loPI   GL1  485   9.307  14.297  10.474  0.3102  0.0464  0.0886
   31loPI   GL2  486   9.507  14.593  10.434  0.0161 -0.1291 -0.1935
   31loPI   C1A  487   9.577  14.132  10.095 -0.0351 -0.1624  0.2786
   31loPI   C2A  488   9.497  14.182   9.710  0.0974  0.1104  0.1986
   31loPI   C3A  489   9.546  14.065   9.266 -0.2056  0.1938 -0.1362
   31loPI   C4A  490   9.446  13.994   8.901  0.0146 -0.2340 -0.1975
   31loPI   C5A  491   9.418  14.081   8.403  0.0380 -0.1365  0.2148
   31loPI   C6A  492   9.519  14.386   8.029  0.3245 -0.1950 -0.2780
   31loPI   C1B  493   9.560  14.733  10.012 -0.4311  0.1600 -0.0009
   31loPI   C2B  494   9.483  14.696   9.572  0.0021  0.0411 -0.0506
   31loPI   C3B  495   9.458  14.563   9.153  0.1439  0.1300  0.1292
   31loPI   C4B  496   9.480  14.446   8.737  0.0290  0.1144  0.2157
   32loPI    C1  497  14.486  14.107  11.112 -0.0660  0.0844 -0.0925
   32loPI    C2  498  14.783  14.375  11.121 -0.0523  0.0703 -0.1212
   32loPI    C3  499  14.842  14.017  10.954 -0.0037 -0.0314  0.1096
   32loPI   PO4  500  14.150  14.124  11.149  0.2595 -0.2230  0.1159
   32loPI   GL1  501  13.785  14.160  10.880  0.0541  0.1713 -0.0643
   32loPI   GL2  502  14.038  14.254  10.712 -0.1319 -0.1155 -0.1051
   32loPI   C1A  503  13.592  14.081  10.548  0.1186  0.0546 -0.0049
   32loPI   C2A  504  13.465  13.886  10.079 -0.4629 -0.2888  0.0513
   32loPI   C3A  505  13.461  13.875   9.635 -0.0509  0.0413  0.0615
   32loPI   C4A  506  13.450  14.056   9.307 -0.0028 -0.0123 -0.2635
   32loPI   C5A  507  13.516  14.061   8.907  0.0359 -0.0560  0.1225
   32loPI   C6A  508  13.609  13.827   8.545  0.1931 -0.3491 -0.0034
   32loPI   C1B  509  14.037  14.065  10.313  0.3702 -0.4049  0.0186
   32loPI   C2B  510  14.021  13.897   9.988 -0.1042  0.0909 -0.0929
   32loPI   C3B  511  13.967  13.899   9.492 -0.0035  0.3781  0.0986
   32loPI   C4B  512  13.997  13.852   9.064  0.0195 -0.0172 -0.4948
   33loPI    C1  513   8.162  11.514  10.862 -0.2311 -0.0221  0.1670
   33loPI    C2  514   8.021  11.180  10.693 -0.1587  0.0702 -0.0792
   33loPI    C3  515   7.870  11.306  11.041 -0.3348 -0.1028 -0.0908
   33loPI   PO4  516   8.143  11.700  10.696 -0.1624 -0.0485  0.1898
   33loPI   GL1  517   7.992  11.537  10.259  0.2324  0.1838  0.2369
   33loPI   GL2  518   8.152  11.782  10.245  0.0194 -0.0840 -0.0423
   33loPI   C1A  519   7.963  11.488   9.854 -0.2973 -0.1157  0.0688
   33loPI   C2A  520   7.731  11.355   9.501  0.0524 -0.1608 -0.1679
   33loPI   C3A  521   7.720  11.205   9.156 -0.2693  0.2459  0.1639
   33loPI   C4A  522   7.745  11.185   8.756 -0.1863 -0.0902  0.1376
   33loPI   C5A  523   8.001  11.309   8.380  0.0845 -0.0717  0.0102
   33loPI   C6A  524   8.215  11.030   8.071  0.1706  0.0250 -0.4229
   33loPI   C1B  525   8.134  11.927   9.843  0.2231 -0.4308  0.3875
   33loPI   C2B  526   8.137  11.977   9.404  0.2715  0.2282 -0.2584
   33loPI   C3B  527   8.155  12.032   8.976  0.1686 -0.0288  0.1276
   33loPI   C4B  528   8.113  12.264   8.548  0.2008 -0.0787 -0.0922
   34loPI    C1  529   1.229  10.688  11.116  0.2552  0.0155  0.0550
   34loPI    C2  530   0.855  10.549  11.147  0.2830 -0.1501 -0.2953
   34loPI    C3  531   1.105  10.521  11.458 -0.0436  0.1197  0.0008
   34loPI   PO4  532   1.262  10.567  10.895  0.1487  0.2832 -0.1526
   34loPI   GL1  533   1.546  10.565  10.583 -0.2220 -0.1102  0.0292
   34loPI   GL2  534   1.431  10.297  10.510  0.0978 -0.0688  0.0892
   34loPI   C1A  535   1.720  10.763  10.143  0.3202 -0.0403  0.0193
   34loPI   C2A  536   1.769  10.701   9.767 -0.0633 -0.0047 -0.3606
   34loPI   C3A  537   1.835  10.669   9.350  0.2097  0.0294  0.1346
   34loPI   C4A  538   1.939  10.677   8.907 -0.0632  0.2797 -0.1351
   34loPI   C5A  539   2.108  10.909   8.627 -0.2297  0.0167  0.2090
   34loPI   C6A  540   2.625  10.948   8.455  0.3694  0.4445  0.1179
   34loPI   C1B  541   1.433  10.374  10.111 -0.1009  0.1424  0.3285
   34loPI   C2B  542   1.357  10.447   9.646  0.0859 -0.1383  0.1195
   34loPI   C3B  543   1.443  10.555   9.102  0.2406  0.1780  0.3219
   34loPI   C4B  544   1.393  10.641   8.668 -0.0929  0.2610 -0.0612
   35loPI    C1  545   3.369  11.422  10.667 -0.3350  0.0132 -0.1502
   35loPI    C2  546   3.216  11.196  10.960 -0.0508 -0.0253 -0.0285
   35loPI    C3  547   2.975  11.354  10.682 -0.2876 -0.2281  0.0584
   35loPI   PO4  548   3.543  11.273  10.511  0.1533 -0.5187 -0.0685
   35loPI   GL1  549   3.794  11.043  10.259  0.1306  0.0635 -0.0105
   35loPI   GL2  550   4.049  10.975  10.385  0.1182  0.0083  0.0690
   35loPI   C1A  551   3.600  11.023   9.931  0.4044 -0.1688 -0.0261
   35loPI   C2A  552   3.510  11.104   9.490 -0.2905  0.3594 -0.1647
   35loPI   C3A  553   3.509  10.994   9.072 -0.0574  0.2712  0.0389
   35loPI   C4A  554   3.548  10.855   8.599  0.1413 -0.0263  0.1248
   35loPI   C5A  555   3.519  10.696   8.251  0.0403  0.0590  0.1125
   35loPI   C6A  556   3.627  10.614   7.811 -0.0950 -0.1017  0.1958
   35loPI   C1B  557   4.115  11.202   9.965 -0.0222 -0.0241  0.1569
   35loPI   C2B  558   4.094  11.063   9.588  0.2093 -0.0323  0.0612
   35loPI   C3B  559   3.938  10.749   9.356  0.2371 -0.2411  0.0996
   35loPI   C4B  560   3.832  10.647   8.971  0.2203 -0.2068  0.2056
   36loPI    C1  561   4.925  14.635  11.125 -0.0510 -0.1450  0.2489
   36loPI    C2  562   4.952  15.016  11.244 -0.2369 -0.1230  0.2237
   36loPI    C3  563   4.788  14.742  11.486 -0.3045 -0.1440  0.1540
   36loPI   PO4  564   4.753  14.677  10.884  0.0204  0.0252 -0.2117
   36loPI   GL1  565   4.594  14.774  10.422 -0.0893 -0.2737 -0.0236
   36loPI   GL2  566   4.809  14.574  10.397 -0.0244  0.1499  0.2038
   36loPI   C1A  567   4.730  14.951  10.003 -0.0907 -0.1751  0.1083
   36loPI   C2A  568   5.074  15.007   9.743 -0.1876  0.2636 -0.0260
   36loPI   C3A  569   5.073  14.965   9.288 -0.2041 -0.1062  0.0028
   36loPI   C4A  570   5.246  15.091   8.869 -0.0229  0.2527 -0.1310
   36loPI   C5A  571   5.342  15.163   8.434 -0.0384 -0.0673 -0.4004
   36loPI   C6A  572   5.710  15.319   8.149 -0.4358  0.2012 -0.1815
   36loPI   C1B  573   4.554  14.505   9.995 -0.3469 -0.0595  0.3270
   36loPI   C2B  574   4.495  14.413   9.668 -0.0676 -0.1952  0.0652
   36loPI   C3B  575   4.329  14.411   9.231 -0.1284  0.2318 -0.1137
   36loPI   C4B  576   4.451  14.308   8.853 -0.0440 -0.0671 -0.5906
   37loPI    C1  577  13.533   1.198  11.197 -0.2162 -0.1067  0.1034
   37loPI    C2  578  13.820   1.276  11.464 -0.1167  0.3274 -0.1206
   37loPI    C3  579  13.451   1.420  11.519 -0.2434 -0.0499  0.0575
   37loPI   PO4  580  13.710   1.011  10.989  0.2696 -0.0571 -0.0139
   37loPI   GL1  581  13.815   1.278  10.618  0.5466 -0.0575  0.2321
   37loPI   GL2  582  14.034   1.016  10.512  0.1976  0.1290  0.0122
   37loPI   C1A  583  13.655   1.346  10.195 -0.0787 -0.1436 -0.3963
   37loPI   C2A  584  13.470   1.665   9.928  0.1293  0.0521  0.1602
   37loPI   C3A  585  13.748   1.661   9.588 -0.0782  0.2301  0.3733
   37loPI   C4A  586  13.815   1.207   9.347  0.0460  0.0818 -0.1772
   37loPI   C5A  587  14.200   1.101   9.194 -0.0563  0.0005  0.2203
   37loPI   C6A  588  14.379   0.974   8.770 -0.0033 -0.0496  0.2123
   37loPI   C1B  589  14.470   0.929  10.300 -0.1606  0.1447 -0.0673
   37loPI   C2B  590  14.549   1.019   9.910 -0.0931  0.1373 -0.1620
   37loPI   C3B  591  14.750   1.081   9.519  0.2111 -0.1632  0.1117
   37loPI   C4B  592  14.644   1.251   9.108 -0.0979  0.2456  0.2486
   38loPI    C1  593  12.325  12.149  10.912  0.0637 -0.0029  0.1502
   38loPI    C2  594  12.560  12.039  11.216  0.0282  0.1048  0.2170
   38loPI    C3  595  12.572  12.414  11.079  0.2833 -0.0257 -0.1319
   38loPI   PO4  596  12.254  11.859  10.805 -0.2675  0.0573 -0.1128
   38loPI   GL1  597  12.352  11.639  10.417 -0.3166  0.0431 -0.2681
   38loPI   GL2  598  12.666  11.459  10.453  0.2064  0.1742  0.1908
   38loPI   C1A  599  12.393  11.782  10.023 -0.1773  0.0980 -0.0783
   38loPI   C2A  600  12.302  11.796   9.577  0.2874  0.2439  0.2743
   38loPI   C3A  601  12.475  11.901   9.204  0.0186  0.0120  0.0230
   38loPI   C4A  602  12.658  11.939   8.698  0.2310  0.1219 -0.0142
   38loPI   C5A  603  12.958  12.155   8.390  0.1468  0.1780  0.2105
   38loPI   C6A  604  13.146  12.296   8.048  0.2826 -0.0372 -0.0898
   38loPI   C1B  605  12.793  11.320  10.111  0.1454 -0.1657 -0.0658
   38loPI   C2B  606  12.631  11.391   9.808 -0.1385 -0.1640  0.2333
   38loPI   C3B  607  12.496  11.348   9.426  0.1135 -0.1638 -0.0415
   38loPI   C4B  608  12.512  11.417   8.988  0.1098 -0.0244  0.2190
   39loPI    C1  609   4.325   4.906  10.649 -0.1308 -0.3479  0.3720
   39loPI    C2  610   3.938   4.880  10.745 -0.1964  0.2382  0.2995
   39loPI    C3  611   4.191   5.075  10.986  0.0919 -0.2754  0.4262
   39loPI   PO4  612   4.228   4.914  10.315 -0.0643 -0.1441  0.0332
   39loPI   GL1  613   4.382   4.856   9.971  0.0088  0.2034  0.1473
   39loPI   GL2  614   4.331   5.103   9.725 -0.2631 -0.1765 -0.1222
   39loPI   C1A  615   4.636   4.721   9.698 -0.0775  0.0173  0.0142
   39loPI   C2A  616   4.729   4.783   9.173 -0.3947 -0.1739 -0.0564
   39loPI   C3A  617   4.845   4.944   8.846 -0.0709 -0.0292  0.1034
   39loPI   C4A  618   4.812   5.184   8.525  0.2859 -0.0209 -0.0726
   39loPI   C5A  619   5.060   5.073   8.103 -0.0911 -0.1664  0.0177
   39loPI   C6A  620   5.280   4.773   7.925  0.1507  0.3743  0.2949
   39loPI   C1B  621   4.252   4.907   9.447  0.0715 -0.3819  0.0869
   39loPI   C2B  622   4.254   4.945   9.055 -0.0522 -0.0146 -0.1037
   39loPI   C3B  623   4.059   4.850   8.691 -0.0892  0.0126 -0.1973
   39loPI   C4B  624   4.006   4.534   8.496 -0.1357 -0.2289  0.1143
   40loPI    C1  625   4.215   7.297  10.899 -0.0023 -0.0309 -0.3551
   40loPI    C2  626   4.527   7.159  10.690 -0.0678 -0.3509 -0.2463
   40loPI    C3  627   4.490   7.069  11.078 -0.0411  0.0918 -0.1361
   40loPI   PO4  628   4.119   7.442  10.654 -0.0214  0.1735  0.0930
   40loPI   GL1  629   4.255   7.214  10.273 -0.0213  0.1160  0.2163
   40loPI   GL2  630   4.018   7.069  10.115 -0.4594 -0.1334  0.3853
   40loPI   C1A  631   4.582   7.492  10.001  0.0012  0.1041 -0.3206
   40loPI   C2A  632   4.736   7.483   9.613 -0.1432 -0.1235  0.1710
   40loPI   C3A  633   4.735   7.351   9.182  0.1627 -0.0565 -0.1351
   40loPI   C4A  634   4.680   7.219   8.803 -0.0164 -0.0874 -0.1798
   40loPI   C5A  635   4.873   7.073   8.524  0.3426 -0.0543 -0.1207
   40loPI   C6A  636   4.899   7.154   8.084  0.1178  0.0122 -0.0004
   40loPI   C1B  637   4.225   7.234   9.716  0.2330 -0.1682 -0.0084
   40loPI   C2B  638   4.268   7.309   9.318 -0.0218  0.3895 -0.2222
   40loPI   C3B  639   4.192   7.318   8.767 -0.0361 -0.0577  0.1002
   40loPI   C4B  640   4.409   7.276   8.354  0.1324 -0.0233  0.1221
   41loPI    C1  641   9.623  15.013  11.119 -0.0439 -0.0764  0.0135
   41loPI    C2  642   9.963  15.062  10.915 -0.1146  0.0038 -0.0856
   41loPI    C3  643   9.831  15.353  11.156  0.0376 -0.1431  0.1791
   41loPI   PO4  644   9.453  14.988  10.836  0.2093 -0.1517 -0.1125
   41loPI   GL1  645   9.369  15.135  10.429 -0.0643 -0.2647  0.0756
   41loPI   GL2  646   9.113  14.996  10.178  0.3525 -0.1034  0.1288
   41loPI   C1A  647   9.587  15.233  10.202  0.1844  0.2276  0.1425
   41loPI   C2A  648   9.636  15.171   9.742 -0.1642  0.1637  0.2038
   41loPI   C3A  649   9.569  15.215   9.321  0.1681  0.0620 -0.2070
   41loPI   C4A  650   9.450  14.987   8.890 -0.1622  0.2558 -0.0371
   41loPI   C5A  651   9.378  14.857   8.410 -0.0070  0.0238  0.1907
   41loPI   C6A  652   9.196  14.879   8.018 -0.3420  0.2955 -0.2870
   41loPI   C1B  653   9.167  15.036   9.733  0.2186 -0.2642  0.0960
   41loPI   C2B  654   9.012  14.835   9.322 -0.0831 -0.5575  0.2027
   41loPI   C3B  655   8.901  14.771   8.922  0.3922  0.2597  0.0691
   41loPI   C4B  656   8.966  14.919   8.617 -0.3658 -0.2549 -0.2672
   42loPI    C1  657   6.751  14.019  11.116 -0.1765 -0.0671 -0.0812
   42loPI    C2  658   6.398  14.201  11.161 -0.2371 -0.2055  0.0108
   42loPI    C3  659   6.517  13.927  11.427 -0.1571 -0.3165 -0.1380
   42loPI   PO4  660   6.761  13.946  10.842  0.0657 -0.2374  0.2829
   42loPI   GL1  661   7.005  14.103  10.408  0.2408  0.1433  0.2710
   42loPI   GL2  662   7.128  14.352  10.393 -0.0671  0.2347  0.2053
   42loPI   C1A  663   7.053  13.704  10.092  0.1693 -0.1533  0.0966
   42loPI   C2A  664   7.012  13.323   9.936  0.0633 -0.1487  0.3639
   42loPI   C3A  665   7.302  13.054   9.642  0.2166  0.0821  0.2626
   42loPI   C4A  666   7.439  13.147   9.357  0.2129 -0.0495 -0.4168
   42loPI   C5A  667   7.510  13.226   8.918  0.2036  0.3814 -0.3655
   42loPI   C6A  668   7.691  13.561   8.643  0.0436  0.0161  0.3377
   42loPI   C1B  669   7.076  14.179   9.977 -0.1552  0.1690  0.0195
   42loPI   C2B  670   7.277  14.436   9.611 -0.1269  0.0276  0.1179
   42loPI   C3B  671   7.220  14.368   9.121  0.1762  0.0588 -0.1090
   42loPI   C4B  672   7.008  13.918   9.040  0.2083 -0.0578  0.6440
   43loPI    C1  673  10.086  11.592  10.903 -0.1653 -0.0666  0.1045
   43loPI    C2  674  10.288  11.374  11.171 -0.0373  0.1515  0.1893
   43loPI    C3  675  10.204  11.757  11.248 -0.0710  0.1937 -0.0491
   43loPI   PO4  676  10.203  11.602  10.683 -0.1414 -0.0323 -0.0078
   43loPI   GL1  677  10.544  11.615  10.370 -0.0973 -0.1854  0.0434
   43loPI   GL2  678  10.264  11.818  10.137  0.0361  0.1109 -0.0797
   43loPI   C1A  679  10.695  11.757   9.926 -0.4135 -0.1949 -0.3619
   43loPI   C2A  680  10.707  11.841   9.549  0.0942 -0.1090 -0.2051
   43loPI   C3A  681  10.614  11.934   9.110 -0.0286 -0.0681 -0.3060
   43loPI   C4A  682  10.716  11.968   8.666  0.0729  0.1875  0.2009
   43loPI   C5A  683  10.926  12.264   8.283  0.0655 -0.1920  0.1548
   43loPI   C6A  684  11.069  12.638   8.336  0.0257  0.0530 -0.2465
   43loPI   C1B  685  10.231  11.917   9.690  0.0559  0.0308 -0.0253
   43loPI   C2B  686  10.137  11.931   9.315 -0.0145  0.0939  0.0927
   43loPI   C3B  687  10.136  11.741   8.920  0.3151  0.0159 -0.1760
   43loPI   C4B  688  10.254  11.633   8.506 -0.0102  0.0394  0.1643
   44loPI    C1  689   2.039   3.266  10.697  0.2431  0.0390  0.2102
   44loPI    C2  690   1.668   3.210  10.835  0.1975 -0.1162  0.0282
   44loPI    C3  691   1.813   3.581  10.796  0.0467 -0.0530  0.0600
   44loPI   PO4  692   2.108   3.172  10.465  0.0963 -0.1997 -0.1528
   44loPI   GL1  693   2.116   3.243  10.058  0.0652  0.0913 -0.2984
   44loPI   GL2  694   2.390   3.415  10.137 -0.1881  0.1056 -0.0074
   44loPI   C1A  695   2.169   3.236   9.593  0.1839  0.0254 -0.2150
   44loPI   C2A  696   2.219   3.174   9.157 -0.0291  0.2266  0.1321
   44loPI   C3A  697   2.469   3.156   8.774 -0.1794  0.0740  0.0715
   44loPI   C4A  698   2.459   3.118   8.282  0.0062 -0.0988  0.2321
   44loPI   C5A  699   2.703   3.386   8.046 -0.0020  0.3089 -0.1027
   44loPI   C6A  700   3.164   3.392   8.132  0.0925  0.1735  0.1619
   44loPI   C1B  701   2.640   3.321   9.831 -0.3048 -0.1333  0.1194
   44loPI   C2B  702   2.715   3.379   9.440  0.4122 -0.0125  0.1446
   44loPI   C3B  703   2.443   3.609   9.133  0.0664  0.0421  0.0092
   44loPI   C4B  704   2.280   3.847   8.717  0.1213 -0.1077 -0.0405
   45loPI    C1  705  12.088  12.896  10.948 -0.0063  0.0108  0.0769
   45loPI    C2  706  11.760  12.953  11.170 -0.0801 -0.1172  0.0022
   45loPI    C3  707  11.804  13.148  10.824  0.0019  0.0280  0.0929
   45loPI   PO4  708  12.150  12.681  10.889 -0.2101  0.1476  0.1325
   45loPI   GL1  709  12.022  12.521  10.571  0.2671  0.0354 -0.1024
   45loPI   GL2  710  11.796  12.421  10.315  0.2649  0.2161  0.4617
   45loPI   C1A  711  12.262  12.326  10.229  0.4837 -0.1464 -0.1443
   45loPI   C2A  712  12.249  12.299   9.719 -0.0227  0.0210 -0.0709
   45loPI   C3A  713  12.119  12.242   9.273  0.2052 -0.2312 -0.1992
   45loPI   C4A  714  12.307  12.242   8.869 -0.0982  0.0056  0.1975
   45loPI   C5A  715  12.333  12.298   8.439  0.1354 -0.1535 -0.2648
   45loPI   C6A  716  12.384  12.513   8.042 -0.1249 -0.3924 -0.1790
   45loPI   C1B  717  11.959  12.677   9.968 -0.1548 -0.0510 -0.0457
   45loPI   C2B  718  11.887  12.560   9.551 -0.2726 -0.0195  0.2568
   45loPI   C3B  719  11.858  12.758   9.128  0.2580  0.0212  0.3020
   45loPI   C4B  720  11.695  12.870   8.834  0.1370 -0.0628  0.0502
   46loPI    C1  721   1.905  14.917  11.067  0.0756  0.2732 -0.0382
   46loPI    C2  722   2.082  15.089  11.382  0.1656  0.1625 -0.0279
   46loPI    C3  723   2.233  14.753  11.226  0.1740  0.2655 -0.2456
   46loPI   PO4  724   1.899  15.019  10.930 -0.3172 -0.2098  0.0434
   46loPI   GL1  725   1.856  14.882  10.539 -0.2463  0.1626 -0.1268
   46loPI   GL2  726   1.591  14.956  10.400  0.3125 -0.0436 -0.1746
   46loPI   C1A  727   2.210  14.994  10.280 -0.0875  0.0374 -0.0272
   46loPI   C2A  728   2.441  15.284  10.125  0.1198  0.0607  0.0736
   46loPI   C3A  729   2.346  15.576   9.779 -0.2396 -0.1675 -0.1827
   46loPI   C4A  730   2.287  15.766   9.365 -0.1593 -0.1586 -0.2953
   46loPI   C5A  731   2.223  15.657   8.885  0.1275 -0.1771  0.1040
   46loPI   C6A  732   2.376  15.429   8.577 -0.0679 -0.2129 -0.0268
   46loPI   C1B  733   1.756  14.943  10.038 -0.0305  0.2489 -0.0741
   46loPI   C2B  734   2.093  14.974   9.782  0.2033 -0.2573 -0.0614
   46loPI   C3B  735   2.335  15.137   9.530 -0.0881 -0.1159 -0.0264
   46loPI   C4B  736   2.263  15.252   9.199 -0.1084 -0.0071  0.6005
   47loPI    C1  737  12.442   9.295  11.265  0.0541  0.1506  0.0631
   47loPI    C2  738  12.114   9.188  11.064  0.0229  0.2924  0.0378
   47loPI    C3  739  12.086   9.297  11.447  0.0598  0.1763  0.0737
   47loPI   PO4  740  12.591   9.114  11.090  0.0342  0.0918 -0.0574
   47loPI   GL1  741  12.543   9.195  10.639 -0.1081  0.3125 -0.2780
   47loPI   GL2  742  12.354   9.029  10.649 -0.1194  0.0128 -0.3156
   47loPI   C1A  743  12.617   9.062  10.204 -0.0873 -0.0223  0.1317
   47loPI   C2A  744  12.709   9.082   9.774  0.0528 -0.1090  0.1448
   47loPI   C3A  745  12.555   9.166   9.357 -0.1623 -0.3040 -0.0957
   47loPI   C4A  746  12.555   9.153   8.876 -0.2128 -0.2431 -0.0940
   47loPI   C5A  747  12.358   9.478   8.520 -0.2752  0.0546 -0.2470
   47loPI   C6A  748  12.347   9.929   8.295  0.3047  0.1215  0.1746
   47loPI   C1B  749  12.136   8.996  10.217 -0.3642 -0.3454  0.0989
   47loPI   C2B  750  12.248   9.019   9.776 -0.0068 -0.0169  0.0172
   47loPI   C3B  751  12.264   8.771   9.521 -0.0609 -0.1411  0.0924
   47loPI   C4B  752  12.150   8.746   9.157  0.0698 -0.2315 -0.0588
   48loPI    C1  753   0.987  17.634  11.291 -0.5127  0.1479  0.0617
   48loPI    C2  754   1.074  17.336  11.543 -0.1631  0.1399 -0.0624
   48loPI    C3  755   0.816  17.276  11.243  0.2846 -0.1990 -0.3932
   48loPI   PO4  756   1.125  17.738  11.168 -0.1351 -0.2276  0.0161
   48loPI   GL1  757   1.342  17.760  10.772 -0.3806  0.0635  0.0362
   48loPI   GL2  758   1.565  17.460  10.674 -0.0260  0.1030 -0.1386
   48loPI   C1A  759   1.245  17.944  10.252 -0.2300  0.3059 -0.0031
   48loPI   C2A  760   1.089  18.088   9.787 -0.2053 -0.2445  0.1681
   48loPI   C3A  761   1.053  18.155   9.347  0.1583 -0.0194 -0.1426
   48loPI   C4A  762   1.078  18.269   9.000  0.2005  0.1578 -0.0194
   48loPI   C5A  763   1.028  18.222   8.540  0.4484 -0.2050  0.1342
   48loPI   C6A  764   1.098  18.242   8.128  0.2922 -0.1626  0.0822
   48loPI   C1B  765   1.296  17.416  10.354 -0.0562 -0.2148 -0.2301
   48loPI   C2B  766   1.204  17.555   9.914 -0.3286  0.2393 -0.2568
   48loPI   C3B  767   1.047  17.605   9.524 -0.1481 -0.0177  0.1987
   48loPI   C4B  768   0.913  17.754   9.100 -0.0490  0.0624 -0.0924
   49loPI    C1  769  11.165  10.612  11.065  0.0077  0.1723  0.0783
   49loPI    C2  770  10.856  10.581  11.317  0.0527  0.0771  0.1223
   49loPI    C3  771  11.225  10.645  11.459  0.0615  0.1368  0.0732
   49loPI   PO4  772  11.130  10.429  10.863 -0.0098 -0.2321  0.0769
   49loPI   GL1  773  11.166  10.555  10.348 -0.1738 -0.0256 -0.0057
   49loPI   GL2  774  11.005  10.217  10.439 -0.1230 -0.1492 -0.1398
   49loPI   C1A  775  11.043  10.621   9.891 -0.0331 -0.2835  0.0174
   49loPI   C2A  776  10.953  10.570   9.435  0.1276 -0.0788 -0.2875
   49loPI   C3A  777  10.654  10.258   9.149 -0.0532 -0.1134 -0.0741
   49loPI   C4A  778  10.788   9.767   9.045  0.2850  0.1204  0.0791
   49loPI   C5A  779  10.926   9.428   8.659 -0.2652  0.1575  0.3144
   49loPI   C6A  780  11.075   9.460   8.247 -0.0050  0.0574  0.0034
   49loPI   C1B  781  10.872  10.118   9.993  0.0172 -0.2702 -0.5398
   49loPI   C2B  782  10.868  10.018   9.552 -0.3553  0.0778  0.1543
   49loPI   C3B  783  11.155  10.143   9.231 -0.0879 -0.1605 -0.4324
   49loPI   C4B  784  11.137  10.170   8.802 -0.1708 -0.2550 -0.1125
   50loPI    C1  785  16.228   4.418  10.828 -0.0931 -0.0859  0.0365
   50loPI    C2  786  16.274   4.109  11.077  0.2703  0.0408  0.1328
   50loPI    C3  787  16.283   4.483  11.219  0.1521  0.1050 -0.0269
   50loPI   PO4  788  16.216   4.203  10.570 -0.0422 -0.3500  0.0742
   50loPI   GL1  789  15.864   4.147  10.375 -0.0745  0.0311  0.2287
   50loPI   GL2  790  15.637   4.168  10.468  0.2305  0.1128  0.0767
   50loPI   C1A  791  16.072   4.029   9.951 -0.1400  0.1752 -0.1100
   50loPI   C2A  792  16.089   4.317   9.633 -0.2978 -0.5254 -0.0971
   50loPI   C3A  793  16.028   4.419   9.248  0.2506  0.1412  0.0740
   50loPI   C4A  794  15.919   4.477   8.826  0.0670  0.3706 -0.2808
   50loPI   C5A  795  15.811   4.581   8.454  0.4321  0.1176 -0.0882
   50loPI   C6A  796  15.772   4.645   8.053  0.0529  0.0439  0.2656
   50loPI   C1B  797  15.437   4.154  10.087  0.4436 -0.3526  0.1397
   50loPI   C2B  798  15.493   4.149   9.715  0.2802  0.1976 -0.1399
   50loPI   C3B  799  15.508   4.141   9.352  0.0815  0.1959  0.2930
   50loPI   C4B  800  15.745   3.969   9.095  0.0752 -0.0283 -0.0575
   51loPI    C1  801   2.371   6.446  10.741 -0.1129 -0.1287  0.0408
   51loPI    C2  802   2.274   6.108  10.551  0.1969 -0.1732 -0.0435
   51loPI    C3  803   2.349   6.102  10.944  0.1001 -0.1825 -0.0249
   51loPI   PO4  804   2.289   6.630  10.501  0.0115  0.0700 -0.3397
   51loPI   GL1  805   2.304   6.943  10.264 -0.1917  0.0331 -0.1979
   51loPI   GL2  806   2.172   7.275  10.204  0.2978 -0.0798  0.4110
   51loPI   C1A  807   2.041   6.842   9.915 -0.3510  0.3612  0.0500
   51loPI   C2A  808   1.950   6.811   9.534  0.1407 -0.1276 -0.0947
   51loPI   C3A  809   2.148   6.747   9.089 -0.0142  0.0479 -0.0150
   51loPI   C4A  810   2.097   6.908   8.709  0.2442  0.0924  0.2003
   51loPI   C5A  811   1.924   7.178   8.360  0.3832  0.0367  0.1437
   51loPI   C6A  812   2.077   7.390   8.054 -0.3066  0.0336 -0.0254
   51loPI   C1B  813   2.230   7.551   9.838  0.2853 -0.1486 -0.0998
   51loPI   C2B  814   2.344   7.635   9.427 -0.2805 -0.0795  0.1796
   51loPI   C3B  815   2.452   7.698   8.925 -0.0645  0.1232  0.1529
   51loPI   C4B  816   2.855   7.671   8.703  0.0075  0.0194  0.0841
   52loPI    C1  817   3.919  13.371  11.185  0.0539 -0.0355 -0.1683
   52loPI    C2  818   4.237  13.220  11.374  0.0385  0.0661 -0.0593
   52loPI    C3  819   4.106  13.586  11.465 -0.1161  0.0211 -0.0966
   52loPI   PO4  820   3.865  13.125  11.039  0.0353  0.0191  0.0452
   52loPI   GL1  821   3.622  13.034  10.706 -0.0599 -0.0476 -0.2426
   52loPI   GL2  822   3.398  13.209  10.676  0.1613 -0.0973 -0.4017
   52loPI   C1A  823   3.730  13.139  10.287  0.2405 -0.0020  0.2530
   52loPI   C2A  824   3.939  13.109   9.888 -0.2097  0.1618  0.1171
   52loPI   C3A  825   3.853  13.147   9.481 -0.0517  0.3383 -0.2483
   52loPI   C4A  826   4.065  12.999   9.008  0.0196  0.2818  0.1169
   52loPI   C5A  827   4.288  12.977   8.581  0.0812 -0.0261  0.2142
   52loPI   C6A  828   4.465  12.983   8.281 -0.0203 -0.2253 -0.0500
   52loPI   C1B  829   3.245  13.372  10.294  0.1467 -0.0138 -0.1298
   52loPI   C2B  830   3.350  13.269   9.930  0.3320  0.1588  0.2201
   52loPI   C3B  831   3.420  13.106   9.636  0.0565 -0.0485 -0.0341
   52loPI   C4B  832   3.264  12.964   9.357 -0.0413 -0.3459 -0.3460
   53loPI    C1  833   5.288  15.391  10.949  0.1634  0.0942  0.0690
   53loPI    C2  834   5.140  15.573  11.273 -0.1276 -0.1660  0.0870
   53loPI    C3  835   4.893  15.446  10.984  0.1068 -0.1730 -0.1133
   53loPI   PO4  836   5.433  15.544  10.815  0.0014 -0.2180  0.0659
   53loPI   GL1  837   5.628  15.557  10.400 -0.2170 -0.0039 -0.0299
   53loPI   GL2  838   5.693  15.784  10.470 -0.0249 -0.2687  0.1989
   53loPI   C1A  839   5.989  15.543  10.094 -0.0384  0.0088 -0.0006
   53loPI   C2A  840   6.089  15.405   9.724 -0.3310 -0.1785 -0.1635
   53loPI   C3A  841   6.067  15.398   9.294  0.2494  0.1152 -0.0439
   53loPI   C4A  842   6.168  15.554   8.867  0.1802 -0.0021  0.0344
   53loPI   C5A  843   5.917  15.853   8.678 -0.1341 -0.2812  0.0454
   53loPI   C6A  844   5.699  15.819   8.264 -0.0748 -0.0580  0.2104
   53loPI   C1B  845   5.609  15.870   9.955  0.0013 -0.1602  0.0820
   53loPI   C2B  846   5.718  15.785   9.515 -0.0310 -0.0904 -0.2303
   53loPI   C3B  847   5.605  15.791   9.217  0.1097  0.0220  0.1236
   53loPI   C4B  848   5.477  15.952   8.772  0.0701  0.1674  0.0181
   54loPI    C1  849  12.129   3.745  10.665  0.1385  0.0267 -0.1313
   54loPI    C2  850  11.920   4.086  10.649 -0.1166 -0.1207 -0.0029
   54loPI    C3  851  12.242   4.059  10.886 -0.0998  0.0280 -0.0080
   54loPI   PO4  852  12.186   3.688  10.460  0.2275  0.3084  0.2565
   54loPI   GL1  853  12.180   3.639  10.027 -0.0824  0.2122 -0.1799
   54loPI   GL2  854  12.393   3.342  10.063  0.1067 -0.1034 -0.3175
   54loPI   C1A  855  12.280   3.573   9.681  0.0092 -0.0374  0.0813
   54loPI   C2A  856  12.304   3.564   9.311 -0.1096  0.2144  0.2031
   54loPI   C3A  857  12.286   3.418   8.899 -0.0299  0.3154 -0.1296
   54loPI   C4A  858  12.186   3.129   8.555 -0.2365 -0.3222  0.0733
   54loPI   C5A  859  12.362   2.881   8.246  0.2374  0.1511  0.2878
   54loPI   C6A  860  12.386   2.509   8.133 -0.1899  0.0324  0.0629
   54loPI   C1B  861  12.517   3.120   9.566  0.3423 -0.2972 -0.1802
   54loPI   C2B  862  12.503   2.999   9.199  0.1348  0.0471  0.1103
   54loPI   C3B  863  12.581   2.867   8.732  0.2112 -0.3496 -0.0795
   54loPI   C4B  864  12.729   2.542   8.473 -0.1380  0.0581  0.1533
   55loPI    C1  865   2.392   4.751  10.717  0.0458 -0.0808 -0.2232
   55loPI    C2  866   2.352   4.865  11.098 -0.3453 -0.0775 -0.2609
   55loPI    C3  867   2.685   4.955  10.896 -0.2107  0.0782  0.0241
   55loPI   PO4  868   2.220   4.598  10.685  0.0494  0.0009  0.4168
   55loPI   GL1  869   1.729   4.540  10.606  0.1011  0.0901  0.1275
   55loPI   GL2  870   1.843   4.668  10.370  0.1862 -0.0878 -0.0494
   55loPI   C1A  871   1.419   4.271  10.262 -0.0948 -0.1542 -0.2250
   55loPI   C2A  872   1.504   4.281   9.797  0.2219  0.0937  0.1099
   55loPI   C3A  873   1.544   3.968   9.521  0.0455  0.0598  0.1277
   55loPI   C4A  874   1.304   3.835   9.175  0.2022  0.2737  0.1567
   55loPI   C5A  875   1.287   4.030   8.743 -0.2260 -0.0998 -0.2697
   55loPI   C6A  876   1.247   4.445   8.466  0.0545 -0.1952 -0.3471
   55loPI   C1B  877   1.889   4.615   9.913  0.0888  0.0255  0.1588
   55loPI   C2B  878   1.752   4.676   9.570  0.0171  0.0166 -0.1832
   55loPI   C3B  879   1.685   4.797   9.165 -0.1953  0.0276  0.0890
   55loPI   C4B  880   1.699   4.760   8.778  0.2883 -0.3286 -0.0836
   56loPI    C1  881  16.569  14.451  10.764  0.1125 -0.1065 -0.1442
   56loPI    C2  882  16.789  14.368  11.087  0.0126 -0.0300 -0.0559
   56loPI    C3  883  16.710  14.748  10.991  0.1933 -0.0451 -0.2731
   56loPI   PO4  884  16.607  14.177  10.642  0.2627 -0.1304 -0.0062
   56loPI   GL1  885  16.320  14.019  10.418  0.0144 -0.4565 -0.1776
   56loPI   GL2  886  16.056  13.971  10.300 -0.1007 -0.1949  0.0616
   56loPI   C1A  887  16.576  13.709  10.114  0.0924 -0.2225  0.2228
   56loPI   C2A  888  16.659  13.455   9.797 -0.0872  0.0999 -0.0362
   56loPI   C3A  889  16.859  13.245   9.446  0.0194 -0.0774 -0.3690
   56loPI   C4A  890  17.065  13.203   9.066 -0.2441  0.0340 -0.4134
   56loPI   C5A  891  17.024  12.979   8.673  0.2979 -0.0690 -0.1271
   56loPI   C6A  892  17.010  12.728   8.300  0.0178  0.2207 -0.1376
   56loPI   C1B  893  16.005  13.788   9.960 -0.0734 -0.2010  0.0653
   56loPI   C2B  894  15.930  13.913   9.569 -0.0021 -0.1527  0.0445
   56loPI   C3B  895  16.042  13.687   9.223  0.1954 -0.1155 -0.2526
   56loPI   C4B  896  16.136  13.534   8.788 -0.3505 -0.0548 -0.2024
   57loPI    C1  897  15.290  15.088  11.050 -0.0980 -0.0696  0.1103
   57loPI    C2  898  15.656  15.044  11.205  0.0019  0.2350 -0.0305
   57loPI    C3  899  15.355  15.172  11.435  0.0073  0.0874  0.0596
   57loPI   PO4  900  15.436  15.262  10.786 -0.1953  0.2632  0.0472
   57loPI   GL1  901  15.359  15.233  10.308  0.0351  0.2903 -0.0318
   57loPI   GL2  902  15.549  15.042  10.256  0.0958  0.0118 -0.1445
   57loPI   C1A  903  15.387  15.187   9.779  0.0322  0.0581 -0.2320
   57loPI   C2A  904  15.390  15.129   9.312 -0.0640 -0.2113  0.1915
   57loPI   C3A  905  15.336  15.020   8.908  0.0194  0.0212  0.0654
   57loPI   C4A  906  15.554  14.969   8.575  0.2698  0.1885 -0.0629
   57loPI   C5A  907  15.765  14.607   8.328 -0.0498  0.0921  0.1646
   57loPI   C6A  908  15.955  14.325   8.171 -0.1174 -0.2036  0.0212
   57loPI   C1B  909  15.784  14.924  10.099  0.0250 -0.1308  0.1334
   57loPI   C2B  910  15.837  14.842   9.750  0.0087  0.0227 -0.1544
   57loPI   C3B  911  15.811  14.863   9.392  0.2645  0.0474 -0.0230
   57loPI   C4B  912  15.759  14.737   8.992  0.0460  0.3273 -0.1134
   58loPI    C1  913   8.406   3.890  11.126  0.0760  0.0487 -0.1173
   58loPI    C2  914   8.472   4.083  11.470  0.0968 -0.0998 -0.0374
   58loPI    C3  915   8.289   3.727  11.472  0.0766 -0.0906 -0.1820
   58loPI   PO4  916   8.518   4.004  10.865 -0.0943 -0.1600  0.5467
   58loPI   GL1  917   8.660   3.860  10.471  0.1582  0.0376 -0.3615
   58loPI   GL2  918   8.582   3.490  10.472 -0.0506  0.0871  0.1521
   58loPI   C1A  919   8.732   3.640   9.982  0.1406  0.0041 -0.2740
   58loPI   C2A  920   8.630   3.517   9.629  0.2675 -0.2078  0.0316
   58loPI   C3A  921   8.639   3.292   9.315  0.1757 -0.1840  0.1856
   58loPI   C4A  922   8.676   3.244   8.948  0.0989 -0.0625  0.3567
   58loPI   C5A  923   8.602   3.361   8.646  0.1241  0.2545 -0.0319
   58loPI   C6A  924   8.291   3.679   8.474  0.0405  0.0567  0.1873
   58loPI   C1B  925   8.310   3.435  10.155  0.1859  0.2740 -0.1515
   58loPI   C2B  926   8.134   3.355   9.771  0.0223  0.2078 -0.1648
   58loPI   C3B  927   8.118   3.277   9.417  0.0214  0.1025 -0.1577
   58loPI   C4B  928   8.098   3.133   9.006 -0.4331  0.0036 -0.2590
   59loPI    C1  929  10.387   5.241  11.089  0.0454  0.0566  0.0526
   59loPI    C2  930  10.400   5.435  11.438  0.0386 -0.0861  0.1327
   59loPI    C3  931  10.627   5.559  11.133  0.0420  0.0412  0.1861
   59loPI   PO4  932  10.186   5.265  10.927  0.2797 -0.2328 -0.3611
   59loPI   GL1  933  10.129   5.428  10.463 -0.1164 -0.1180 -0.2703
   59loPI   GL2  934   9.884   5.307  10.403  0.0981 -0.3704  0.3171
   59loPI   C1A  935  10.188   5.677  10.100 -0.2383 -0.1941 -0.0693
   59loPI   C2A  936  10.161   5.803   9.704  0.1554 -0.0926 -0.0050
   59loPI   C3A  937  10.193   5.891   9.208 -0.3007  0.1150 -0.3178
   59loPI   C4A  938  10.277   5.896   8.832 -0.0761 -0.2754 -0.0581
   59loPI   C5A  939  10.482   5.784   8.352  0.0964 -0.0545  0.2035
   59loPI   C6A  940  10.862   5.735   8.242  0.0245  0.0610 -0.2161
   59loPI   C1B  941   9.849   5.155  10.018 -0.0144  0.0397 -0.0808
   59loPI   C2B  942   9.788   5.135   9.558  0.2194  0.1761  0.0676
   59loPI   C3B  943   9.746   5.183   9.120 -0.1281  0.3536 -0.0345
   59loPI   C4B  944   9.815   5.567   8.835  0.1711 -0.1760 -0.3679
   60loPI    C1  945   8.468  11.082  10.941  0.0567  0.2467  0.0902
   60loPI    C2  946   8.772  10.861  11.078  0.0798  0.1056 -0.1813
   60loPI    C3  947   8.459  10.940  11.315  0.0613 -0.2378 -0.0870
   60loPI   PO4  948   8.457  10.932  10.686 -0.1014 -0.2112 -0.0625
   60loPI   GL1  949   8.226  10.864  10.331 -0.0325 -0.1139 -0.4577
   60loPI   GL2  950   8.539  10.952  10.187 -0.0446  0.3290  0.2219
   60loPI   C1A  951   8.220  10.657   9.890  0.3156  0.0428  0.0938
   60loPI   C2A  952   8.204  10.588   9.355 -0.0261 -0.0829 -0.0107
   60loPI   C3A  953   8.356  10.544   8.949 -0.1234  0.1826 -0.1006
   60loPI   C4A  954   8.362  10.353   8.463  0.2838 -0.3474 -0.3480
   60loPI   C5A  955   8.614  10.307   8.087  0.0269  0.2241  0.0341
   60loPI   C6A  956   8.858  10.305   7.840 -0.1039  0.2039 -0.0166
   60loPI   C1B  957   8.392  11.094   9.768 -0.0878 -0.0134  0.1167
   60loPI   C2B  958   8.452  11.070   9.383 -0.0259  0.2326 -0.0908
   60loPI   C3B  959   8.198  11.093   9.007 -0.1284  0.0475 -0.0612
   60loPI   C4B  960   8.190  10.917   8.611 -0.2511  0.2224  0.1255
   61loPI    C1  961  13.554   6.902  11.082  0.0409  0.1256  0.0683
   61loPI    C2  962  13.939   6.963  11.171  0.0343  0.0040  0.1851
   61loPI    C3  963  13.655   7.174  11.357  0.0372 -0.0120  0.2076
   61loPI   PO4  964  13.557   6.832  10.811 -0.1738 -0.1193 -0.0656
   61loPI   GL1  965  13.449   7.095  10.458  0.3689  0.1767 -0.0968
   61loPI   GL2  966  13.381   7.478  10.535  0.0726  0.1886 -0.1508
   61loPI   C1A  967  13.262   6.986  10.058  0.0671  0.0459 -0.2515
   61loPI   C2A  968  13.167   6.937   9.717 -0.0465 -0.2196 -0.2386
   61loPI   C3A  969  13.024   6.896   9.307  0.2823  0.0413  0.2678
   61loPI   C4A  970  12.949   6.676   8.965  0.0439  0.1621  0.1268
   61loPI   C5A  971  12.741   6.742   8.623  0.3251 -0.0277  0.1696
   61loPI   C6A  972  12.350   6.740   8.376  0.1168 -0.0535 -0.0384
   61loPI   C1B  973  13.264   7.501  10.120  0.0712 -0.2406  0.1326
   61loPI   C2B  974  13.402   7.634   9.760 -0.1211  0.0347  0.0784
   61loPI   C3B  975  13.389   7.791   9.331  0.0677  0.0133  0.0291
   61loPI   C4B  976  13.387   7.904   8.896  0.0655  0.0531  0.1244
   62loPI    C1  977  13.124  12.567  11.186  0.0776 -0.1260  0.1457
   62loPI    C2  978  12.847  12.700  11.441  0.0151 -0.0069  0.0164
   62loPI    C3  979  12.951  12.314  11.444  0.1009  0.0160  0.3022
   62loPI   PO4  980  13.051  12.682  10.870  0.0538 -0.2387 -0.3093
   62loPI   GL1  981  13.008  12.493  10.450 -0.0937  0.3245  0.1268
   62loPI   GL2  982  13.039  12.868  10.336  0.1448 -0.2751  0.0477
   62loPI   C1A  983  12.892  12.477  10.054  0.0543 -0.3963 -0.0569
   62loPI   C2A  984  12.983  12.524   9.610  0.1159 -0.4014  0.0207
   62loPI   C3A  985  13.143  12.685   9.105  0.1527 -0.0972 -0.1100
   62loPI   C4A  986  13.379  12.968   8.700 -0.0453  0.0106 -0.1140
   62loPI   C5A  987  13.251  13.344   8.536  0.3267 -0.0727 -0.3497
   62loPI   C6A  988  13.356  13.597   8.206  0.2937  0.1977 -0.2005
   62loPI   C1B  989  13.236  12.899   9.905 -0.1024 -0.0187  0.0492
   62loPI   C2B  990  13.457  13.003   9.567  0.0786  0.1418 -0.0391
   62loPI   C3B  991  13.533  13.036   9.214 -0.1947 -0.2769 -0.1377
   62loPI   C4B  992  13.859  13.055   8.931 -0.2389  0.1490  0.0169
   63loPI    C1  993  10.098  17.427  11.132 -0.0339  0.0660 -0.1849
   63loPI    C2  994   9.787  17.395  11.380 -0.1947  0.2424 -0.3602
   63loPI    C3  995   9.895  17.754  11.241  0.2870  0.2257 -0.0525
   63loPI   PO4  996  10.095  17.262  11.014  0.1194 -0.2832  0.0941
   63loPI   GL1  997  10.160  17.298  10.611  0.3875 -0.3354 -0.0602
   63loPI   GL2  998   9.881  17.161  10.502 -0.0765 -0.2969  0.2537
   63loPI   C1A  999  10.411  17.345  10.141  0.1319 -0.0715  0.0706
   63loPI   C2A 1000  10.255  17.515   9.820  0.3975  0.1141  0.1157
   63loPI   C3A 1001  10.221  17.619   9.455 -0.2315  0.2479 -0.0961
   63loPI   C4A 1002  10.196  17.564   9.157  0.0528  0.1237 -0.3242
   63loPI   C5A 1003  10.189  17.688   8.774  0.3543  0.0551  0.0713
   63loPI   C6A 1004  10.006  17.743   8.356  0.1667  0.0518  0.1410
   63loPI   C1B 1005   9.887  17.187  10.109  0.0528  0.0793  0.2030
   63loPI   C2B 1006   9.682  17.320   9.671 -0.0166 -0.1807 -0.3875
   63loPI   C3B 1007   9.775  17.288   9.271  0.1304  0.1630 -0.2331
   63loPI   C4B 1008   9.740  17.372   8.743  0.3485 -0.3057 -0.0489
   64loPI    C1 1009  12.408   6.771  10.528  0.2132 -0.1517 -0.1977
   64loPI    C2 1010  12.463   7.072  10.785  0.0178 -0.0583 -0.2637
   64loPI    C3 1011  12.640   6.720  10.850 -0.1120 -0.0680  0.0555
   64loPI   PO4 1012  12.171   6.785  10.494  0.0074  0.1861  0.1897
   64loPI   GL1 1013  12.091   6.934  10.158 -0.1433 -0.0683 -0.2161
   64loPI   GL2 1014  12.441   6.788  10.045 -0.0478  0.3637 -0.1698
   64loPI   C1A 1015  12.109   6.856   9.659  0.1916  0.0219 -0.1988
   64loPI   C2A 1016  11.962   6.700   9.243  0.1378  0.0358  0.0596
   64loPI   C3A 1017  11.807   6.754   8.904 -0.1721 -0.0712 -0.1382
   64loPI   C4A 1018  11.802   6.820   8.444  0.0524 -0.0299  0.3857
   64loPI   C5A 1019  11.914   6.628   8.085  0.0852  0.2923  0.4186
   64loPI   C6A 1020  12.137   6.405   7.790  0.3331 -0.1097 -0.1568
   64loPI   C1B 1021  12.599   6.891   9.702  0.3017  0.3181  0.5683
   64loPI   C2B 1022  12.494   6.827   9.271 -0.2792  0.3928 -0.1269
   64loPI   C3B 1023  12.442   6.603   8.963  0.2506 -0.1035 -0.1858
   64loPI   C4B 1024  12.118   6.484   8.675  0.2735  0.0731 -0.0382
   65loPI    C1 1025  17.484   4.513  10.894 -0.0467 -0.0502 -0.0197
   65loPI    C2 1026  17.542   4.119  10.856  0.1098 -0.0230 -0.0705
   65loPI    C3 1027  17.318   4.260  11.155  0.1579 -0.1430  0.0229
   65loPI   PO4 1028  17.520   4.617  10.696  0.0002 -0.0765 -0.0241
   65loPI   GL1 1029  17.595   4.504  10.364 -0.1321  0.0308 -0.2126
   65loPI   GL2 1030  17.875   4.522  10.355  0.1138 -0.1205 -0.1622
   65loPI   C1A 1031  17.480   4.184  10.108  0.2016  0.2105  0.0430
   65loPI   C2A 1032  17.325   4.112   9.667 -0.0265 -0.2207 -0.2462
   65loPI   C3A 1033  17.240   4.082   9.289  0.1784  0.0171 -0.0252
   65loPI   C4A 1034  17.362   4.142   8.984  0.0901  0.2333 -0.0273
   65loPI   C5A 1035  17.414   3.926   8.620 -0.1469  0.3015 -0.0801
   65loPI   C6A 1036  17.400   4.022   8.165 -0.1024 -0.2707 -0.0544
   65loPI   C1B 1037  17.955   4.309   9.971 -0.2307  0.1669  0.1652
   65loPI   C2B 1038  18.256   4.195   9.591  0.1453 -0.0104  0.0013
   65loPI   C3B 1039  18.319   4.265   9.132  0.0651  0.1229 -0.0127
   65loPI   C4B 1040  18.729   4.217   8.791  0.0980  0.3680  0.1894
   66loPI    C1 1041   9.813   4.986  10.768  0.0238  0.0096 -0.0655
   66loPI    C2 1042   9.575   5.008  11.090  0.0749  0.2428 -0.0421
   66loPI    C3 1043   9.951   4.876  11.127  0.0723  0.2439 -0.0110
   66loPI   PO4 1044   9.621   4.900  10.571  0.1140 -0.0035 -0.0016
   66loPI   GL1 1045   9.647   4.663  10.274 -0.4559  0.0001 -0.1327
   66loPI   GL2 1046   9.474   4.387  10.441  0.1364  0.1185  0.0535
   66loPI   C1A 1047   9.609   4.631   9.798  0.0941  0.1026 -0.0472
   66loPI   C2A 1048   9.495   4.723   9.422 -0.1618  0.1361 -0.0259
   66loPI   C3A 1049   9.199   4.950   9.086  0.1514  0.1280 -0.0604
   66loPI   C4A 1050   9.125   4.952   8.697  0.0440 -0.0367  0.1370
   66loPI   C5A 1051   9.258   4.985   8.274 -0.1103  0.1562  0.0315
   66loPI   C6A 1052   9.513   5.086   7.950  0.0995 -0.3561  0.2047
   66loPI   C1B 1053   9.451   4.256  10.036  0.0870  0.2144  0.4618
   66loPI   C2B 1054   9.329   4.221   9.635 -0.0612 -0.0801  0.0707
   66loPI   C3B 1055   9.214   4.274   9.227  0.1852  0.0860  0.0764
   66loPI   C4B 1056   9.008   4.235   8.840 -0.2668  0.0683 -0.2153
   67loPI    C1 1057  13.689  15.700  11.387 -0.0360  0.1095  0.1957
   67loPI    C2 1058  13.692  16.087  11.491  0.0582  0.1263  0.1317
   67loPI    C3 1059  13.876  15.817  11.721  0.2735  0.1644  0.0067
   67loPI   PO4 1060  13.823  15.772  11.060  0.4300  0.2336 -0.1900
   67loPI   GL1 1061  13.936  15.572  10.683  0.1389 -0.0585  0.1113
   67loPI   GL2 1062  13.775  15.339  10.761 -0.1711  0.3175 -0.3089
   67loPI   C1A 1063  14.054  15.483  10.276 -0.0948 -0.3479  0.1052
   67loPI   C2A 1064  14.047  15.500   9.845  0.2669 -0.0071 -0.4490
   67loPI   C3A 1065  14.028  15.444   9.387 -0.3330  0.0720  0.1809
   67loPI   C4A 1066  13.961  15.492   8.962 -0.1087  0.0478 -0.1725
   67loPI   C5A 1067  13.854  15.605   8.442 -0.0449 -0.0022 -0.1777
   67loPI   C6A 1068  13.551  15.851   8.256  0.0944 -0.2391 -0.1004
   67loPI   C1B 1069  13.616  15.255  10.362  0.1642  0.4129  0.0146
   67loPI   C2B 1070  13.900  14.953  10.147  0.0089 -0.0719  0.1942
   67loPI   C3B 1071  13.938  14.956   9.670  0.0921 -0.2575  0.1964
   67loPI   C4B 1072  14.010  14.922   9.266 -0.4966  0.0195 -0.0466
   68loPI    C1 1073  11.027  13.894  10.853  0.2128 -0.1021  0.0890
   68loPI    C2 1074  11.111  14.261  10.987 -0.2651  0.2151 -0.4363
   68loPI    C3 1075  10.848  14.032  11.183  0.1954  0.0522  0.0155
   68loPI   PO4 1076  11.019  13.999  10.543  0.0976  0.3155  0.0635
   68loPI   GL1 1077  10.829  14.307  10.287 -0.0501  0.1469  0.2436
   68loPI   GL2 1078  10.636  14.445  10.349 -0.1965  0.2051 -0.0863
   68loPI   C1A 1079  10.848  14.299   9.764 -0.1165  0.1848 -0.3291
   68loPI   C2A 1080  10.857  14.265   9.322  0.0106  0.0388  0.1589
   68loPI   C3A 1081  10.902  14.217   8.907 -0.2681  0.0106  0.1754
   68loPI   C4A 1082  11.246  14.139   8.638 -0.1952  0.0784  0.1741
   68loPI   C5A 1083  11.323  14.420   8.249 -0.0199 -0.2886 -0.3151
   68loPI   C6A 1084  11.542  14.774   8.228  0.0747  0.0826  0.3136
   68loPI   C1B 1085  10.457  14.636  10.020 -0.6023 -0.2280 -0.0339
   68loPI   C2B 1086  10.538  14.664   9.589 -0.2618  0.2261  0.2942
   68loPI   C3B 1087  10.505  14.582   9.083 -0.2650 -0.1474 -0.0469
   68loPI   C4B 1088  10.297  14.495   8.793 -0.1743  0.2382  0.3625
   69loPI    C1 1089   0.025  13.531  10.768  0.0209  0.2452 -0.1916
   69loPI    C2 1090   0.187  13.201  10.925 -0.1416  0.3345  0.1758
   69loPI    C3 1091   0.380  13.551  10.951  0.0784  0.2574 -0.3036
   69loPI   PO4 1092   0.018  13.496  10.498  0.2478  0.2754  0.1946
   69loPI   GL1 1093  -0.133  13.626  10.095 -0.0202  0.0244 -0.0799
   69loPI   GL2 1094  -0.407  13.788  10.178 -0.0571  0.1214 -0.2605
   69loPI   C1A 1095  -0.177  13.230   9.738  0.0042 -0.2363 -0.1147
   69loPI   C2A 1096  -0.015  13.093   9.394  0.3120 -0.0637 -0.2533
   69loPI   C3A 1097   0.157  13.187   8.980  0.0838 -0.2509 -0.0614
   69loPI   C4A 1098   0.091  13.401   8.663  0.2823 -0.0559 -0.2721
   69loPI   C5A 1099   0.188  13.147   8.290 -0.1245 -0.1587  0.1642
   69loPI   C6A 1100   0.072  13.305   7.893 -0.1334  0.1149  0.0112
   69loPI   C1B 1101  -0.413  13.872   9.772  0.1289 -0.0457  0.0100
   69loPI   C2B 1102  -0.426  14.031   9.361  0.1676  0.0578 -0.1857
   69loPI   C3B 1103  -0.465  14.278   9.075 -0.2227  0.1565 -0.2634
   69loPI   C4B 1104  -0.221  14.326   8.866 -0.3351 -0.0483 -0.0468
   70loPI    C1 1105   0.861  10.966  10.847 -0.0215 -0.0717 -0.1918
   70loPI    C2 1106   0.622  11.250  10.995 -0.0533  0.1556 -0.6634
   70loPI    C3 1107   0.909  11.092  11.224 -0.3296  0.2362 -0.2504
   70loPI   PO4 1108   0.921  11.086  10.586  0.0904 -0.0331 -0.1152
   70loPI   GL1 1109   1.093  11.322  10.230  0.1144 -0.2016 -0.1241
   70loPI   GL2 1110   0.748  11.192  10.137  0.0580  0.0469  0.1439
   70loPI   C1A 1111   0.938  11.483   9.810 -0.0257 -0.0406  0.0639
   70loPI   C2A 1112   1.009  11.500   9.356 -0.3788  0.0062 -0.2611
   70loPI   C3A 1113   1.249  11.473   8.971 -0.0873  0.0275  0.0780
   70loPI   C4A 1114   1.413  11.460   8.572  0.3241  0.1320  0.0552
   70loPI   C5A 1115   1.549  11.647   8.099  0.0869  0.0899 -0.1216
   70loPI   C6A 1116   1.505  11.823   7.677  0.1867  0.1327 -0.1110
   70loPI   C1B 1117   0.656  11.039   9.715 -0.1125  0.0357  0.1431
   70loPI   C2B 1118   0.732  11.000   9.308  0.0226 -0.1484 -0.1243
   70loPI   C3B 1119   1.057  10.933   9.006  0.0711  0.1019  0.1181
   70loPI   C4B 1120   1.137  11.041   8.567  0.2895  0.0984  0.1066
   71loPI    C1 1121  15.488   8.985  10.807  0.2177  0.1136  0.1154
   71loPI    C2 1122  15.208   9.057  11.083  0.0304 -0.0530 -0.0277
   71loPI    C3 1123  15.292   8.681  10.977 -0.0795  0.0173 -0.3778
   71loPI   PO4 1124  15.387   9.153  10.601  0.0690 -0.1244 -0.2926
   71loPI   GL1 1125  15.199   9.106  10.194 -0.2562 -0.0711  0.2147
   71loPI   GL2 1126  15.189   9.471  10.288  0.1518  0.0951 -0.0350
   71loPI   C1A 1127  15.285   9.107   9.742 -0.3194  0.3923  0.3098
   71loPI   C2A 1128  15.446   8.990   9.455 -0.3067 -0.0071 -0.1747
   71loPI   C3A 1129  15.555   8.642   9.278 -0.2815 -0.0659  0.1010
   71loPI   C4A 1130  15.459   8.567   8.807  0.1018  0.1577  0.0747
   71loPI   C5A 1131  15.313   8.654   8.370 -0.1520 -0.2650  0.0842
   71loPI   C6A 1132  15.023   8.993   8.251 -0.0350 -0.3649  0.0358
   71loPI   C1B 1133  15.100   9.596   9.860 -0.0028  0.1921 -0.0470
   71loPI   C2B 1134  15.056   9.509   9.413 -0.0964  0.1229  0.2561
   71loPI   C3B 1135  15.293   9.291   9.084 -0.1740 -0.5144 -0.1573
   71loPI   C4B 1136  15.209   9.333   8.597 -0.1275 -0.1555 -0.2670
   72loPI    C1 1137   3.502  14.002  10.891  0.1642 -0.0777 -0.1827
   72loPI    C2 1138   3.599  13.615  10.857 -0.2768 -0.1947 -0.1729
   72loPI    C3 1139   3.546  13.777  11.219  0.0298 -0.0903 -0.1725
   72loPI   PO4 1140   3.313  13.999  10.682  0.1823  0.4363 -0.1319
   72loPI   GL1 1141   2.969  14.137  10.446 -0.1655  0.1227  0.1166
   72loPI   GL2 1142   3.080  14.442  10.313 -0.4025 -0.0595 -0.0342
   72loPI   C1A 1143   3.204  13.894   9.970  0.0127 -0.1579  0.0458
   72loPI   C2A 1144   3.412  13.856   9.592  0.1506  0.1048  0.1046
   72loPI   C3A 1145   3.396  13.527   9.315  0.2923 -0.0949  0.0970
   72loPI   C4A 1146   3.567  13.199   9.018  0.0449  0.1931 -0.0186
   72loPI   C5A 1147   3.789  13.105   8.643 -0.0729  0.4528  0.0065
   72loPI   C6A 1148   3.885  12.720   8.600 -0.1948 -0.0659 -0.2131
   72loPI   C1B 1149   2.984  14.393   9.920 -0.0037  0.0909 -0.0847
   72loPI   C2B 1150   2.930  14.482   9.414  0.1940 -0.0060 -0.3206
   72loPI   C3B 1151   2.864  14.629   8.974 -0.1479  0.0235  0.2666
   72loPI   C4B 1152   2.826  14.638   8.584 -0.0505 -0.1983 -0.0133
   73loPI    C1 1153  12.720  15.590  11.084  0.0840 -0.0997 -0.1299
   73loPI    C2 1154  12.915  15.242  11.069  0.1110 -0.0846 -0.1280
   73loPI    C3 1155  12.864  15.427  11.419  0.2970  0.0265 -0.1584
   73loPI   PO4 1156  12.894  15.666  10.819 -0.0950 -0.0328  0.1442
   73loPI   GL1 1157  12.729  15.676  10.361  0.1682  0.1660 -0.0948
   73loPI   GL2 1158  12.599  16.020  10.285 -0.1444  0.1917  0.1031
   73loPI   C1A 1159  12.663  15.564   9.897  0.1861  0.0849  0.0114
   73loPI   C2A 1160  12.658  15.689   9.525  0.4502  0.2261  0.0243
   73loPI   C3A 1161  12.533  15.650   9.114  0.0547 -0.2776  0.3014
   73loPI   C4A 1162  12.272  15.641   8.731  0.3721  0.0921  0.0915
   73loPI   C5A 1163  11.936  15.460   8.613 -0.0060 -0.0963 -0.1993
   73loPI   C6A 1164  11.835  14.918   8.669  0.0321 -0.1084 -0.0387
   73loPI   C1B 1165  12.733  16.053   9.868  0.0278 -0.1483 -0.0429
   73loPI   C2B 1166  12.696  16.158   9.418  0.0113  0.0878  0.3953
   73loPI   C3B 1167  12.526  16.131   8.924  0.1954  0.0713  0.0519
   73loPI   C4B 1168  12.674  16.366   8.577 -0.0745  0.1840 -0.2199
   74loPI    C1 1169   8.615   0.863  11.406 -0.2112 -0.1336 -0.0170
   74loPI    C2 1170   8.871   0.677  11.650 -0.1747 -0.4560 -0.2930
   74loPI    C3 1171   8.528   0.826  11.794  0.2616  0.1951  0.1297
   74loPI   PO4 1172   8.638   0.702  11.179  0.0869 -0.1905 -0.0323
   74loPI   GL1 1173   8.726   0.589  10.758 -0.0584 -0.0272  0.0900
   74loPI   GL2 1174   9.046   0.541  10.613  0.0297  0.3291  0.1714
   74loPI   C1A 1175   8.581   0.365  10.366 -0.0327  0.0335  0.1254
   74loPI   C2A 1176   8.557   0.393   9.925 -0.0487  0.1753 -0.0842
   74loPI   C3A 1177   8.453   0.318   9.452  0.1428  0.1287  0.0186
   74loPI   C4A 1178   8.400   0.310   9.072 -0.1259  0.0952  0.2505
   74loPI   C5A 1179   8.115   0.228   8.698 -0.2658  0.0654  0.0329
   74loPI   C6A 1180   8.002   0.062   8.362  0.1815  0.1913 -0.0980
   74loPI   C1B 1181   9.052   0.571  10.182  0.1310 -0.1867 -0.0403
   74loPI   C2B 1182   8.894   0.554   9.649 -0.1241 -0.0550  0.0615
   74loPI   C3B 1183   8.827   0.508   9.239  0.1911 -0.1302 -0.1858
   74loPI   C4B 1184   8.918   0.716   8.895  0.0683  0.2194  0.0089
   75loPI    C1 1185   5.370   2.493  10.834  0.0166  0.0075 -0.1790
   75loPI    C2 1186   5.751   2.596  10.896 -0.0132  0.0179 -0.0077
   75loPI    C3 1187   5.467   2.877  10.891 -0.0386 -0.0073  0.0217
   75loPI   PO4 1188   5.410   2.384  10.595  0.0532 -0.3057 -0.0204
   75loPI   GL1 1189   5.377   2.343  10.199  0.1979  0.1031  0.0360
   75loPI   GL2 1190   5.183   2.452   9.981  0.1180  0.0892 -0.0571
   75loPI   C1A 1191   5.742   2.172  10.074  0.0501  0.1757  0.0401
   75loPI   C2A 1192   5.871   2.171   9.729 -0.0133 -0.0992  0.0036
   75loPI   C3A 1193   5.931   2.310   9.317 -0.1803  0.3086  0.1387
   75loPI   C4A 1194   6.191   2.673   9.089  0.1792  0.1137  0.0971
   75loPI   C5A 1195   6.084   2.511   8.586  0.0433  0.0168 -0.1537
   75loPI   C6A 1196   5.894   2.288   8.217  0.0713 -0.3160  0.0116
   75loPI   C1B 1197   5.344   2.348   9.622  0.0706 -0.0496 -0.1777
   75loPI   C2B 1198   5.361   2.387   9.194 -0.2280  0.0507 -0.0750
   75loPI   C3B 1199   5.145   2.195   8.917  0.0556 -0.0221  0.2285
   75loPI   C4B 1200   4.711   1.993   8.972 -0.0125 -0.0255 -0.1695
   76loPI    C1 1201  14.545   0.835  11.253  0.0295  0.2382  0.0168
   76loPI    C2 1202  14.436   0.485  11.413 -0.1175  0.1510 -0.2671
   76loPI    C3 1203  14.399   0.822  11.625 -0.1101  0.0132 -0.0438
   76loPI   PO4 1204  14.794   0.730  11.095 -0.1644 -0.1596 -0.1672
   76loPI   GL1 1205  14.835   0.837  10.606  0.1180  0.0088 -0.1151
   76loPI   GL2 1206  15.132   0.938  10.800  0.0981  0.2828 -0.0018
   76loPI   C1A 1207  14.990   1.005  10.145  0.0906 -0.0964  0.0819
   76loPI   C2A 1208  15.167   1.277   9.776  0.1157  0.0034 -0.3584
   76loPI   C3A 1209  15.227   1.603   9.505 -0.3666  0.0095  0.2921
   76loPI   C4A 1210  15.032   1.633   9.162 -0.0136 -0.0544 -0.1077
   76loPI   C5A 1211  14.932   1.422   8.666  0.1091 -0.1620 -0.0392
   76loPI   C6A 1212  15.061   1.214   8.472 -0.1301 -0.0294  0.1989
   76loPI   C1B 1213  15.348   0.847  10.409  0.1698  0.2208  0.0346
   76loPI   C2B 1214  15.389   0.801   9.965  0.0867  0.2944 -0.0609
   76loPI   C3B 1215  15.316   0.901   9.488 -0.0391 -0.1703  0.0368
   76loPI   C4B 1216  15.197   1.099   9.137  0.1610  0.0348 -0.0887
   77loPI    C1 1217  16.696   7.511  10.950 -0.0067  0.1264 -0.0001
   77loPI    C2 1218  16.586   7.894  10.981 -0.1079  0.0792  0.2433
   77loPI    C3 1219  16.586   7.658  11.305  0.0756 -0.0946  0.1195
   77loPI   PO4 1220  16.614   7.478  10.717 -0.0717  0.0812  0.1902
   77loPI   GL1 1221  16.442   7.499  10.263  0.2090  0.1642 -0.1287
   77loPI   GL2 1222  16.657   7.823  10.250 -0.0914 -0.1084 -0.0194
   77loPI   C1A 1223  16.481   7.508   9.826  0.0013  0.1624 -0.0067
   77loPI   C2A 1224  16.358   7.285   9.350 -0.0315 -0.1026  0.3706
   77loPI   C3A 1225  16.242   7.223   9.033  0.1764  0.3631 -0.1124
   77loPI   C4A 1226  15.847   7.132   8.788  0.0172  0.0353  0.0433
   77loPI   C5A 1227  15.918   6.938   8.423  0.0626 -0.0398  0.1940
   77loPI   C6A 1228  16.309   6.694   8.278  0.0178  0.4219  0.1834
   77loPI   C1B 1229  16.630   8.231   9.932 -0.2439  0.3418  0.2958
   77loPI   C2B 1230  16.426   8.215   9.595 -0.1043 -0.2884 -0.1019
   77loPI   C3B 1231  16.339   8.176   9.155  0.0339  0.0762 -0.2089
   77loPI   C4B 1232  16.322   8.477   8.795  0.2526 -0.1001  0.1332
   78loPI    C1 1233  14.625   7.403  11.105 -0.3125  0.1147 -0.0461
   78loPI    C2 1234  14.832   7.061  11.097 -0.1493  0.2095  0.0621
   78loPI    C3 1235  14.452   7.061  11.222 -0.1487  0.0687  0.0661
   78loPI   PO4 1236  14.731   7.532  10.811  0.1341  0.1660 -0.3122
   78loPI   GL1 1237  14.596   7.579  10.374 -0.0374 -0.0156 -0.3257
   78loPI   GL2 1238  14.439   7.769  10.254 -0.1340  0.2331 -0.0013
   78loPI   C1A 1239  14.773   7.419   9.943 -0.0171 -0.0147  0.0589
   78loPI   C2A 1240  14.784   7.355   9.502 -0.2427  0.2659  0.2103
   78loPI   C3A 1241  14.641   7.460   9.084  0.0432  0.1520 -0.2237
   78loPI   C4A 1242  14.593   7.454   8.612  0.0143  0.1309 -0.0267
   78loPI   C5A 1243  14.310   7.645   8.365  0.0133  0.4237 -0.0377
   78loPI   C6A 1244  14.098   7.729   8.024 -0.0909 -0.3071  0.1187
   78loPI   C1B 1245  14.442   7.797   9.794  0.0639  0.2877 -0.0110
   78loPI   C2B 1246  14.484   7.845   9.392  0.0426 -0.1104  0.0365
   78loPI   C3B 1247  14.284   7.710   8.905 -0.0258 -0.0090  0.0282
   78loPI   C4B 1248  13.885   7.616   8.667  0.4467 -0.0671 -0.0086
   79loPI    C1 1249  17.154  14.111  10.768  0.1054 -0.0586  0.0025
   79loPI    C2 1250  16.872  13.908  10.965 -0.0317  0.1729  0.0485
   79loPI    C3 1251  17.204  14.025  11.155 -0.1257  0.3233  0.1226
   79loPI   PO4 1252  17.236  13.976  10.599 -0.1596  0.0453 -0.3675
   79loPI   GL1 1253  17.061  14.087  10.229  0.1692 -0.0299 -0.0268
   79loPI   GL2 1254  17.195  14.249  10.010 -0.1036 -0.2140 -0.0686
   79loPI   C1A 1255  16.987  13.872   9.915  0.0727  0.1403  0.1602
   79loPI   C2A 1256  17.008  13.762   9.453  0.1452 -0.0974  0.0235
   79loPI   C3A 1257  17.152  13.769   9.068  0.1437 -0.2606  0.2091
   79loPI   C4A 1258  17.171  13.559   8.705  0.1434  0.0024 -0.0635
   79loPI   C5A 1259  16.998  13.374   8.367  0.0339 -0.0524  0.2298
   79loPI   C6A 1260  16.923  13.661   8.156 -0.0733 -0.1377 -0.0829
   79loPI   C1B 1261  16.998  14.242   9.619  0.0158 -0.3199 -0.2383
   79loPI   C2B 1262  16.842  14.210   9.197 -0.1897  0.1463 -0.0570
   79loPI   C3B 1263  16.748  14.443   8.834  0.3958  0.1877  0.0576
   79loPI   C4B 1264  16.770  14.662   8.493 -0.2480  0.1649 -0.1882
   80loPI    C1 1265  10.587   4.523  11.088 -0.0590 -0.1731  0.1359
   80loPI    C2 1266  10.961   4.513  10.948 -0.0968 -0.2267  0.0378
   80loPI    C3 1267  10.896   4.537  11.342  0.0095 -0.2852  0.0593
   80loPI   PO4 1268  10.428   4.720  10.983 -0.0776  0.2884 -0.0778
   80loPI   GL1 1269  10.410   4.995  10.581  0.1908  0.0766 -0.3063
   80loPI   GL2 1270  10.153   4.876  10.378  0.4579  0.0101  0.1340
   80loPI   C1A 1271  10.411   5.193  10.142 -0.2928 -0.2491  0.1125
   80loPI   C2A 1272  10.275   5.315   9.722 -0.1252 -0.0988  0.0499
   80loPI   C3A 1273  10.168   5.432   9.298  0.0396 -0.0356  0.1221
   80loPI   C4A 1274  10.293   5.389   8.867  0.0702  0.0588 -0.0160
   80loPI   C5A 1275  10.116   5.414   8.496  0.0071 -0.1966 -0.2008
   80loPI   C6A 1276  10.035   5.451   8.016 -0.0749 -0.3633 -0.0654
   80loPI   C1B 1277  10.124   4.762   9.980  0.1374  0.3240  0.3058
   80loPI   C2B 1278  10.071   4.731   9.598 -0.0457  0.0336 -0.1058
   80loPI   C3B 1279   9.951   4.732   9.201  0.0246  0.2042  0.1597
   80loPI   C4B 1280  10.056   4.946   8.835  0.1391 -0.2031 -0.2433
   81loPI    C1 1281   0.950   8.180  10.821  0.0077 -0.0719 -0.0664
   81loPI    C2 1282   1.003   8.303  11.198 -0.2205 -0.0797 -0.0306
   81loPI    C3 1283   1.319   8.246  10.961 -0.0814  0.0272  0.1268
   81loPI   PO4 1284   0.828   8.326  10.669  0.0303 -0.1505 -0.0954
   81loPI   GL1 1285   0.884   8.459  10.251  0.0919  0.0468  0.4393
   81loPI   GL2 1286   0.525   8.464  10.206  0.2013 -0.1739  0.1426
   81loPI   C1A 1287   1.119   8.587   9.874  0.3791 -0.1934  0.0731
   81loPI   C2A 1288   1.182   8.640   9.402  0.2018  0.0147  0.1536
   81loPI   C3A 1289   1.452   8.529   8.965  0.0217 -0.0202 -0.2336
   81loPI   C4A 1290   1.725   8.485   8.648 -0.0757  0.0923  0.0264
   81loPI   C5A 1291   2.130   8.480   8.457  0.0538 -0.2530 -0.0245
   81loPI   C6A 1292   2.256   8.926   8.257  0.0343 -0.1667  0.2959
   81loPI   C1B 1293   0.742   8.327   9.790 -0.0423  0.3588  0.0119
   81loPI   C2B 1294   0.700   8.380   9.285  0.1748 -0.0178 -0.2580
   81loPI   C3B 1295   0.926   8.546   8.963 -0.1288  0.1241 -0.0664
   81loPI   C4B 1296   0.838   8.973   8.892 -0.0583  0.0149 -0.2415
   82loPI    C1 1297  17.837  11.952  10.364  0.0829  0.2016 -0.0685
   82loPI    C2 1298  17.910  12.009  10.753 -0.3052 -0.2185  0.0751
   82loPI    C3 1299  18.209  11.912  10.505 -0.0386  0.1470  0.2441
   82loPI   PO4 1300  17.722  12.181  10.303 -0.2167  0.1838  0.0144
   82loPI   GL1 1301  17.771  12.347   9.928 -0.5055  0.0506  0.0292
   82loPI   GL2 1302  17.674  12.731   9.804  0.1964 -0.2082 -0.0941
   82loPI   C1A 1303  17.488  11.905   9.685 -0.1324 -0.1072  0.0542
   82loPI   C2A 1304  17.324  11.775   9.363 -0.1237 -0.0183  0.1825
   82loPI   C3A 1305  17.410  11.527   9.019  0.1541  0.0397  0.0291
   82loPI   C4A 1306  17.269  11.280   8.638 -0.0812  0.0401 -0.0828
   82loPI   C5A 1307  17.037  11.003   8.367  0.1226  0.1169 -0.4336
   82loPI   C6A 1308  16.775  10.784   8.021  0.0199 -0.0493 -0.0004
   82loPI   C1B 1309  17.849  12.493   9.502 -0.1512 -0.0288  0.2086
   82loPI   C2B 1310  18.132  12.309   9.381  0.0566  0.0584  0.1912
   82loPI   C3B 1311  18.172  12.202   9.026  0.2122  0.0243 -0.1789
   82loPI   C4B 1312  18.419  12.462   8.719  0.0955 -0.2026 -0.0174
   83loPI    C1 1313  17.857   1.608  11.051  0.0615  0.1909  0.0361
   83loPI    C2 1314  18.142   1.494  11.307  0.2238  0.0807 -0.1898
   83loPI    C3 1315  17.757   1.474  11.414  0.2767 -0.1919 -0.0404
   83loPI   PO4 1316  18.106   1.575  10.766  0.2906 -0.2342 -0.1597
   83loPI   GL1 1317  18.040   1.522  10.313 -0.1188  0.0761  0.1781
   83loPI   GL2 1318  18.264   1.526  10.193 -0.2983 -0.0984 -0.0275
   83loPI   C1A 1319  17.838   1.921  10.162 -0.0804 -0.1884 -0.2122
   83loPI   C2A 1320  17.942   2.232   9.723 -0.2253  0.0056 -0.0650
   83loPI   C3A 1321  17.956   2.235   9.255  0.0077 -0.0081  0.0078
   83loPI   C4A 1322  17.974   2.332   8.874  0.1118 -0.0291 -0.2156
   83loPI   C5A 1323  17.902   2.120   8.506  0.0643 -0.1965 -0.5308
   83loPI   C6A 1324  18.067   1.861   8.218 -0.1752 -0.2316  0.0542
   83loPI   C1B 1325  18.246   1.808   9.917 -0.3140 -0.3805 -0.3322
   83loPI   C2B 1326  18.136   1.847   9.460  0.0897  0.2945  0.0283
   83loPI   C3B 1327  18.008   1.769   8.983  0.0393 -0.2067  0.0568
   83loPI   C4B 1328  18.227   1.696   8.657  0.2545  0.0378  0.4435
   84loPI    C1 1329   9.367   3.898  11.056  0.1107 -0.1151  0.0446
   84loPI    C2 1330   9.639   4.043  11.311  0.0796  0.1532 -0.0719
   84loPI    C3 1331   9.623   3.650  11.238  0.0071  0.0557  0.4336
   84loPI   PO4 1332   9.379   4.047  10.855 -0.1908 -0.0744 -0.1113
   84loPI   GL1 1333   9.181   3.944  10.456 -0.1614 -0.1403 -0.0293
   84loPI   GL2 1334   9.003   4.272  10.299  0.3277 -0.2506 -0.1874
   84loPI   C1A 1335   9.189   3.883  10.051  0.0175  0.0567  0.2782
   84loPI   C2A 1336   9.031   3.806   9.658 -0.0509  0.1395 -0.0821
   84loPI   C3A 1337   8.885   3.740   9.269 -0.1183 -0.1180  0.0677
   84loPI   C4A 1338   8.821   3.744   8.798  0.1718 -0.2014 -0.2011
   84loPI   C5A 1339   9.113   3.914   8.477 -0.1977 -0.0483  0.1203
   84loPI   C6A 1340   9.237   3.761   8.019  0.0794  0.2263  0.1068
   84loPI   C1B 1341   8.884   4.266   9.917 -0.0740  0.2766  0.1575
   84loPI   C2B 1342   8.771   4.177   9.427  0.2075 -0.0782 -0.3638
   84loPI   C3B 1343   8.571   4.130   9.135  0.0112  0.0562 -0.2636
   84loPI   C4B 1344   8.560   4.158   8.700 -0.0046 -0.1433 -0.1072
   85loPI    C1 1345  10.662  15.430  10.936 -0.1202  0.1957 -0.0509
   85loPI    C2 1346  10.282  15.457  11.061 -0.1485  0.0660 -0.1079
   85loPI    C3 1347  10.487  15.118  11.115  0.0127  0.1902  0.0707
   85loPI   PO4 1348  10.702  15.490  10.650 -0.1491  0.2046 -0.0649
   85loPI   GL1 1349  10.827  15.724  10.256 -0.2123  0.1970 -0.0638
   85loPI   GL2 1350  10.983  15.414  10.235 -0.0734 -0.0417  0.1997
   85loPI   C1A 1351  10.631  15.662   9.885  0.1606 -0.1265  0.2410
   85loPI   C2A 1352  10.453  15.670   9.493  0.1605  0.0030  0.0419
   85loPI   C3A 1353  10.471  15.598   9.089 -0.1195 -0.1794 -0.0700
   85loPI   C4A 1354  10.493  15.529   8.658 -0.0056 -0.0042 -0.1743
   85loPI   C5A 1355  10.414  15.922   8.458  0.0732  0.0845 -0.0761
   85loPI   C6A 1356  10.245  16.259   8.219 -0.0203 -0.1055  0.1089
   85loPI   C1B 1357  11.052  15.272   9.823 -0.0320  0.0288 -0.2793
   85loPI   C2B 1358  11.216  15.184   9.450  0.2706 -0.0171  0.0449
   85loPI   C3B 1359  11.252  15.154   8.987  0.0244 -0.1406  0.1092
   85loPI   C4B 1360  11.374  15.218   8.538 -0.0242 -0.2482  0.3239
   86loPI    C1 1361  11.617   9.801  11.009 -0.0248 -0.3637 -0.1070
   86loPI    C2 1362  11.658   9.591  11.347  0.0717 -0.2537 -0.0497
   86loPI    C3 1363  11.308   9.592  11.153 -0.0701 -0.0902  0.2029
   86loPI   PO4 1364  11.857   9.735  10.906  0.2516 -0.0954 -0.1527
   86loPI   GL1 1365  11.874   9.596  10.503 -0.0330  0.1653  0.3864
   86loPI   GL2 1366  11.928   9.342  10.569 -0.0056  0.3221 -0.0317
   86loPI   C1A 1367  11.895   9.870  10.123 -0.0785 -0.0939  0.2115
   86loPI   C2A 1368  11.980   9.966   9.696  0.2937  0.0411 -0.0019
   86loPI   C3A 1369  12.052   9.860   9.217 -0.1172  0.2475 -0.1810
   86loPI   C4A 1370  12.011   9.742   8.705  0.2049  0.1638 -0.2665
   86loPI   C5A 1371  11.820   9.482   8.464 -0.2484 -0.3187  0.0719
   86loPI   C6A 1372  11.558   9.480   8.185 -0.0173  0.2157  0.1224
   86loPI   C1B 1373  12.332   9.462  10.291 -0.0866  0.1485  0.1725
   86loPI   C2B 1374  12.472   9.449   9.895 -0.0679 -0.0284 -0.0881
   86loPI   C3B 1375  12.509   9.791   9.447 -0.0460  0.0069 -0.3051
   86loPI   C4B 1376  12.570   9.765   9.003 -0.2314 -0.0132 -0.0216
   87loPI    C1 1377   2.872   1.556  10.806 -0.2412  0.0621  0.0769
   87loPI    C2 1378   3.099   1.669  11.116  0.0118 -0.0029 -0.0812
   87loPI    C3 1379   2.748   1.487  11.180  0.1220 -0.1328  0.1658
   87loPI   PO4 1380   3.093   1.680  10.595 -0.1967 -0.3023 -0.0885
   87loPI   GL1 1381   3.128   2.032  10.312 -0.3817  0.1085  0.3607
   87loPI   GL2 1382   3.226   2.256  10.181  0.0430 -0.0519 -0.1470
   87loPI   C1A 1383   3.340   1.690   9.958 -0.1318 -0.3032 -0.0672
   87loPI   C2A 1384   3.598   1.663   9.524  0.1290 -0.2109 -0.1446
   87loPI   C3A 1385   3.769   1.684   9.219  0.0689  0.1786 -0.1537
   87loPI   C4A 1386   3.584   1.634   8.785 -0.1143  0.0716 -0.0528
   87loPI   C5A 1387   3.342   1.519   8.424 -0.0036  0.1826  0.1198
   87loPI   C6A 1388   3.010   1.178   8.281  0.0877  0.0288  0.1681
   87loPI   C1B 1389   3.292   2.207   9.790 -0.2798 -0.0297  0.0153
   87loPI   C2B 1390   3.489   2.126   9.432  0.0902 -0.1306  0.0824
   87loPI   C3B 1391   3.382   2.057   9.108  0.2109 -0.2231  0.3086
   87loPI   C4B 1392   3.123   1.899   8.678  0.0687 -0.0567 -0.1226
   88loPI    C1 1393  11.501   5.540  11.048  0.1595 -0.2886  0.1851
   88loPI    C2 1394  11.152   5.717  11.132  0.1461 -0.0784 -0.2829
   88loPI    C3 1395  11.247   5.370  11.306 -0.1694  0.0016  0.0610
   88loPI   PO4 1396  11.511   5.602  10.751  0.0027  0.1620  0.1899
   88loPI   GL1 1397  11.320   5.629  10.439  0.0801  0.0967 -0.2879
   88loPI   GL2 1398  11.130   5.936  10.232 -0.1759 -0.0679 -0.2413
   88loPI   C1A 1399  11.458   5.525  10.104  0.0278  0.0703 -0.0825
   88loPI   C2A 1400  11.486   5.160   9.856 -0.0359  0.0638  0.5087
   88loPI   C3A 1401  11.348   5.098   9.558 -0.0398 -0.2080  0.3429
   88loPI   C4A 1402  11.283   5.046   9.141  0.1369  0.0332  0.1815
   88loPI   C5A 1403  11.037   5.133   8.757 -0.2100  0.1871  0.0109
   88loPI   C6A 1404  10.716   5.399   8.585 -0.1039 -0.2220  0.1253
   88loPI   C1B 1405  11.128   5.882   9.866 -0.4688 -0.0214 -0.1897
   88loPI   C2B 1406  11.271   5.619   9.453  0.3308  0.3376  0.4368
   88loPI   C3B 1407  11.158   5.547   9.075  0.2238  0.2254 -0.1724
   88loPI   C4B 1408  11.203   5.688   8.682  0.0501 -0.1816  0.0494
   89loPI    C1 1409  13.328   9.248  10.975 -0.0426 -0.0272  0.0127
   89loPI    C2 1410  13.686   9.094  11.066 -0.1414 -0.1148  0.2625
   89loPI    C3 1411  13.483   9.304  11.339 -0.1118  0.2667 -0.0005
   89loPI   PO4 1412  13.347   9.216  10.712  0.2145  0.1084  0.0296
   89loPI   GL1 1413  13.023   9.330  10.464 -0.2045 -0.1476 -0.0974
   89loPI   GL2 1414  13.084   8.952  10.293 -0.0627 -0.1315  0.0682
   89loPI   C1A 1415  13.018   9.386  10.032  0.0857  0.0855 -0.0814
   89loPI   C2A 1416  12.944   9.622   9.651  0.0555  0.3152 -0.1501
   89loPI   C3A 1417  12.979   9.545   9.218 -0.1279 -0.0192 -0.0122
   89loPI   C4A 1418  13.085   9.485   8.808 -0.0547 -0.1980 -0.1523
   89loPI   C5A 1419  12.870   9.387   8.505 -0.0598  0.2382 -0.0548
   89loPI   C6A 1420  12.634   9.043   8.245  0.0528 -0.0020  0.0316
   89loPI   C1B 1421  13.217   8.975   9.911  0.3561  0.1617 -0.2029
   89loPI   C2B 1422  13.160   9.144   9.516 -0.0977 -0.1276  0.2777
   89loPI   C3B 1423  13.023   9.089   9.132  0.1095 -0.1171  0.1505
   89loPI   C4B 1424  13.061   8.890   8.712  0.2662  0.2012  0.0039
   90loPI    C1 1425   9.782   2.282  11.182  0.1529 -0.3795 -0.0118
   90loPI    C2 1426  10.080   2.389  11.425  0.0961  0.0251 -0.1139
   90loPI    C3 1427   9.724   2.290  11.577  0.0897  0.1809 -0.0252
   90loPI   PO4 1428   9.937   2.407  10.881 -0.2531 -0.1497  0.1092
   90loPI   GL1 1429   9.899   2.663  10.534  0.1320 -0.0601 -0.0581
   90loPI   GL2 1430   9.665   2.341  10.426 -0.0489 -0.0060  0.1350
   90loPI   C1A 1431   9.637   2.707  10.167  0.0153 -0.2673 -0.1460
   90loPI   C2A 1432   9.453   2.514   9.864 -0.2250  0.2948  0.0972
   90loPI   C3A 1433   9.456   2.408   9.446  0.2792 -0.1560  0.0700
   90loPI   C4A 1434   9.323   2.485   9.125 -0.2759 -0.0385  0.3826
   90loPI   C5A 1435   9.275   2.335   8.727  0.3477 -0.1171  0.4209
   90loPI   C6A 1436   9.417   2.125   8.515  0.0475 -0.2158  0.1150
   90loPI   C1B 1437   9.596   2.048  10.117  0.3920 -0.1575 -0.1509
   90loPI   C2B 1438   9.383   2.034   9.722 -0.2200 -0.1399  0.1465
   90loPI   C3B 1439   9.417   1.845   9.386 -0.0066  0.0647 -0.0562
   90loPI   C4B 1440   9.291   1.880   8.977 -0.0633  0.0521 -0.1531
   91loPI    C1 1441   9.080   4.825  11.073  0.1013  0.1653  0.0047
   91loPI    C2 1442   9.057   5.224  11.090 -0.1658  0.1535 -0.0306
   91loPI    C3 1443   8.872   5.001  11.366  0.0071  0.0531  0.0063
   91loPI   PO4 1444   9.074   4.758  10.733  0.1083  0.0096 -0.0746
   91loPI   GL1 1445   9.094   4.744  10.334 -0.2653 -0.0183 -0.1137
   91loPI   GL2 1446   9.309   5.055  10.222 -0.0345  0.1936 -0.0506
   91loPI   C1A 1447   9.150   4.674   9.959  0.2233  0.0653 -0.0571
   91loPI   C2A 1448   9.043   4.642   9.549 -0.1741  0.0230 -0.0489
   91loPI   C3A 1449   8.709   4.714   9.376 -0.0717  0.0340  0.3439
   91loPI   C4A 1450   8.701   4.629   8.984  0.0299  0.0642 -0.0628
   91loPI   C5A 1451   8.756   4.600   8.617 -0.1653  0.3573 -0.1508
   91loPI   C6A 1452   8.798   4.437   8.268 -0.0202 -0.1402  0.2953
   91loPI   C1B 1453   9.327   5.107   9.737  0.1863  0.3319 -0.2256
   91loPI   C2B 1454   9.336   5.367   9.327 -0.0044  0.1917  0.0606
   91loPI   C3B 1455   9.305   5.393   8.835 -0.0547 -0.0140 -0.2388
   91loPI   C4B 1456   9.064   5.405   8.412 -0.3381 -0.4437 -0.5002
   92loPI    C1 1457  17.107   5.797  10.880 -0.0023  0.0384  0.1511
   92loPI    C2 1458  17.355   5.791  10.566 -0.0384 -0.0834  0.1242
   92loPI    C3 1459  17.440   6.019  10.884  0.0630 -0.0576  0.0792
   92loPI   PO4 1460  16.905   5.840  10.747 -0.0368 -0.0043 -0.1227
   92loPI   GL1 1461  16.950   5.904  10.361 -0.1480 -0.1672  0.1115
   92loPI   GL2 1462  16.869   5.676  10.271  0.0926 -0.0514 -0.0703
   92loPI   C1A 1463  16.794   6.197  10.043  0.0405  0.0265 -0.0603
   92loPI   C2A 1464  16.780   6.173   9.632 -0.1708  0.0593 -0.0524
   92loPI   C3A 1465  16.953   6.315   9.245  0.0282 -0.2533  0.1009
   92loPI   C4A 1466  16.762   6.033   8.922 -0.1754 -0.1652 -0.2028
   92loPI   C5A 1467  16.670   6.259   8.617 -0.2033 -0.0408  0.2284
   92loPI   C6A 1468  16.344   6.214   8.334  0.1846 -0.0401 -0.1071
   92loPI   C1B 1469  16.744   5.700   9.825 -0.2602  0.0764 -0.0442
   92loPI   C2B 1470  16.765   5.639   9.425  0.0450 -0.2231 -0.3274
   92loPI   C3B 1471  16.952   5.538   8.954  0.0465  0.0517  0.1269
   92loPI   C4B 1472  17.029   5.722   8.622  0.1276  0.2722 -0.0317
   93loPI    C1 1473   8.443   8.150  10.561  0.0256 -0.2551  0.1132
   93loPI    C2 1474   8.664   8.251  10.879 -0.1763  0.3805  0.0674
   93loPI    C3 1475   8.343   8.016  10.925  0.0509  0.0996  0.2559
   93loPI   PO4 1476   8.586   8.206  10.356  0.2299  0.0684  0.2394
   93loPI   GL1 1477   8.425   8.332  10.047 -0.1881 -0.0169  0.1622
   93loPI   GL2 1478   8.638   8.567  10.021 -0.1310  0.1310  0.1132
   93loPI   C1A 1479   8.395   8.403   9.616  0.1353 -0.4567 -0.0866
   93loPI   C2A 1480   8.505   8.555   9.199 -0.0962 -0.2596  0.1334
   93loPI   C3A 1481   8.597   8.716   8.832 -0.0821  0.2297 -0.4208
   93loPI   C4A 1482   8.651   8.744   8.460 -0.0396 -0.2108 -0.0570
   93loPI   C5A 1483   8.691   9.065   8.155  0.2284  0.0273  0.0722
   93loPI   C6A 1484   8.893   9.401   8.106  0.0606 -0.2664  0.2745
   93loPI   C1B 1485   8.808   8.764   9.664 -0.0810 -0.0692  0.1092
   93loPI   C2B 1486   8.863   8.905   9.319  0.1319  0.2562  0.0170
   93loPI   C3B 1487   8.971   9.080   8.919 -0.0411 -0.1796  0.0748
   93loPI   C4B 1488   9.003   9.076   8.537  0.0032  0.0923 -0.0028
   94loPI    C1 1489   7.617  12.901  11.198  0.1772 -0.2097 -0.0739
   94loPI    C2 1490   7.887  12.895  11.493  0.0157 -0.1765  0.0765
   94loPI    C3 1491   7.498  12.923  11.579 -0.0123  0.2189 -0.1512
   94loPI   PO4 1492   7.766  12.777  10.990  0.3458 -0.0335 -0.1623
   94loPI   GL1 1493   7.787  12.707  10.596 -0.2551 -0.0533  0.5285
   94loPI   GL2 1494   7.752  12.956  10.376  0.3478 -0.1865  0.0623
   94loPI   C1A 1495   7.802  12.444  10.327  0.0651 -0.2262 -0.0672
   94loPI   C2A 1496   7.847  12.286   9.955 -0.1342  0.0656  0.2561
   94loPI   C3A 1497   7.849  12.368   9.595  0.3557  0.0784  0.1676
   94loPI   C4A 1498   7.783  12.267   9.177  0.0966 -0.1677  0.0480
   94loPI   C5A 1499   7.627  12.173   8.654  0.2862 -0.2906  0.0996
   94loPI   C6A 1500   7.615  11.840   8.270 -0.1904 -0.0255  0.1955
   94loPI   C1B 1501   7.513  12.699   9.868  0.0470  0.1925 -0.0825
   94loPI   C2B 1502   7.492  12.623   9.431 -0.1248  0.0741 -0.1303
   94loPI   C3B 1503   7.517  12.697   9.059 -0.0225 -0.2096  0.2443
   94loPI   C4B 1504   7.283  12.787   8.780 -0.3310 -0.0854 -0.1659
   95loPI    C1 1505  14.862  15.981  11.160  0.1300 -0.1158  0.1763
   95loPI    C2 1506  14.581  16.009  11.443  0.0502 -0.0582  0.0920
   95loPI    C3 1507  14.962  15.946  11.545  0.0066 -0.1389  0.2066
   95loPI   PO4 1508  14.796  15.856  10.888 -0.0365 -0.0553 -0.0091
   95loPI   GL1 1509  14.713  15.880  10.427  0.3293 -0.0561  0.0482
   95loPI   GL2 1510  14.513  15.533  10.486 -0.2115  0.1303 -0.1119
   95loPI   C1A 1511  14.769  15.982  10.070 -0.1896 -0.0449  0.1615
   95loPI   C2A 1512  14.687  16.057   9.650  0.1678  0.1819  0.3807
   95loPI   C3A 1513  14.737  15.996   9.315 -0.0327 -0.2924 -0.0023
   95loPI   C4A 1514  14.490  16.110   9.060  0.0825  0.0630 -0.2082
   95loPI   C5A 1515  14.453  16.513   8.872  0.0089 -0.1534  0.0988
   95loPI   C6A 1516  14.688  16.753   8.630  0.0888 -0.0526 -0.0854
   95loPI   C1B 1517  14.546  15.539   9.969  0.2957 -0.0100  0.0457
   95loPI   C2B 1518  14.488  15.576   9.494 -0.2991  0.0117  0.2318
   95loPI   C3B 1519  14.431  15.612   9.088  0.1716  0.0932 -0.0909
   95loPI   C4B 1520  14.387  15.690   8.638 -0.2125  0.1082 -0.0219
   96loPI    C1 1521   1.236  12.552  10.957  0.0676  0.0506 -0.1604
   96loPI    C2 1522   1.406  12.790  11.230  0.0976  0.0294 -0.1605
   96loPI    C3 1523   1.166  12.492  11.346  0.3438 -0.1651 -0.1408
   96loPI   PO4 1524   1.122  12.698  10.774  0.0639 -0.3188 -0.1117
   96loPI   GL1 1525   1.183  12.563  10.410  0.1403 -0.1095  0.1279
   96loPI   GL2 1526   1.286  12.902  10.349 -0.0787 -0.2285 -0.3566
   96loPI   C1A 1527   1.285  12.414  10.032 -0.1260  0.0110  0.0489
   96loPI   C2A 1528   1.380  12.448   9.594 -0.0400 -0.1046 -0.1513
   96loPI   C3A 1529   1.312  12.479   9.155  0.0200 -0.1097 -0.1388
   96loPI   C4A 1530   1.446  12.546   8.773  0.0335 -0.0214  0.0772
   96loPI   C5A 1531   1.453  12.518   8.320 -0.0021  0.0993 -0.0042
   96loPI   C6A 1532   1.319  12.113   8.085 -0.0676  0.4490 -0.2155
   96loPI   C1B 1533   1.383  12.867   9.913  0.3482  0.0987 -0.0830
   96loPI   C2B 1534   1.453  12.950   9.364  0.1547  0.0032  0.1524
   96loPI   C3B 1535   1.462  13.008   8.911 -0.0198  0.0324  0.2224
   96loPI   C4B 1536   1.430  13.103   8.440  0.2321 -0.1581  0.1500
   97loPI    C1 1537   0.339  10.933  10.792 -0.0241  0.0234  0.0247
   97loPI    C2 1538  -0.021  10.893  10.623 -0.0576 -0.1695  0.1379
   97loPI    C3 1539   0.046  10.742  10.987  0.1275 -0.1018  0.1328
   97loPI   PO4 1540   0.481  10.874  10.535  0.3462 -0.0828  0.1140
   97loPI   GL1 1541   0.376  10.552  10.165  0.0847  0.2580 -0.0902
   97loPI   GL2 1542   0.665  10.717  10.122  0.0740 -0.3242 -0.0613
   97loPI   C1A 1543   0.238  10.632   9.794 -0.1510  0.3945 -0.1746
   97loPI   C2A 1544   0.309  10.561   9.349 -0.1841 -0.0565  0.1888
   97loPI   C3A 1545   0.451  10.602   8.971 -0.1319  0.0380 -0.3166
   97loPI   C4A 1546   0.230  10.698   8.651  0.0898 -0.0547 -0.1047
   97loPI   C5A 1547  -0.030  10.724   8.293  0.1164  0.1269 -0.0732
   97loPI   C6A 1548  -0.527  10.702   8.048 -0.3752  0.0169 -0.2860
   97loPI   C1B 1549   0.820  10.544   9.736 -0.2476 -0.0660 -0.0032
   97loPI   C2B 1550   0.975  10.557   9.370  0.0757  0.1212 -0.0788
   97loPI   C3B 1551   0.953  10.447   8.985  0.0605 -0.1614  0.0452
   97loPI   C4B 1552   0.780  10.560   8.538 -0.1977  0.1971  0.0742
   98loPI    C1 1553   2.870  14.819  11.071 -0.1164  0.1977 -0.0094
   98loPI    C2 1554   2.884  14.854  11.469  0.1559  0.0377 -0.0022
   98loPI    C3 1555   3.215  14.911  11.252  0.0138  0.1016 -0.2050
   98loPI   PO4 1556   2.714  14.613  10.978 -0.0070 -0.0223 -0.4191
   98loPI   GL1 1557   2.575  14.418  10.624  0.0433 -0.1348 -0.1068
   98loPI   GL2 1558   2.284  14.602  10.702 -0.0973  0.0351  0.0751
   98loPI   C1A 1559   2.399  14.155  10.264  0.0585  0.1275 -0.1780
   98loPI   C2A 1560   2.620  13.973   9.978  0.1460  0.0372  0.1085
   98loPI   C3A 1561   2.796  13.964   9.576 -0.4909  0.1933  0.0190
   98loPI   C4A 1562   3.032  13.928   9.259  0.1793 -0.2078  0.4229
   98loPI   C5A 1563   3.182  13.926   8.886  0.0265 -0.2893  0.0029
   98loPI   C6A 1564   3.525  14.225   8.576 -0.0455 -0.1259 -0.0470
   98loPI   C1B 1565   2.056  14.508  10.275  0.1790  0.3258 -0.1373
   98loPI   C2B 1566   1.976  14.499   9.822 -0.2452 -0.1455 -0.0399
   98loPI   C3B 1567   2.011  14.409   9.400 -0.1464  0.0021 -0.0007
   98loPI   C4B 1568   2.091  14.211   9.056 -0.0018 -0.2008 -0.0602
   99loPI    C1 1569   0.265   9.576  10.709 -0.0679  0.2832 -0.0247
   99loPI    C2 1570   0.585   9.571  10.949 -0.2441  0.1920  0.2130
   99loPI    C3 1571   0.438   9.920  10.819 -0.0713  0.2358  0.1320
   99loPI   PO4 1572   0.372   9.269  10.551 -0.0642 -0.1306  0.0731
   99loPI   GL1 1573   0.041   9.211  10.159  0.2341 -0.0412 -0.1209
   99loPI   GL2 1574   0.237   9.461  10.083  0.5319  0.3202  0.0467
   99loPI   C1A 1575  -0.263   9.115   9.816  0.2722  0.2052 -0.1007
   99loPI   C2A 1576  -0.284   8.954   9.431 -0.0787  0.1861  0.4400
   99loPI   C3A 1577  -0.372   8.940   9.034  0.2119 -0.2543 -0.2214
   99loPI   C4A 1578  -0.360   9.046   8.549 -0.1717  0.2362 -0.1898
   99loPI   C5A 1579  -0.269   9.317   8.167  0.0644  0.2254 -0.0619
   99loPI   C6A 1580  -0.005   9.540   8.063  0.2801  0.0656 -0.0731
   99loPI   C1B 1581   0.174   9.651   9.744  0.0125  0.0629  0.0396
   99loPI   C2B 1582   0.187   9.733   9.218 -0.0732 -0.4021  0.0863
   99loPI   C3B 1583   0.231   9.770   8.775 -0.4455 -0.1534  0.0267
   99loPI   C4B 1584   0.326   9.754   8.464 -0.0221  0.0738 -0.0763
  100loPI    C1 1585   4.857  10.559  11.017  0.0538 -0.1137  0.0381
  100loPI    C2 1586   4.516  10.560  11.226 -0.0723 -0.0342 -0.1651
  100loPI    C3 1587   4.866  10.602  11.415 -0.1705 -0.1628  0.0498
  100loPI   PO4 1588   4.834  10.330  10.836 -0.3100  0.2916 -0.0824
  100loPI   GL1 1589   4.889  10.554  10.426  0.3719 -0.1676  0.0389
  100loPI   GL2 1590   4.915  10.810  10.582 -0.0940 -0.1815  0.1583
  100loPI   C1A 1591   5.051  10.491   9.995  0.1286 -0.1201 -0.0803
  100loPI   C2A 1592   5.037  10.543   9.540 -0.0065  0.1711 -0.0259
  100loPI   C3A 1593   5.022  10.537   9.175 -0.0904 -0.1434  0.0226
  100loPI   C4A 1594   4.894  10.645   8.844  0.0587 -0.1680 -0.0928
  100loPI   C5A 1595   5.052  10.988   8.534  0.0871 -0.1466  0.0641
  100loPI   C6A 1596   5.083  11.160   8.211 -0.2944 -0.3588 -0.1353
  100loPI   C1B 1597   5.000  10.968  10.145  0.0902 -0.1479 -0.0770
  100loPI   C2B 1598   5.067  11.023   9.752 -0.0850 -0.2440 -0.0634
  100loPI   C3B 1599   5.151  11.004   9.291 -0.1428 -0.2390  0.0479
  100loPI   C4B 1600   4.929  11.239   8.932 -0.0931 -0.0102 -0.0535
  101loPI    C1 1601  14.392  14.811  11.104 -0.0358 -0.1406 -0.2400
  101loPI    C2 1602  14.575  14.734  11.452  0.0090 -0.1603 -0.2676
  101loPI    C3 1603  14.315  15.037  11.425  0.1430 -0.0440 -0.2640
  101loPI   PO4 1604  14.352  14.553  10.973 -0.0599  0.0806 -0.0929
  101loPI   GL1 1605  14.547  14.412  10.684 -0.2842 -0.0323  0.0370
  101loPI   GL2 1606  14.622  14.189  10.516  0.0869  0.4046  0.0055
  101loPI   C1A 1607  14.745  14.595  10.304  0.0527  0.1050  0.0280
  101loPI   C2A 1608  14.828  14.860   9.936  0.1622 -0.0604 -0.1620
  101loPI   C3A 1609  14.850  14.912   9.501  0.0500 -0.0012 -0.0705
  101loPI   C4A 1610  14.929  14.904   9.185 -0.2076  0.2516 -0.0166
  101loPI   C5A 1611  14.961  14.761   8.677 -0.1678  0.0513 -0.0153
  101loPI   C6A 1612  15.239  14.638   8.388 -0.1648 -0.0554 -0.2451
  101loPI   C1B 1613  14.522  14.201  10.113  0.0073  0.1480  0.0053
  101loPI   C2B 1614  14.366  14.126   9.725  0.0218  0.4517 -0.0962
  101loPI   C3B 1615  14.390  14.095   9.350  0.0193  0.2357 -0.4427
  101loPI   C4B 1616  14.405  14.145   8.849  0.2425  0.1868 -0.2194
  102loPI    C1 1617   0.514   7.954  10.472 -0.0470 -0.3774 -0.1415
  102loPI    C2 1618   0.582   7.966  10.078  0.3286  0.0453 -0.0722
  102loPI    C3 1619   0.888   7.929  10.332  0.1189  0.0942  0.1914
  102loPI   PO4 1620   0.205   7.762  10.415 -0.0417 -0.4672  0.3251
  102loPI   GL1 1621  -0.052   7.726   9.963  0.0361  0.2436  0.3659
  102loPI   GL2 1622   0.216   7.710   9.868 -0.3386  0.1857  0.0732
  102loPI   C1A 1623  -0.428   7.620   9.548  0.0291 -0.0288  0.0742
  102loPI   C2A 1624  -0.537   7.502   9.179 -0.2716 -0.0386 -0.0191
  102loPI   C3A 1625  -0.575   7.573   8.711  0.0949  0.2455  0.0828
  102loPI   C4A 1626  -0.463   7.627   8.276 -0.1399  0.3282  0.0670
  102loPI   C5A 1627  -0.549   8.009   8.081  0.0217 -0.1216 -0.1239
  102loPI   C6A 1628  -0.684   8.347   8.057  0.0035 -0.0693 -0.0986
  102loPI   C1B 1629   0.051   7.668   9.394 -0.0478 -0.2202  0.0417
  102loPI   C2B 1630  -0.053   7.735   8.862  0.1525  0.0362 -0.1511
  102loPI   C3B 1631   0.032   7.777   8.385 -0.1922 -0.2070 -0.3155
  102loPI   C4B 1632  -0.040   7.508   8.037  0.1599  0.1478  0.3245
  103loPI    C1 1633   9.477  12.194  10.863  0.0982  0.2350  0.0503
  103loPI    C2 1634   9.822  12.276  11.046  0.0471  0.2049  0.1608
  103loPI    C3 1635   9.674  11.905  11.057  0.0439  0.2031  0.0583
  103loPI   PO4 1636   9.551  12.247  10.603  0.2111 -0.0248  0.0735
  103loPI   GL1 1637   9.567  12.140  10.178  0.1226 -0.1892 -0.1118
  103loPI   GL2 1638   9.872  12.106  10.132 -0.0271 -0.0207  0.2309
  103loPI   C1A 1639   9.350  12.183   9.796  0.1716  0.0395 -0.2765
  103loPI   C2A 1640   9.335  12.081   9.391  0.1634 -0.1289  0.2008
  103loPI   C3A 1641   9.299  12.074   8.969 -0.0844  0.0277  0.0919
  103loPI   C4A 1642   9.002  12.185   8.619  0.2103 -0.1249  0.2502
  103loPI   C5A 1643   9.070  11.993   8.227  0.1850 -0.2026  0.1783
  103loPI   C6A 1644   8.953  11.548   8.111 -0.0418  0.0058 -0.1906
  103loPI   C1B 1645   9.860  12.252   9.719 -0.1043  0.2206  0.1593
  103loPI   C2B 1646   9.786  12.283   9.314 -0.0210 -0.0458  0.3137
  103loPI   C3B 1647   9.803  12.132   8.891  0.1889  0.0296 -0.1183
  103loPI   C4B 1648   9.562  12.105   8.511 -0.1100 -0.3053 -0.3171
  104loPI    C1 1649   0.066   5.714  10.712  0.0138  0.0691  0.1026
  104loPI    C2 1650  -0.248   5.516  10.861  0.0623 -0.1691 -0.1047
  104loPI    C3 1651   0.123   5.406  10.960  0.0855 -0.0024 -0.0018
  104loPI   PO4 1652   0.051   5.784  10.497 -0.2057  0.0264 -0.1432
  104loPI   GL1 1653   0.201   5.717  10.109 -0.2163 -0.1682 -0.1351
  104loPI   GL2 1654   0.068   5.560  10.039  0.0183  0.2866 -0.0362
  104loPI   C1A 1655   0.569   5.767   9.829  0.0639  0.2012  0.0460
  104loPI   C2A 1656   0.699   5.721   9.390 -0.0854  0.0029 -0.1552
  104loPI   C3A 1657   0.685   5.711   8.988  0.4064 -0.0193 -0.0474
  104loPI   C4A 1658   0.839   5.587   8.521  0.0301 -0.1556 -0.4791
  104loPI   C5A 1659   1.151   5.295   8.325  0.1109  0.2022 -0.0399
  104loPI   C6A 1660   1.339   4.904   8.312  0.1988 -0.3009 -0.0446
  104loPI   C1B 1661  -0.198   5.477   9.720 -0.3208 -0.1283  0.0622
  104loPI   C2B 1662  -0.293   5.584   9.323  0.0041  0.1635  0.3424
  104loPI   C3B 1663  -0.338   5.635   8.824  0.3835 -0.0540 -0.0809
  104loPI   C4B 1664  -0.573   5.387   8.435 -0.1522 -0.0916 -0.0039
  105loPI    C1 1665  15.868   4.686  11.112  0.1374  0.1410 -0.0743
  105loPI    C2 1666  15.603   4.771  11.399  0.2316  0.0239  0.0481
  105loPI    C3 1667  15.811   4.429  11.413 -0.0518 -0.1736 -0.3716
  105loPI   PO4 1668  15.835   4.739  10.879  0.0704 -0.2331 -0.0473
  105loPI   GL1 1669  15.730   4.655  10.448 -0.0883 -0.1123 -0.1750
  105loPI   GL2 1670  15.729   4.925  10.345 -0.0502 -0.0920 -0.1048
  105loPI   C1A 1671  15.810   4.519  10.004 -0.1587  0.1135 -0.3028
  105loPI   C2A 1672  15.681   4.612   9.541 -0.1758  0.2739 -0.0053
  105loPI   C3A 1673  15.832   4.899   9.356  0.0439 -0.0890  0.1897
  105loPI   C4A 1674  16.246   4.979   9.114  0.1124  0.1508 -0.0770
  105loPI   C5A 1675  16.331   4.869   8.681 -0.2123 -0.0662  0.0774
  105loPI   C6A 1676  16.054   4.986   8.336  0.0785  0.2358 -0.0639
  105loPI   C1B 1677  16.051   5.027   9.992  0.0157  0.0384  0.2135
  105loPI   C2B 1678  16.292   4.851   9.648 -0.3006  0.0082  0.1572
  105loPI   C3B 1679  16.470   4.597   9.420 -0.0240  0.0086 -0.0805
  105loPI   C4B 1680  16.829   4.570   9.194 -0.1956 -0.0051 -0.0013
  106loPI    C1 1681   2.720   5.978  10.596 -0.1918  0.1819  0.0413
  106loPI    C2 1682   2.652   5.603  10.718  0.1026  0.0624 -0.1529
  106loPI    C3 1683   2.774   5.879  10.980 -0.5845  0.1518  0.0939
  106loPI   PO4 1684   2.691   5.899  10.324  0.0201 -0.1664 -0.0946
  106loPI   GL1 1685   2.476   6.135   9.979  0.1180 -0.1337 -0.2976
  106loPI   GL2 1686   2.403   6.446  10.028 -0.0944 -0.1934 -0.1769
  106loPI   C1A 1687   2.556   6.086   9.645  0.2634 -0.0115 -0.2833
  106loPI   C2A 1688   2.402   5.955   9.293 -0.2750  0.0973 -0.0310
  106loPI   C3A 1689   2.413   5.672   8.955 -0.1303  0.2419  0.3510
  106loPI   C4A 1690   2.294   5.446   8.540  0.1893  0.1370 -0.0212
  106loPI   C5A 1691   2.556   5.335   8.175  0.4686 -0.0873 -0.2309
  106loPI   C6A 1692   2.782   5.024   7.976  0.0757 -0.0457  0.0690
  106loPI   C1B 1693   2.416   6.601   9.585 -0.0899 -0.1350 -0.0272
  106loPI   C2B 1694   2.450   6.393   9.136 -0.3123  0.0846 -0.0303
  106loPI   C3B 1695   2.624   6.110   8.833 -0.0429 -0.0893  0.0720
  106loPI   C4B 1696   2.379   5.920   8.475  0.0779 -0.2163  0.1380
  107loPI    C1 1697  13.383  17.634  10.949 -0.3607 -0.1383  0.0476
  107loPI    C2 1698  13.521  17.459  11.281 -0.0024 -0.0353 -0.0423
  107loPI    C3 1699  13.139  17.577  11.260 -0.0445 -0.1004  0.3073
  107loPI   PO4 1700  13.403  17.428  10.783 -0.0673 -0.0862  0.0995
  107loPI   GL1 1701  13.485  17.134  10.425  0.1233  0.0395  0.1057
  107loPI   GL2 1702  13.044  17.282  10.446 -0.1804  0.0706 -0.3350
  107loPI   C1A 1703  13.463  16.816  10.126  0.0715  0.1824 -0.0134
  107loPI   C2A 1704  13.387  16.960   9.724  0.1419  0.1373  0.2491
  107loPI   C3A 1705  13.181  17.035   9.295  0.1352  0.1583 -0.0165
  107loPI   C4A 1706  13.178  17.332   8.936 -0.1162 -0.4516  0.1506
  107loPI   C5A 1707  13.103  17.307   8.500  0.0035  0.2474  0.0380
  107loPI   C6A 1708  13.111  17.519   8.206  0.0113 -0.1824  0.0603
  107loPI   C1B 1709  13.342  17.324  10.036 -0.1338  0.0439  0.0107
  107loPI   C2B 1710  13.259  17.476   9.607 -0.1161 -0.0432  0.0645
  107loPI   C3B 1711  13.095  17.543   9.356 -0.0008 -0.1345  0.0061
  107loPI   C4B 1712  12.860  17.611   9.176 -0.2587 -0.1012  0.2098
  108loPI    C1 1713  16.243  13.381  11.310 -0.1070 -0.0491 -0.2213
  108loPI    C2 1714  15.846  13.391  11.358 -0.0993 -0.2480 -0.1015
  108loPI    C3 1715  16.073  13.186  11.616  0.1200  0.1831  0.0583
  108loPI   PO4 1716  16.261  13.261  11.069 -0.3230 -0.4073  0.1857
  108loPI   GL1 1717  16.075  13.217  10.692 -0.3243 -0.0838 -0.1209
  108loPI   GL2 1718  16.172  13.476  10.419 -0.0419  0.4499 -0.1426
  108loPI   C1A 1719  15.844  13.073  10.233  0.0721  0.2233 -0.2176
  108loPI   C2A 1720  15.945  12.966   9.785 -0.2331 -0.0070  0.0331
  108loPI   C3A 1721  15.996  13.056   9.444  0.3458 -0.2368 -0.0820
  108loPI   C4A 1722  15.978  13.121   8.988  0.0066 -0.0215 -0.2139
  108loPI   C5A 1723  15.645  13.195   8.597 -0.2342  0.1378  0.2425
  108loPI   C6A 1724  15.574  13.413   8.365 -0.0927  0.1377 -0.3631
  108loPI   C1B 1725  16.233  13.367  10.078  0.2088  0.1796  0.2291
  108loPI   C2B 1726  16.208  13.445   9.635  0.1478  0.1696 -0.0552
  108loPI   C3B 1727  16.415  13.333   9.171 -0.2838 -0.2226 -0.1781
  108loPI   C4B 1728  16.685  13.365   8.764 -0.0939  0.0782 -0.0426
  109loPI    C1 1729   8.554   6.316  10.806 -0.0924  0.1831 -0.1017
  109loPI    C2 1730   8.482   6.031  11.078  0.0463 -0.0325 -0.2872
  109loPI    C3 1731   8.189   6.280  10.967 -0.0709 -0.0892 -0.1085
  109loPI   PO4 1732   8.814   6.225  10.795  0.3637  0.2192  0.2080
  109loPI   GL1 1733   9.058   5.982  10.396 -0.0458  0.0529 -0.0025
  109loPI   GL2 1734   9.055   5.637  10.416 -0.5038 -0.0211  0.0607
  109loPI   C1A 1735   9.244   6.202  10.034 -0.0862  0.1054  0.3320
  109loPI   C2A 1736   9.309   6.026   9.685  0.2386  0.0671 -0.0291
  109loPI   C3A 1737   9.124   6.112   9.226  0.0441  0.1013 -0.0999
  109loPI   C4A 1738   9.359   6.144   8.778 -0.4894  0.0348  0.1133
  109loPI   C5A 1739   9.326   6.001   8.418 -0.4123  0.1135  0.2743
  109loPI   C6A 1740   9.540   6.043   8.046 -0.0576 -0.0690 -0.1864
  109loPI   C1B 1741   9.137   5.641   9.982  0.0651 -0.0948 -0.1428
  109loPI   C2B 1742   9.045   5.679   9.563  0.0460  0.0792  0.0095
  109loPI   C3B 1743   8.958   5.676   9.123 -0.6001  0.0555  0.1821
  109loPI   C4B 1744   8.987   5.794   8.740  0.0603 -0.1185  0.2386
  110loPI    C1 1745   8.728  16.876  11.164  0.1169 -0.0535 -0.2351
  110loPI    C2 1746   8.373  16.774  11.318  0.1403 -0.0232 -0.1602
  110loPI    C3 1747   8.708  16.610  11.462  0.1698  0.0788 -0.1116
  110loPI   PO4 1748   8.649  16.926  10.863 -0.0790  0.2407 -0.0295
  110loPI   GL1 1749   8.892  17.085  10.487 -0.0121 -0.0800  0.0315
  110loPI   GL2 1750   8.630  17.084  10.412 -0.0438  0.0369 -0.1100
  110loPI   C1A 1751   8.816  16.802  10.056  0.1774 -0.1660  0.2069
  110loPI   C2A 1752   8.797  16.795   9.607 -0.1537  0.0999 -0.4451
  110loPI   C3A 1753   8.791  16.957   9.269 -0.0693  0.1215  0.0930
  110loPI   C4A 1754   8.848  16.942   8.826 -0.1570  0.0963  0.1480
  110loPI   C5A 1755   8.669  16.831   8.501 -0.2177  0.1793 -0.0876
  110loPI   C6A 1756   8.330  16.856   8.243  0.0358 -0.0420  0.1138
  110loPI   C1B 1757   8.452  17.138   9.985 -0.0048  0.2764 -0.1127
  110loPI   C2B 1758   8.439  17.151   9.589 -0.4666  0.1029  0.1595
  110loPI   C3B 1759   8.383  17.212   9.154  0.1292  0.0416  0.0698
  110loPI   C4B 1760   8.394  17.157   8.771 -0.0303 -0.1512 -0.0911
  111loPI    C1 1761  12.113   1.061  11.297  0.0776 -0.2660  0.0763
  111loPI    C2 1762  11.998   1.297  11.599  0.3683 -0.0429  0.0175
  111loPI    C3 1763  11.949   0.901  11.625 -0.2341  0.0250  0.0681
  111loPI   PO4 1764  11.978   1.246  11.074  0.1106 -0.1343  0.1076
  111loPI   GL1 1765  12.053   1.220  10.697 -0.0506  0.2638  0.0101
  111loPI   GL2 1766  11.764   1.359  10.612 -0.0966 -0.2128  0.2116
  111loPI   C1A 1767  12.184   1.232  10.228  0.0080  0.3202 -0.1050
  111loPI   C2A 1768  11.941   1.246   9.921 -0.1512  0.0907  0.0912
  111loPI   C3A 1769  12.028   1.056   9.462 -0.3690 -0.0388  0.0961
  111loPI   C4A 1770  12.006   0.858   9.001 -0.2203 -0.0756  0.0640
  111loPI   C5A 1771  11.866   0.976   8.610 -0.0407  0.0669  0.0799
  111loPI   C6A 1772  11.759   1.218   8.343  0.0017 -0.0077  0.1371
  111loPI   C1B 1773  11.632   1.539  10.245 -0.1283  0.0629  0.1372
  111loPI   C2B 1774  11.488   1.629   9.775  0.0070  0.1424  0.1222
  111loPI   C3B 1775  11.403   1.590   9.291 -0.0670  0.3429 -0.0671
  111loPI   C4B 1776  11.245   1.528   8.781 -0.0836 -0.5371  0.0416
  112loPI    C1 1777   4.525  11.392  11.049  0.1352 -0.0796  0.1757
  112loPI    C2 1778   4.735  11.055  10.998 -0.0284 -0.1735  0.1158
  112loPI    C3 1779   4.461  11.077  11.288  0.0011 -0.0822  0.1369
  112loPI   PO4 1780   4.640  11.567  10.758 -0.1136  0.0184  0.1088
  112loPI   GL1 1781   4.780  11.884  10.363 -0.0622  0.0389 -0.3469
  112loPI   GL2 1782   4.527  11.906  10.208 -0.3740 -0.0393 -0.2387
  112loPI   C1A 1783   5.001  11.526  10.192  0.2669  0.5248  0.1466
  112loPI   C2A 1784   5.109  11.588   9.772 -0.0285  0.0047  0.2655
  112loPI   C3A 1785   5.194  11.607   9.385 -0.1164  0.0976  0.1260
  112loPI   C4A 1786   5.574  11.397   8.999  0.2433 -0.0830  0.2053
  112loPI   C5A 1787   5.602  11.084   8.556  0.1313  0.0339  0.0424
  112loPI   C6A 1788   5.932  11.005   8.273  0.0786  0.0769  0.4292
  112loPI   C1B 1789   4.712  11.837   9.796 -0.1886 -0.1995  0.0539
  112loPI   C2B 1790   4.659  11.835   9.424  0.2808 -0.0562 -0.3512
  112loPI   C3B 1791   4.820  11.872   9.016  0.2281  0.0318 -0.0159
  112loPI   C4B 1792   4.975  12.170   8.729  0.0152  0.1131 -0.0227
  113loPI    C1 1793   5.851  10.749  10.692 -0.2705  0.0795 -0.0731
  113loPI    C2 1794   5.835  11.106  10.872  0.1312  0.0510  0.0277
  113loPI    C3 1795   5.715  10.778  11.068  0.2059  0.0702  0.1062
  113loPI   PO4 1796   6.068  10.736  10.556 -0.2055  0.1159  0.0545
  113loPI   GL1 1797   6.360  10.738  10.227  0.0376 -0.0319 -0.0280
  113loPI   GL2 1798   6.148  10.942  10.074  0.0378  0.1899  0.0151
  113loPI   C1A 1799   6.506  10.539   9.907 -0.0697 -0.0471 -0.1694
  113loPI   C2A 1800   6.518  10.483   9.462 -0.3664  0.1034 -0.1127
  113loPI   C3A 1801   6.615  10.441   8.997  0.3613  0.0971 -0.2528
  113loPI   C4A 1802   6.699  10.455   8.594 -0.0467  0.3436 -0.1225
  113loPI   C5A 1803   6.996  10.440   8.274 -0.5136 -0.1705  0.0433
  113loPI   C6A 1804   7.350  10.198   8.039  0.1983  0.0138  0.1661
  113loPI   C1B 1805   5.925  11.132   9.745  0.0992  0.1859 -0.2457
  113loPI   C2B 1806   5.945  11.037   9.242 -0.2515 -0.1882 -0.1932
  113loPI   C3B 1807   5.813  10.787   8.915  0.0321 -0.0080 -0.1181
  113loPI   C4B 1808   5.614  10.480   8.632 -0.0977 -0.4756 -0.0665
  114loPI    C1 1809  11.737   4.870  10.906  0.0659 -0.0619 -0.3203
  114loPI    C2 1810  11.486   5.092  10.688 -0.0223  0.0545 -0.1037
  114loPI    C3 1811  11.378   4.969  11.053  0.0149 -0.3695 -0.2309
  114loPI   PO4 1812  11.839   4.724  10.630  0.1152  0.1126 -0.3932
  114loPI   GL1 1813  12.110   4.916  10.259 -0.0098  0.1745  0.3166
  114loPI   GL2 1814  12.287   4.643  10.114  0.1055  0.2412  0.2108
  114loPI   C1A 1815  11.959   5.100   9.968  0.2260  0.0957  0.2491
  114loPI   C2A 1816  11.914   4.951   9.550  0.1841  0.0549 -0.1782
  114loPI   C3A 1817  11.849   4.913   9.100 -0.0913  0.0403 -0.1029
  114loPI   C4A 1818  11.885   4.886   8.654  0.2991 -0.1088  0.1707
  114loPI   C5A 1819  11.784   4.540   8.297  0.1279  0.1760  0.0181
  114loPI   C6A 1820  11.690   4.198   8.086 -0.2616  0.1317 -0.0837
  114loPI   C1B 1821  12.156   4.549   9.739  0.0297  0.2553  0.1796
  114loPI   C2B 1822  12.141   4.483   9.389  0.1272  0.1785  0.1350
  114loPI   C3B 1823  11.855   4.368   8.973  0.2729  0.0485  0.0275
  114loPI   C4B 1824  11.892   4.106   8.540 -0.0255  0.0591  0.1457
  115loPI    C1 1825   4.305  16.231  11.009 -0.0275 -0.0701  0.0252
  115loPI    C2 1826   4.246  16.547  11.246  0.1908  0.1759 -0.2396
  115loPI    C3 1827   4.497  16.257  11.359  0.0357  0.1231 -0.0223
  115loPI   PO4 1828   4.259  16.390  10.753 -0.2145  0.2263 -0.0049
  115loPI   GL1 1829   3.978  16.400  10.454 -0.0704 -0.1389  0.2562
  115loPI   GL2 1830   3.637  16.547  10.374 -0.1537  0.1717  0.1987
  115loPI   C1A 1831   3.936  16.030  10.174 -0.1359 -0.1225 -0.0589
  115loPI   C2A 1832   3.743  15.799   9.789 -0.1595 -0.0796  0.0627
  115loPI   C3A 1833   3.555  15.681   9.371 -0.0369 -0.1149 -0.2608
  115loPI   C4A 1834   3.375  15.743   8.947  0.1888 -0.0290  0.0797
  115loPI   C5A 1835   3.058  15.781   8.545 -0.1484  0.0257 -0.1204
  115loPI   C6A 1836   2.698  15.840   8.480  0.1511  0.0651 -0.1232
  115loPI   C1B 1837   3.650  16.393   9.995  0.0396  0.1057  0.2798
  115loPI   C2B 1838   3.725  16.219   9.533  0.1909  0.4475 -0.0213
  115loPI   C3B 1839   3.641  16.117   9.130 -0.1264 -0.0252  0.1329
  115loPI   C4B 1840   3.984  16.135   8.750 -0.2301 -0.0331 -0.2098
  116loPI    C1 1841   9.594  16.689  11.021  0.2239 -0.0349  0.0587
  116loPI    C2 1842   9.645  17.068  10.905  0.0769 -0.1271 -0.3231
  116loPI    C3 1843   9.814  16.938  11.243 -0.0022  0.3188 -0.1040
  116loPI   PO4 1844   9.482  16.570  10.807 -0.1569 -0.0333  0.0979
  116loPI   GL1 1845   9.630  16.458  10.372 -0.1418 -0.2440 -0.3335
  116loPI   GL2 1846   9.799  16.709  10.344 -0.0822  0.0361 -0.1584
  116loPI   C1A 1847   9.634  16.255  10.028 -0.1805 -0.0490 -0.0179
  116loPI   C2A 1848   9.602  16.299   9.637  0.2065 -0.3757 -0.1328
  116loPI   C3A 1849   9.751  16.311   9.272 -0.1246  0.2019  0.1446
  116loPI   C4A 1850   9.699  16.288   8.907 -0.0900  0.0226  0.3048
  116loPI   C5A 1851   9.787  16.102   8.414  0.1176 -0.1695 -0.3110
  116loPI   C6A 1852   9.724  16.274   8.029  0.1476 -0.2123 -0.1707
  116loPI   C1B 1853   9.753  16.754   9.870  0.0176  0.3403  0.1656
  116loPI   C2B 1854   9.674  16.786   9.443  0.0440  0.0492  0.2205
  116loPI   C3B 1855   9.728  16.804   9.058  0.3167 -0.0535 -0.0700
  116loPI   C4B 1856   9.943  16.645   8.668  0.1552 -0.1533 -0.1030
  117loPI    C1 1857  17.275   0.882  11.091  0.1782  0.1363 -0.1503
  117loPI    C2 1858  17.537   0.593  11.003  0.1703  0.0982 -0.0488
  117loPI    C3 1859  17.334   0.582  11.348 -0.0707  0.0517 -0.1894
  117loPI   PO4 1860  17.150   0.933  10.849 -0.1079 -0.4792  0.1016
  117loPI   GL1 1861  17.231   0.993  10.457  0.0126 -0.0572  0.1375
  117loPI   GL2 1862  16.879   1.182  10.480  0.0843 -0.0550  0.0849
  117loPI   C1A 1863  17.366   0.578  10.195  0.1683 -0.1025 -0.2627
  117loPI   C2A 1864  17.366   0.548   9.769 -0.0611 -0.1043  0.0694
  117loPI   C3A 1865  17.376   0.567   9.336  0.0366  0.0767  0.0725
  117loPI   C4A 1866  17.307   0.614   8.872  0.0109 -0.1385 -0.0033
  117loPI   C5A 1867  17.404   0.887   8.466 -0.0750  0.1777  0.0854
  117loPI   C6A 1868  17.743   0.887   8.330 -0.2822  0.1090  0.2029
  117loPI   C1B 1869  17.028   1.227   9.985  0.0899  0.1613 -0.1706
  117loPI   C2B 1870  16.893   1.302   9.525  0.3837  0.2020 -0.2185
  117loPI   C3B 1871  16.967   1.329   9.131 -0.2368  0.1230  0.2082
  117loPI   C4B 1872  17.013   1.016   8.808 -0.1231  0.0340 -0.0311
  118loPI    C1 1873   2.623   9.183  11.146 -0.2715 -0.0246  0.0206
  118loPI    C2 1874   2.542   9.575  11.159  0.0302  0.0353  0.1735
  118loPI    C3 1875   2.576   9.366  11.499 -0.2177 -0.1447  0.0907
  118loPI   PO4 1876   2.686   9.135  10.866  0.0166  0.1911  0.1818
  118loPI   GL1 1877   2.915   9.281  10.514 -0.4731  0.4008  0.0680
  118loPI   GL2 1878   3.263   9.442  10.563  0.1527  0.0987  0.1772
  118loPI   C1A 1879   2.901   9.131  10.070 -0.0763 -0.0092 -0.2034
  118loPI   C2A 1880   2.741   9.058   9.621  0.0676 -0.2560  0.2122
  118loPI   C3A 1881   2.750   8.924   9.265  0.1516 -0.3857 -0.0930
  118loPI   C4A 1882   2.857   8.924   8.915  0.0041 -0.1581  0.0079
  118loPI   C5A 1883   3.126   8.990   8.458 -0.3969  0.2746 -0.0523
  118loPI   C6A 1884   3.233   8.705   8.101  0.2640 -0.1672 -0.2593
  118loPI   C1B 1885   3.230   9.522  10.153  0.0324  0.2047  0.0125
  118loPI   C2B 1886   3.046   9.513   9.767 -0.1013 -0.2172  0.0006
  118loPI   C3B 1887   2.949   9.503   9.262 -0.1615 -0.0335 -0.3408
  118loPI   C4B 1888   3.044   9.477   8.811 -0.2467 -0.3644 -0.2758
  119loPI    C1 1889   2.383   2.822  10.670 -0.0070 -0.0244  0.1595
  119loPI    C2 1890   2.754   2.823  10.817 -0.0892  0.1917  0.3713
  119loPI    C3 1891   2.523   3.147  10.855 -0.2187  0.1425  0.0310
  119loPI   PO4 1892   2.355   2.636  10.463  0.1636 -0.3634  0.0724
  119loPI   GL1 1893   2.464   2.295  10.216 -0.1466  0.4144  0.2488
  119loPI   GL2 1894   2.158   2.385   9.972  0.1395  0.1366 -0.0321
  119loPI   C1A 1895   2.750   2.398   9.863  0.1184 -0.0589  0.0967
  119loPI   C2A 1896   2.798   2.187   9.526 -0.0276 -0.0169  0.2833
  119loPI   C3A 1897   2.551   1.831   9.398  0.4135 -0.0633 -0.2043
  119loPI   C4A 1898   2.578   1.471   9.198  0.0252 -0.1381  0.1733
  119loPI   C5A 1899   2.575   1.208   8.885 -0.0218  0.1620 -0.2902
  119loPI   C6A 1900   2.605   0.905   8.508  0.1618 -0.0237  0.1087
  119loPI   C1B 1901   2.257   2.300   9.506 -0.1227  0.2238 -0.1829
  119loPI   C2B 1902   2.347   2.225   9.078 -0.2000 -0.0978 -0.0806
  119loPI   C3B 1903   2.212   2.297   8.626  0.0567  0.2376  0.1933
  119loPI   C4B 1904   2.133   2.318   8.263  0.0105 -0.2468 -0.1315
  120loPI    C1 1905   6.219  16.171  11.002 -0.1128 -0.1775  0.1276
  120loPI    C2 1906   6.530  16.250  11.241  0.0118 -0.2474 -0.0099
  120loPI    C3 1907   6.157  16.285  11.380  0.0800 -0.1262  0.1451
  120loPI   PO4 1908   6.287  16.075  10.815  0.0392  0.3632 -0.2367
  120loPI   GL1 1909   6.242  16.169  10.472  0.0779 -0.2746  0.4037
  120loPI   GL2 1910   6.525  15.994  10.333 -0.2017 -0.1364  0.1411
  120loPI   C1A 1911   6.038  16.075  10.131  0.0412 -0.0958  0.0039
  120loPI   C2A 1912   6.147  15.943   9.734  0.0173 -0.3433 -0.1806
  120loPI   C3A 1913   6.060  16.006   9.285 -0.0536 -0.1055 -0.2351
  120loPI   C4A 1914   5.935  16.350   9.027  0.0229 -0.0514 -0.1297
  120loPI   C5A 1915   6.074  16.407   8.615  0.2449  0.2412  0.1117
  120loPI   C6A 1916   6.361  16.358   8.227 -0.2449 -0.2605  0.0544
  120loPI   C1B 1917   6.537  16.278   9.893  0.1642  0.1165 -0.1667
  120loPI   C2B 1918   6.498  16.268   9.434 -0.0720  0.0590 -0.1976
  120loPI   C3B 1919   6.452  16.491   9.024 -0.4764  0.0375  0.0918
  120loPI   C4B 1920   6.613  16.598   8.576  0.1231  0.3398 -0.0734
  121loPI    C1 1921  11.902  13.617  11.034  0.0498  0.0551 -0.1043
  121loPI    C2 1922  12.160  13.364  11.208 -0.2032 -0.0516  0.1237
  121loPI    C3 1923  12.011  13.672  11.415 -0.3703 -0.0747  0.0401
  121loPI   PO4 1924  11.960  13.705  10.815 -0.6447  0.0485 -0.0430
  121loPI   GL1 1925  11.941  13.471  10.443  0.0266  0.0379  0.1845
  121loPI   GL2 1926  11.650  13.305  10.287  0.1834  0.0927  0.0830
  121loPI   C1A 1927  11.981  13.683  10.042  0.1194  0.3603  0.2325
  121loPI   C2A 1928  12.031  13.656   9.649  0.0604 -0.2086 -0.1555
  121loPI   C3A 1929  12.118  13.757   9.189 -0.2951  0.1681 -0.1848
  121loPI   C4A 1930  12.269  13.613   8.741 -0.1243 -0.1759  0.2387
  121loPI   C5A 1931  12.396  13.555   8.331 -0.1214  0.2447  0.0068
  121loPI   C6A 1932  12.393  13.573   7.949  0.1194  0.2269  0.0066
  121loPI   C1B 1933  12.014  13.197   9.945  0.1321 -0.0283  0.0212
  121loPI   C2B 1934  11.992  13.162   9.545 -0.2328 -0.1280 -0.2651
  121loPI   C3B 1935  12.144  13.141   9.129  0.0066  0.2215 -0.0125
  121loPI   C4B 1936  12.412  13.160   8.842  0.0770 -0.0355  0.0138
  122loPI    C1 1937   5.673  17.204  10.915 -0.1830 -0.0116 -0.0233
  122loPI    C2 1938   5.808  17.409  11.230 -0.0752 -0.2545  0.0914
  122loPI    C3 1939   5.427  17.288  11.219 -0.0920 -0.2037  0.1051
  122loPI   PO4 1940   5.723  17.406  10.678 -0.2062 -0.1044  0.0883
  122loPI   GL1 1941   5.858  17.470  10.223  0.0809  0.2589  0.1394
  122loPI   GL2 1942   5.505  17.409  10.215  0.0011  0.1674 -0.3955
  122loPI   C1A 1943   5.897  17.401   9.783 -0.0662 -0.0278 -0.1436
  122loPI   C2A 1944   6.041  17.226   9.372  0.1035 -0.0852 -0.2175
  122loPI   C3A 1945   6.313  17.362   9.010  0.1873 -0.4016  0.2565
  122loPI   C4A 1946   6.447  17.584   8.722  0.2092 -0.1687 -0.0166
  122loPI   C5A 1947   6.166  17.946   8.586 -0.0421  0.0837  0.1192
  122loPI   C6A 1948   5.600  18.210   8.693  0.0742  0.3658  0.0899
  122loPI   C1B 1949   5.399  17.419   9.807  0.1756  0.0874 -0.0562
  122loPI   C2B 1950   5.531  17.482   9.510 -0.1711 -0.0139  0.1784
  122loPI   C3B 1951   5.407  17.419   9.105 -0.2391  0.0754  0.1204
  122loPI   C4B 1952   5.528  17.242   8.815  0.0016 -0.0945 -0.3274
  123loPI    C1 1953   4.039  13.906  10.672 -0.0572  0.1714  0.0083
  123loPI    C2 1954   4.361  13.915  10.909  0.0003  0.2594 -0.0721
  123loPI    C3 1955   3.994  13.900  11.069  0.0552 -0.4394  0.0212
  123loPI   PO4 1956   4.082  13.849  10.486 -0.0255  0.1556 -0.2000
  123loPI   GL1 1957   4.084  13.572  10.194 -0.0718 -0.1560  0.1413
  123loPI   GL2 1958   4.305  13.430  10.154  0.1159  0.1049 -0.2421
  123loPI   C1A 1959   3.873  13.637   9.880  0.4227  0.1866 -0.0480
  123loPI   C2A 1960   3.869  13.623   9.466  0.1140  0.2599 -0.1118
  123loPI   C3A 1961   3.907  13.548   9.032  0.0632 -0.0577  0.2305
  123loPI   C4A 1962   3.518  13.617   8.725 -0.1234 -0.3563 -0.1417
  123loPI   C5A 1963   3.150  13.640   8.364 -0.4389 -0.0275  0.2920
  123loPI   C6A 1964   2.870  13.495   8.074 -0.0568  0.0234 -0.1827
  123loPI   C1B 1965   4.314  13.383   9.741  0.2779  0.0184  0.0171
  123loPI   C2B 1966   4.274  13.364   9.283  0.0397  0.0716  0.0281
  123loPI   C3B 1967   4.302  13.400   8.810 -0.0642 -0.3321 -0.2548
  123loPI   C4B 1968   4.011  13.509   8.513 -0.0069  0.0178  0.0315
  124loPI    C1 1969  17.333  12.635  10.731  0.1305  0.1765  0.1593
  124loPI    C2 1970  17.058  12.423  10.929 -0.0759  0.0812 -0.2212
  124loPI    C3 1971  17.043  12.823  10.933 -0.2568  0.0760 -0.2878
  124loPI   PO4 1972  17.311  12.472  10.514 -0.3558 -0.1422 -0.0127
  124loPI   GL1 1973  17.268  12.419  10.058  0.0801 -0.2142  0.0151
  124loPI   GL2 1974  17.245  12.121  10.074 -0.1117 -0.2429  0.2686
  124loPI   C1A 1975  17.300  12.459   9.656 -0.0802 -0.1241 -0.1876
  124loPI   C2A 1976  17.428  12.276   9.257 -0.2361  0.4165  0.0982
  124loPI   C3A 1977  17.237  11.999   8.931 -0.0311  0.0721 -0.0395
  124loPI   C4A 1978  17.282  11.831   8.481 -0.1084 -0.1560  0.0465
  124loPI   C5A 1979  17.455  12.093   8.121  0.0021 -0.0684 -0.0372
  124loPI   C6A 1980  17.499  12.451   8.187 -0.0491 -0.1858  0.0456
  124loPI   C1B 1981  17.116  11.781   9.958  0.1168  0.2588  0.0103
  124loPI   C2B 1982  16.828  11.494   9.734 -0.0317  0.2014  0.0541
  124loPI   C3B 1983  16.789  11.040   9.664  0.1894  0.1174 -0.0180
  124loPI   C4B 1984  16.512  10.792   9.850 -0.1063 -0.3054  0.0143
  125loPI    C1 1985  10.634   9.671  11.370  0.0600 -0.1571  0.2171
  125loPI    C2 1986  10.724  10.033  11.514 -0.2370 -0.0542  0.1503
  125loPI    C3 1987  10.391   9.847  11.634 -0.1043 -0.2912  0.1568
  125loPI   PO4 1988  10.781   9.664  11.125 -0.3161  0.0091 -0.2378
  125loPI   GL1 1989  10.736   9.644  10.702  0.1388 -0.0769  0.0523
  125loPI   GL2 1990  10.528   9.747  10.488 -0.1505  0.3951  0.0839
  125loPI   C1A 1991  10.955   9.578  10.272  0.0239 -0.2536 -0.1508
  125loPI   C2A 1992  11.004   9.610   9.813  0.1117 -0.4107  0.0050
  125loPI   C3A 1993  11.032   9.545   9.438  0.1124  0.3356  0.0376
  125loPI   C4A 1994  11.217   9.618   9.072 -0.1984 -0.0368  0.0818
  125loPI   C5A 1995  11.381   9.741   8.652 -0.3101 -0.0466  0.2063
  125loPI   C6A 1996  11.609   9.970   8.416 -0.0703  0.2109 -0.2660
  125loPI   C1B 1997  10.541   9.735  10.023  0.4279 -0.0848 -0.0112
  125loPI   C2B 1998  10.417   9.716   9.646 -0.0478  0.0710  0.1103
  125loPI   C3B 1999  10.260   9.571   9.192 -0.0718 -0.0290 -0.0361
  125loPI   C4B 2000  10.344   9.429   8.789  0.0845 -0.0795  0.0790
  126loPI    C1 2001   3.556   1.478  10.886 -0.0162  0.2327 -0.1628
  126loPI    C2 2002   3.558   1.824  11.087 -0.1571  0.0115  0.2305
  126loPI    C3 2003   3.623   1.479  11.280 -0.2640 -0.2064 -0.1122
  126loPI   PO4 2004   3.725   1.435  10.644  0.0967  0.1438  0.1801
  126loPI   GL1 2005   3.712   1.289  10.152 -0.0335 -0.1588 -0.1046
  126loPI   GL2 2006   3.968   1.149  10.318  0.2265 -0.4436 -0.0529
  126loPI   C1A 2007   3.875   1.304   9.800 -0.0003  0.0608 -0.2473
  126loPI   C2A 2008   3.939   1.227   9.430  0.1253 -0.0468 -0.0063
  126loPI   C3A 2009   4.007   1.251   8.988 -0.0228 -0.2341 -0.1082
  126loPI   C4A 2010   4.224   1.379   8.619  0.1344  0.2626  0.2062
  126loPI   C5A 2011   4.373   1.376   8.277  0.1468  0.0589 -0.0906
  126loPI   C6A 2012   4.415   1.638   7.893  0.1828 -0.2729  0.1322
  126loPI   C1B 2013   4.119   0.936   9.968  0.0711 -0.1129  0.0278
  126loPI   C2B 2014   4.015   0.767   9.570 -0.2389 -0.1987  0.0981
  126loPI   C3B 2015   3.925   0.723   9.099  0.1164 -0.0149 -0.0987
  126loPI   C4B 2016   3.906   0.876   8.694  0.0543 -0.0312 -0.2777
  127loPI    C1 2017   7.164  17.119  11.078 -0.0910  0.1200 -0.0273
  127loPI    C2 2018   7.461  17.055  11.338 -0.1496 -0.1354 -0.0205
  127loPI    C3 2019   7.130  17.246  11.456 -0.0720 -0.0272  0.0242
  127loPI   PO4 2020   7.272  17.209  10.895  0.0053  0.3163  0.1731
  127loPI   GL1 2021   7.294  17.253  10.445 -0.3372 -0.4295 -0.0537
  127loPI   GL2 2022   7.119  17.115  10.202  0.1485  0.0979  0.0568
  127loPI   C1A 2023   7.652  17.281  10.170 -0.1274  0.1461 -0.0179
  127loPI   C2A 2024   7.792  17.405   9.722  0.1140 -0.2603 -0.1726
  127loPI   C3A 2025   7.830  17.450   9.300  0.1533 -0.1913  0.1227
  127loPI   C4A 2026   7.943  17.374   8.864 -0.1178  0.5352  0.0445
  127loPI   C5A 2027   8.111  17.452   8.493 -0.0731  0.1542 -0.0166
  127loPI   C6A 2028   8.147  17.562   7.990  0.0243 -0.1649  0.2470
  127loPI   C1B 2029   7.074  17.276   9.862  0.1340  0.2466 -0.1549
  127loPI   C2B 2030   6.913  17.361   9.451 -0.2423 -0.0309  0.0387
  127loPI   C3B 2031   6.817  17.444   9.048 -0.0586  0.1733 -0.0133
  127loPI   C4B 2032   6.979  17.450   8.591  0.2310  0.1246 -0.1553
  128loPI    C1 2033  17.813   3.753  10.715  0.1936 -0.1950 -0.2466
  128loPI    C2 2034  17.966   4.054  10.500 -0.0772  0.2279  0.1335
  128loPI    C3 2035  18.167   3.911  10.815  0.0749 -0.0313 -0.0772
  128loPI   PO4 2036  17.758   3.480  10.509  0.3099 -0.0369  0.1762
  128loPI   GL1 2037  17.531   3.501  10.092 -0.3332 -0.2211  0.1088
  128loPI   GL2 2038  17.269   3.222  10.152 -0.1207  0.1243 -0.1733
  128loPI   C1A 2039  17.681   3.825   9.847  0.2315 -0.2330  0.0046
  128loPI   C2A 2040  17.711   3.901   9.418  0.0887  0.0057  0.1482
  128loPI   C3A 2041  17.945   3.986   9.031 -0.2247  0.2387 -0.0101
  128loPI   C4A 2042  18.261   3.925   8.748 -0.0234 -0.1233 -0.1880
  128loPI   C5A 2043  18.350   4.358   8.453 -0.0384  0.2998 -0.0687
  128loPI   C6A 2044  18.123   4.543   8.258 -0.0248 -0.2150  0.0362
  128loPI   C1B 2045  16.956   3.149   9.873  0.2547  0.0135 -0.4347
  128loPI   C2B 2046  16.931   3.271   9.397 -0.0924  0.1000  0.1819
  128loPI   C3B 2047  16.851   3.212   8.945 -0.2022  0.0853 -0.1824
  128loPI   C4B 2048  16.667   3.568   8.740 -0.1500 -0.1128 -0.0362
  129loPI    C1 2049  14.586   8.067  10.921  0.0458 -0.1090  0.2020
  129loPI    C2 2050  14.341   7.853  11.154  0.0792 -0.2228  0.1332
  129loPI    C3 2051  14.574   8.135  11.315 -0.1077 -0.1031  0.1970
  129loPI   PO4 2052  14.434   8.167  10.637  0.1337 -0.1813 -0.2567
  129loPI   GL1 2053  13.994   8.115  10.410 -0.1819 -0.0153 -0.2271
  129loPI   GL2 2054  13.912   8.462  10.369  0.1909  0.0979  0.2463
  129loPI   C1A 2055  14.141   8.137  10.037  0.0053 -0.0723  0.1776
  129loPI   C2A 2056  14.114   8.115   9.600  0.2020 -0.1034 -0.1402
  129loPI   C3A 2057  14.258   8.248   9.186 -0.5587 -0.1210 -0.2264
  129loPI   C4A 2058  14.284   8.364   8.769  0.0415 -0.0771 -0.0666
  129loPI   C5A 2059  14.126   8.647   8.457 -0.1830 -0.0485 -0.0019
  129loPI   C6A 2060  13.933   8.912   8.180 -0.1227 -0.1190  0.1704
  129loPI   C1B 2061  13.861   8.553   9.904 -0.0860  0.1788  0.0505
  129loPI   C2B 2062  13.865   8.590   9.440 -0.1527 -0.0245 -0.2483
  129loPI   C3B 2063  13.965   8.667   8.997 -0.1772 -0.2211  0.0154
  129loPI   C4B 2064  13.667   8.787   8.620  0.0506 -0.1515 -0.0111
  130loPI    C1 2065   1.120  16.344  11.262 -0.0959 -0.1078 -0.0987
  130loPI    C2 2066   0.873  16.403  11.571 -0.1047 -0.1325 -0.1011
  130loPI    C3 2067   1.168  16.134  11.599 -0.0408 -0.0603 -0.0769
  130loPI   PO4 2068   0.937  16.390  11.085 -0.0819  0.0775  0.1102
  130loPI   GL1 2069   1.033  16.516  10.642  0.1500  0.2582 -0.1230
  130loPI   GL2 2070   0.847  16.795  10.511  0.2423 -0.1948 -0.2586
  130loPI   C1A 2071   1.162  16.426  10.234 -0.0670  0.3314 -0.0007
  130loPI   C2A 2072   1.180  16.532   9.826 -0.1433  0.0005 -0.0325
  130loPI   C3A 2073   1.262  16.671   9.484 -0.0952 -0.2232  0.2556
  130loPI   C4A 2074   1.426  16.860   9.183 -0.3516 -0.0559  0.2174
  130loPI   C5A 2075   1.712  17.017   8.853 -0.0909 -0.0495 -0.1033
  130loPI   C6A 2076   1.850  17.065   8.429  0.1056  0.1337 -0.0119
  130loPI   C1B 2077   0.746  16.703  10.105 -0.0157 -0.0047  0.0406
  130loPI   C2B 2078   0.763  16.674   9.557  0.0203 -0.1148 -0.5697
  130loPI   C3B 2079   0.680  16.682   9.136  0.0634 -0.3260 -0.1069
  130loPI   C4B 2080   0.488  16.972   8.835  0.1374  0.1591 -0.0177
  131loPI    C1 2081  12.072   8.655  11.211 -0.1471  0.0215  0.0535
  131loPI    C2 2082  12.167   8.366  11.470 -0.2139 -0.0167  0.0357
  131loPI    C3 2083  11.784   8.469  11.417 -0.2193 -0.1485 -0.1952
  131loPI   PO4 2084  12.230   8.636  11.025  0.0518  0.1934 -0.2717
  131loPI   GL1 2085  12.601   8.580  10.766  0.2230  0.0553 -0.0495
  131loPI   GL2 2086  12.303   8.526  10.555 -0.0932 -0.0170  0.1160
  131loPI   C1A 2087  12.796   8.345  10.391 -0.1082 -0.1106 -0.0905
  131loPI   C2A 2088  12.915   8.578   9.891  0.1146  0.0620 -0.0266
  131loPI   C3A 2089  12.893   8.716   9.489 -0.0962  0.0993 -0.0725
  131loPI   C4A 2090  12.738   8.660   9.125  0.0526  0.1814  0.3670
  131loPI   C5A 2091  12.503   8.441   8.784 -0.1811  0.3424 -0.3489
  131loPI   C6A 2092  12.399   8.069   8.737 -0.2911  0.2502 -0.2409
  131loPI   C1B 2093  12.438   8.585  10.153 -0.2894 -0.2045 -0.0443
  131loPI   C2B 2094  12.455   8.248   9.929 -0.2110 -0.1187 -0.0021
  131loPI   C3B 2095  12.486   8.333   9.539  0.1848 -0.0301  0.4079
  131loPI   C4B 2096  12.412   8.157   9.190  0.2021  0.0834 -0.2466
  132loPI    C1 2097  14.143  17.371  11.358 -0.0039  0.2490  0.0360
  132loPI    C2 2098  13.877  17.112  11.508  0.0166  0.1571 -0.0846
  132loPI    C3 2099  14.050  17.383  11.747  0.2150 -0.1301  0.1044
  132loPI   PO4 2100  14.332  17.231  11.172 -0.1711  0.2472 -0.1860
  132loPI   GL1 2101  14.250  17.332  10.816 -0.1409 -0.0947  0.2196
  132loPI   GL2 2102  14.554  17.193  10.731  0.3417 -0.0103  0.3101
  132loPI   C1A 2103  14.009  17.099  10.553 -0.0878  0.1719  0.1531
  132loPI   C2A 2104  14.257  16.904  10.162  0.0467  0.0759  0.1425
  132loPI   C3A 2105  14.287  16.832   9.756  0.2248  0.0384 -0.2160
  132loPI   C4A 2106  14.123  16.890   9.330 -0.1067 -0.1964 -0.0358
  132loPI   C5A 2107  14.109  16.948   8.896  0.0797 -0.1980  0.1072
  132loPI   C6A 2108  13.966  17.342   8.788  0.0752  0.1821 -0.0205
  132loPI   C1B 2109  14.563  17.310  10.322  0.1028 -0.0284 -0.1731
  132loPI   C2B 2110  14.369  17.384   9.966 -0.2355  0.0200 -0.0522
  132loPI   C3B 2111  14.421  17.338   9.515 -0.0188  0.0204  0.2590
  132loPI   C4B 2112  14.301  17.357   9.156  0.2235  0.2060 -0.2199
  133loPI    C1 2113   1.344   6.624  10.714 -0.0772  0.0108 -0.0523
  133loPI    C2 2114   1.369   7.020  10.664  0.2262  0.0161  0.1190
  133loPI    C3 2115   1.613   6.835  10.922  0.1248 -0.2907 -0.0009
  133loPI   PO4 2116   1.360   6.498  10.552  0.1605  0.1368 -0.0340
  133loPI   GL1 2117   1.097   6.281  10.137 -0.1859 -0.0103 -0.0171
  133loPI   GL2 2118   0.824   6.119  10.065 -0.2199 -0.4583 -0.2615
  133loPI   C1A 2119   1.090   6.577   9.778  0.0275 -0.0069  0.1552
  133loPI   C2A 2120   1.039   6.594   9.374 -0.0564 -0.1900  0.1409
  133loPI   C3A 2121   0.742   6.573   8.948  0.1171  0.0720  0.0262
  133loPI   C4A 2122   0.682   6.558   8.500  0.1892  0.1287  0.2115
  133loPI   C5A 2123   0.304   6.395   8.227  0.1730 -0.0302  0.0639
  133loPI   C6A 2124   0.179   5.974   8.041  0.2375 -0.2261  0.0809
  133loPI   C1B 2125   0.969   6.086   9.628 -0.0928 -0.4038  0.1964
  133loPI   C2B 2126   1.071   6.104   9.214 -0.1498 -0.0422  0.0803
  133loPI   C3B 2127   1.219   6.412   8.944 -0.1163 -0.2841  0.1552
  133loPI   C4B 2128   1.164   6.520   8.556 -0.0486  0.1749 -0.1886
  134loPI    C1 2129   4.454   0.337  10.926 -0.0728  0.0371 -0.0441
  134loPI    C2 2130   4.647   0.399  11.270 -0.1163  0.1675 -0.0430
  134loPI    C3 2131   4.598   0.027  11.134  0.0976  0.1300 -0.0217
  134loPI   PO4 2132   4.504   0.441  10.803  0.1050 -0.1288  0.0527
  134loPI   GL1 2133   4.388   0.683  10.432 -0.0005  0.3622  0.2080
  134loPI   GL2 2134   4.564   0.685  10.067  0.0381  0.1119  0.3556
  134loPI   C1A 2135   4.090   0.474  10.134  0.2617  0.0007  0.0431
  134loPI   C2A 2136   3.959   0.297   9.733 -0.2059 -0.2601 -0.2715
  134loPI   C3A 2137   3.829   0.283   9.299 -0.0516 -0.1495  0.2029
  134loPI   C4A 2138   3.724   0.293   8.845 -0.5125  0.1326  0.2512
  134loPI   C5A 2139   3.632   0.043   8.591  0.1533 -0.2367 -0.0306
  134loPI   C6A 2140   3.564  -0.192   8.229  0.2607  0.5250 -0.0090
  134loPI   C1B 2141   4.555   0.605   9.644  0.1660 -0.0864 -0.0173
  134loPI   C2B 2142   4.459   0.656   9.251 -0.1917  0.0398 -0.1851
  134loPI   C3B 2143   4.364   0.936   8.841 -0.2081 -0.1136  0.1739
  134loPI   C4B 2144   4.693   0.983   8.501  0.1984 -0.0458 -0.0287
  135loPI    C1 2145  16.595  10.878  10.858  0.1265 -0.0786  0.2943
  135loPI    C2 2146  16.963  10.975  10.735 -0.0757  0.0539 -0.2354
  135loPI    C3 2147  16.682  11.258  10.765 -0.1336 -0.0419  0.1922
  135loPI   PO4 2148  16.473  10.678  10.713  0.2603 -0.0381  0.2100
  135loPI   GL1 2149  16.688  10.505  10.340  0.1320 -0.1444  0.0650
  135loPI   GL2 2150  17.040  10.703  10.367 -0.2578 -0.0114 -0.2746
  135loPI   C1A 2151  16.735  10.315   9.957  0.1746  0.0821 -0.0181
  135loPI   C2A 2152  16.586  10.393   9.550  0.0109 -0.0292  0.2249
  135loPI   C3A 2153  16.679  10.694   9.241 -0.0157 -0.0779 -0.2090
  135loPI   C4A 2154  16.345  10.789   8.846  0.1964 -0.1269  0.3264
  135loPI   C5A 2155  16.105  10.503   8.693  0.1258 -0.2021  0.1584
  135loPI   C6A 2156  15.759  10.454   8.368 -0.2151 -0.0199  0.2710
  135loPI   C1B 2157  17.078  10.629   9.857 -0.4981  0.2512 -0.3026
  135loPI   C2B 2158  17.112  10.570   9.470  0.0846  0.5671  0.3430
  135loPI   C3B 2159  17.196  10.489   9.090  0.0243 -0.1439 -0.1533
  135loPI   C4B 2160  17.288  10.226   8.774  0.0488  0.1834 -0.1958
  136loPI    C1 2161  11.883  15.709  10.867 -0.3249  0.0045 -0.0224
  136loPI    C2 2162  11.917  15.555  11.234 -0.1670 -0.3334 -0.1742
  136loPI    C3 2163  12.183  15.459  10.951 -0.2743 -0.0585 -0.3732
  136loPI   PO4 2164  11.645  15.633  10.765  0.2241  0.1184  0.2179
  136loPI   GL1 2165  11.607  15.320  10.563 -0.1459 -0.2408  0.1442
  136loPI   GL2 2166  11.976  15.374  10.450 -0.0003 -0.2665  0.2824
  136loPI   C1A 2167  11.479  15.323  10.151 -0.1283 -0.1404  0.2795
  136loPI   C2A 2168  11.626  15.422   9.768  0.0183 -0.3405 -0.0827
  136loPI   C3A 2169  11.703  15.360   9.364 -0.1346  0.1146 -0.0220
  136loPI   C4A 2170  11.794  15.741   9.044 -0.2657  0.1445 -0.2397
  136loPI   C5A 2171  11.631  15.977   8.657  0.0707  0.2866  0.1205
  136loPI   C6A 2172  11.740  16.075   8.195 -0.1394  0.0290  0.2391
  136loPI   C1B 2173  12.201  15.539  10.312  0.1310 -0.0970 -0.0199
  136loPI   C2B 2174  12.126  15.553   9.920  0.1402  0.2950  0.2739
  136loPI   C3B 2175  12.169  15.549   9.478  0.1276 -0.3401  0.2164
  136loPI   C4B 2176  12.137  15.290   9.078  0.4446  0.2588  0.1735
  137loPI    C1 2177  10.940   7.414  10.919  0.2178  0.0296 -0.0334
  137loPI    C2 2178  10.551   7.459  11.002  0.1677 -0.1579 -0.1629
  137loPI    C3 2179  10.780   7.228  11.235  0.1791 -0.1284 -0.1449
  137loPI   PO4 2180  11.039   7.505  10.691  0.0817 -0.0304 -0.1232
  137loPI   GL1 2181  10.923   7.187  10.212 -0.2523  0.3013  0.2195
  137loPI   GL2 2182  10.779   6.942  10.278  0.3250  0.4621  0.2258
  137loPI   C1A 2183  11.264   7.262   9.882  0.0210  0.2232  0.1379
  137loPI   C2A 2184  11.168   7.287   9.464  0.0171  0.2908 -0.0307
  137loPI   C3A 2185  11.096   7.362   9.015  0.1517 -0.1582  0.2363
  137loPI   C4A 2186  10.800   7.417   8.579  0.1694  0.0231 -0.0581
  137loPI   C5A 2187  10.390   7.320   8.346  0.0852 -0.2788  0.1283
  137loPI   C6A 2188  10.187   7.020   8.374  0.2436 -0.0675 -0.1049
  137loPI   C1B 2189  10.503   6.966  10.023  0.1363 -0.1779  0.2138
  137loPI   C2B 2190  10.411   7.101   9.672 -0.1794  0.2662  0.0715
  137loPI   C3B 2191  10.616   7.353   9.400 -0.1355 -0.0356 -0.1219
  137loPI   C4B 2192  10.591   7.581   9.040 -0.0825 -0.2658  0.3478
  138loPI    C1 2193  10.811  14.971  10.700  0.3632  0.0096 -0.2566
  138loPI    C2 2194  10.925  14.590  10.739  0.0021 -0.0850 -0.0760
  138loPI    C3 2195  10.930  14.834  11.056  0.1684  0.0446 -0.1764
  138loPI   PO4 2196  10.744  14.976  10.492 -0.1570  0.1204  0.1629
  138loPI   GL1 2197  10.948  14.871  10.124  0.0531 -0.1828 -0.4104
  138loPI   GL2 2198  11.128  14.593  10.069 -0.1796 -0.1443  0.0136
  138loPI   C1A 2199  11.044  14.773   9.604  0.5632  0.2737  0.1159
  138loPI   C2A 2200  10.987  14.729   9.132  0.2032 -0.3965  0.0423
  138loPI   C3A 2201  10.764  14.699   8.688 -0.2368  0.2876  0.0189
  138loPI   C4A 2202  10.690  14.322   8.429 -0.0884  0.1602 -0.3262
  138loPI   C5A 2203  10.590  13.891   8.315 -0.1472  0.0075 -0.2024
  138loPI   C6A 2204  10.666  13.480   8.152 -0.0011  0.0904 -0.0714
  138loPI   C1B 2205  11.369  14.352   9.732  0.0320  0.0450  0.2856
  138loPI   C2B 2206  11.369  14.294   9.186  0.0219 -0.1558  0.0916
  138loPI   C3B 2207  11.631  14.415   8.732 -0.0322  0.0250 -0.1969
  138loPI   C4B 2208  11.844  14.399   8.466  0.0382 -0.1507 -0.2561
  139loPI    C1 2209   8.042  10.201  10.916  0.2716  0.0607  0.1247
  139loPI    C2 2210   7.737  10.348  11.130  0.0596 -0.3067  0.0828
  139loPI    C3 2211   8.060  10.202  11.316  0.0488 -0.2588  0.1394
  139loPI   PO4 2212   7.888  10.007  10.726  0.2440  0.1718  0.2061
  139loPI   GL1 2213   7.790  10.148  10.306 -0.0314  0.2363  0.0437
  139loPI   GL2 2214   7.865  10.522  10.182 -0.0112  0.1228 -0.1690
  139loPI   C1A 2215   8.099  10.091  10.099  0.2042 -0.0293 -0.1042
  139loPI   C2A 2216   8.292  10.064   9.776  0.1258 -0.0718  0.2367
  139loPI   C3A 2217   8.236  10.042   9.431  0.1087 -0.0841  0.2692
  139loPI   C4A 2218   8.290  10.043   8.985 -0.1438  0.1147  0.1029
  139loPI   C5A 2219   8.187   9.837   8.613  0.2160  0.1254 -0.1419
  139loPI   C6A 2220   8.071   9.996   8.219  0.2452  0.0041 -0.0456
  139loPI   C1B 2221   7.850  10.330   9.703  0.0960  0.0885  0.2464
  139loPI   C2B 2222   7.817  10.282   9.293 -0.3151 -0.1269 -0.0258
  139loPI   C3B 2223   7.644  10.217   9.016  0.1424  0.1861 -0.0888
  139loPI   C4B 2224   7.640  10.040   8.572 -0.0809 -0.0313 -0.0626
  140loPI    C1 2225  17.784  16.589  10.898  0.0131  0.1373  0.0628
  140loPI    C2 2226  17.964  16.870  11.119  0.1056  0.0867  0.0519
  140loPI    C3 2227  17.833  16.534  11.292 -0.0651  0.1652  0.0767
  140loPI   PO4 2228  18.038  16.588  10.679 -0.1663 -0.3314 -0.1754
  140loPI   GL1 2229  18.227  16.936  10.361 -0.1132  0.2153 -0.1940
  140loPI   GL2 2230  17.925  16.732  10.204  0.2301 -0.1329  0.2999
  140loPI   C1A 2231  18.205  17.200  10.033 -0.3590 -0.3158 -0.0034
  140loPI   C2A 2232  18.225  17.116   9.601  0.1325 -0.2657 -0.2274
  140loPI   C3A 2233  18.071  16.907   9.310 -0.2263  0.0066  0.0600
  140loPI   C4A 2234  18.011  16.592   8.951  0.1303  0.1479  0.1145
  140loPI   C5A 2235  18.000  16.132   8.836  0.0162  0.2594 -0.1396
  140loPI   C6A 2236  18.203  15.782   8.705  0.2319 -0.3153 -0.2467
  140loPI   C1B 2237  18.060  16.609   9.862 -0.1750 -0.2024  0.0747
  140loPI   C2B 2238  18.054  16.396   9.453 -0.1064 -0.3393 -0.0940
  140loPI   C3B 2239  18.325  16.212   9.255 -0.0060 -0.1026 -0.3427
  140loPI   C4B 2240  18.612  15.873   9.121  0.1761  0.1178 -0.0622
  141loPI    C1 2241   9.743   6.854  11.276  0.1819 -0.0095 -0.0881
  141loPI    C2 2242  10.056   6.874  11.525  0.1266  0.1304 -0.0292
  141loPI    C3 2243   9.683   6.891  11.669  0.0894 -0.1275 -0.0908
  141loPI   PO4 2244   9.720   6.952  11.091  0.2895  0.1527 -0.1928
  141loPI   GL1 2245   9.772   7.087  10.628  0.0906 -0.1998 -0.0115
  141loPI   GL2 2246   9.764   6.763  10.648  0.0586  0.0132  0.3476
  141loPI   C1A 2247   9.565   7.030  10.220 -0.3063 -0.1603  0.0167
  141loPI   C2A 2248   9.406   7.074   9.820 -0.1537  0.2114  0.0142
  141loPI   C3A 2249   9.282   6.995   9.367 -0.0843 -0.0317 -0.2422
  141loPI   C4A 2250   9.228   6.891   8.940  0.2881  0.1620  0.1567
  141loPI   C5A 2251   9.171   7.084   8.576 -0.1530  0.0982  0.1005
  141loPI   C6A 2252   9.178   7.412   8.281 -0.2580 -0.1335  0.1374
  141loPI   C1B 2253   9.961   6.775  10.241 -0.2629  0.1433 -0.0641
  141loPI   C2B 2254  10.172   6.679   9.761 -0.1661  0.1457 -0.1841
  141loPI   C3B 2255  10.268   6.799   9.266 -0.0993  0.1034 -0.0765
  141loPI   C4B 2256  10.488   7.104   8.962  0.0318  0.4337 -0.0209
  142loPI    C1 2257  14.118   5.164  11.062 -0.1895 -0.0064 -0.2309
  142loPI    C2 2258  13.720   5.162  11.107 -0.1652 -0.0813 -0.0078
  142loPI    C3 2259  13.927   5.500  11.165 -0.1772 -0.0848  0.0572
  142loPI   PO4 2260  14.102   4.876  10.951 -0.2071 -0.0506 -0.1896
  142loPI   GL1 2261  13.895   4.575  10.678 -0.2182  0.0998 -0.0484
  142loPI   GL2 2262  13.860   4.912  10.544  0.0390  0.0200 -0.1690
  142loPI   C1A 2263  14.051   4.497  10.290 -0.0782  0.0489  0.0546
  142loPI   C2A 2264  14.379   4.470  10.073 -0.1783  0.0850 -0.0145
  142loPI   C3A 2265  14.513   4.283   9.719  0.0041 -0.3348  0.2554
  142loPI   C4A 2266  14.515   4.353   9.222 -0.0899 -0.0274  0.2653
  142loPI   C5A 2267  14.456   4.544   8.808 -0.0487 -0.3425 -0.2099
  142loPI   C6A 2268  14.499   4.665   8.396  0.3916  0.1274  0.0488
  142loPI   C1B 2269  13.747   5.219  10.206  0.1301  0.0637 -0.1347
  142loPI   C2B 2270  13.424   5.201   9.796  0.2199  0.0326  0.0928
  142loPI   C3B 2271  13.377   5.320   9.323 -0.0290  0.2014  0.1758
  142loPI   C4B 2272  13.493   5.709   9.002 -0.3157 -0.0210  0.0230
  143loPI    C1 2273   8.011   2.521  10.878  0.1427 -0.1554  0.0275
  143loPI    C2 2274   8.331   2.692  11.047  0.1604 -0.0627 -0.0982
  143loPI    C3 2275   8.367   2.341  10.858  0.1471 -0.1502  0.0601
  143loPI   PO4 2276   7.857   2.801  10.754  0.3929 -0.2284  0.0587
  143loPI   GL1 2277   7.581   2.915  10.482 -0.1737  0.2601 -0.0781
  143loPI   GL2 2278   7.352   2.658  10.352  0.2213  0.0269  0.0481
  143loPI   C1A 2279   7.706   2.648  10.054 -0.2363  0.0760 -0.4102
  143loPI   C2A 2280   7.629   2.563   9.687  0.0971  0.0414 -0.0466
  143loPI   C3A 2281   7.590   2.460   9.277  0.0470 -0.3196  0.0076
  143loPI   C4A 2282   7.486   2.527   8.835  0.1327 -0.3316  0.0044
  143loPI   C5A 2283   7.460   2.648   8.517  0.2153 -0.0298  0.1616
  143loPI   C6A 2284   7.437   2.204   8.255  0.0196 -0.1804 -0.1191
  143loPI   C1B 2285   7.243   2.426  10.003  0.0151  0.1835  0.1242
  143loPI   C2B 2286   7.201   2.358   9.517 -0.1424 -0.0600 -0.0187
  143loPI   C3B 2287   7.104   2.347   9.053  0.0195 -0.1676 -0.0150
  143loPI   C4B 2288   6.783   2.072   8.929 -0.2269 -0.0901 -0.3048
  144loPI    C1 2289  15.158   2.105  11.467 -0.2694  0.0619  0.0442
  144loPI    C2 2290  14.923   2.037  11.784  0.0418  0.0382  0.2747
  144loPI    C3 2291  15.239   1.802  11.715  0.0413  0.1126  0.0082
  144loPI   PO4 2292  14.863   2.097  11.246 -0.3657 -0.1038  0.2766
  144loPI   GL1 2293  14.854   2.232  10.907 -0.2285 -0.1230 -0.0751
  144loPI   GL2 2294  14.727   1.929  10.768  0.0188 -0.1828 -0.0008
  144loPI   C1A 2295  14.847   2.359  10.397  0.0913  0.2496  0.2733
  144loPI   C2A 2296  14.894   2.591  10.037  0.1156  0.0733  0.0858
  144loPI   C3A 2297  14.952   2.585   9.649 -0.2304 -0.2622 -0.1629
  144loPI   C4A 2298  14.836   2.725   9.240 -0.0678 -0.0544 -0.0480
  144loPI   C5A 2299  14.390   2.764   9.100 -0.0687 -0.1380  0.2435
  144loPI   C6A 2300  14.025   2.992   8.884 -0.0511 -0.0273 -0.0307
  144loPI   C1B 2301  14.618   1.898  10.304  0.0521  0.0681 -0.0938
  144loPI   C2B 2302  14.266   1.877  10.073 -0.3971  0.5184 -0.0269
  144loPI   C3B 2303  14.170   1.926   9.556 -0.0260 -0.1151 -0.3917
  144loPI   C4B 2304  13.910   2.051   9.229 -0.2897 -0.1936  0.1140
  145loPI    C1 2305   4.827   7.409  10.975  0.1804  0.1792  0.0839
  145loPI    C2 2306   4.876   7.230  11.329  0.1258  0.0211  0.0125
  145loPI    C3 2307   4.749   7.608  11.313  0.1857  0.0484  0.1631
  145loPI   PO4 2308   5.072   7.410  10.801  0.0935  0.0221  0.0299
  145loPI   GL1 2309   5.148   7.708  10.459  0.1823 -0.2090  0.0166
  145loPI   GL2 2310   5.336   7.513  10.204 -0.0987  0.1159  0.4017
  145loPI   C1A 2311   5.240   7.986  10.076 -0.1241 -0.1340 -0.3367
  145loPI   C2A 2312   5.365   8.096   9.548 -0.0645  0.0938  0.0494
  145loPI   C3A 2313   5.293   8.072   9.135 -0.0696  0.0294 -0.1492
  145loPI   C4A 2314   5.093   8.165   8.831 -0.0909  0.0054  0.2572
  145loPI   C5A 2315   4.945   8.154   8.519 -0.1410 -0.4008 -0.0762
  145loPI   C6A 2316   4.678   7.997   8.401  0.2722  0.1505 -0.0294
  145loPI   C1B 2317   5.227   7.611   9.696  0.0219  0.2428 -0.0673
  145loPI   C2B 2318   5.235   7.464   9.314 -0.1881  0.0054  0.0370
  145loPI   C3B 2319   5.377   7.599   8.959  0.0609  0.0775  0.3141
  145loPI   C4B 2320   5.335   7.806   8.570 -0.1103  0.0780  0.1226
  146loPI    C1 2321  16.672   4.650  10.889  0.1876  0.2106 -0.2384
  146loPI    C2 2322  16.801   4.330  11.091 -0.1318  0.2523  0.0422
  146loPI    C3 2323  17.008   4.673  11.106  0.0941  0.1244 -0.0832
  146loPI   PO4 2324  16.625   4.623  10.616  0.1366 -0.4098  0.2056
  146loPI   GL1 2325  16.872   4.608  10.239 -0.1221  0.1056  0.2103
  146loPI   GL2 2326  16.580   4.912  10.222  0.2929 -0.1175 -0.2883
  146loPI   C1A 2327  17.241   4.656  10.048  0.2258  0.1813  0.1222
  146loPI   C2A 2328  17.587   4.643   9.870 -0.1194 -0.0828  0.0552
  146loPI   C3A 2329  17.800   4.433   9.519 -0.1487 -0.0899  0.0700
  146loPI   C4A 2330  17.867   4.442   9.180 -0.1593 -0.2408  0.0734
  146loPI   C5A 2331  18.003   4.460   8.824 -0.3512 -0.0736 -0.3021
  146loPI   C6A 2332  17.818   4.189   8.629  0.1176  0.0106 -0.1435
  146loPI   C1B 2333  16.763   4.824   9.768 -0.2709  0.2346  0.1892
  146loPI   C2B 2334  17.067   4.540   9.620  0.0808 -0.1760  0.0277
  146loPI   C3B 2335  17.373   4.622   9.320  0.1346  0.2036  0.0253
  146loPI   C4B 2336  17.466   4.612   8.904 -0.1444  0.1314  0.0357
  147loPI    C1 2337  16.835   8.627  10.724 -0.2474  0.0812  0.2341
  147loPI    C2 2338  16.654   8.282  10.634  0.2036 -0.1021 -0.0049
  147loPI    C3 2339  16.705   8.387  11.017 -0.3694 -0.0570  0.0688
  147loPI   PO4 2340  16.735   8.768  10.487 -0.1166  0.0704 -0.1556
  147loPI   GL1 2341  16.661   8.760  10.078  0.2437 -0.0369  0.0728
  147loPI   GL2 2342  16.699   9.076   9.926 -0.2263 -0.1184  0.1119
  147loPI   C1A 2343  16.627   8.659   9.637  0.0431  0.1463 -0.3345
  147loPI   C2A 2344  16.371   8.694   9.353 -0.2246  0.2489  0.0769
  147loPI   C3A 2345  16.066   8.893   9.209 -0.1782  0.2546  0.0064
  147loPI   C4A 2346  15.761   8.969   9.000  0.1363 -0.0074  0.0467
  147loPI   C5A 2347  15.651   9.132   8.575 -0.2320  0.3200 -0.0278
  147loPI   C6A 2348  15.537   9.105   8.179  0.0797 -0.3097 -0.1513
  147loPI   C1B 2349  16.674   9.177   9.541  0.0892 -0.0156  0.0356
  147loPI   C2B 2350  16.483   9.139   9.096  0.1653  0.1730  0.1050
  147loPI   C3B 2351  16.333   8.969   8.743  0.4933  0.0123 -0.3403
  147loPI   C4B 2352  16.288   8.706   8.328  0.0087  0.0402 -0.3077
  148loPI    C1 2353   3.144   4.795  10.624  0.0391  0.1726  0.3270
  148loPI    C2 2354   2.816   4.580  10.548  0.2785 -0.0328 -0.1678
  148loPI    C3 2355   3.001   4.545  10.901 -0.1678  0.0105  0.0780
  148loPI   PO4 2356   3.286   4.731  10.368  0.4995 -0.1479  0.0556
  148loPI   GL1 2357   3.211   4.558   9.977 -0.2465  0.0320  0.0174
  148loPI   GL2 2358   3.543   4.457   9.995 -0.0986 -0.1208  0.1437
  148loPI   C1A 2359   3.289   4.671   9.523 -0.2788  0.2093 -0.0446
  148loPI   C2A 2360   3.222   4.774   9.222  0.0773  0.1667  0.1083
  148loPI   C3A 2361   3.221   4.790   8.842  0.0287 -0.2217 -0.1239
  148loPI   C4A 2362   3.485   4.672   8.513 -0.0403 -0.1324 -0.1036
  148loPI   C5A 2363   3.513   4.543   8.080 -0.1741  0.2883 -0.3643
  148loPI   C6A 2364   3.604   4.280   7.716  0.3026  0.1620 -0.0015
  148loPI   C1B 2365   3.427   4.178   9.690 -0.2295 -0.2258  0.3407
  148loPI   C2B 2366   3.316   4.154   9.293 -0.0935 -0.2610 -0.0892
  148loPI   C3B 2367   3.143   4.222   8.901 -0.2755  0.0608  0.0085
  148loPI   C4B 2368   3.126   4.329   8.562  0.2349  0.0355 -0.0403
  149loPI    C1 2369   5.241  10.900  11.035  0.1354 -0.1181 -0.0533
  149loPI    C2 2370   5.459  11.116  11.292 -0.1213  0.0307  0.0427
  149loPI    C3 2371   5.081  11.020  11.382 -0.1826  0.0015 -0.2372
  149loPI   PO4 2372   5.356  10.895  10.765  0.0469 -0.2247  0.1828
  149loPI   GL1 2373   5.470  11.055  10.327  0.3736 -0.1924 -0.1575
  149loPI   GL2 2374   5.377  10.640  10.323 -0.0902  0.0274  0.2228
  149loPI   C1A 2375   5.495  11.325   9.927 -0.0630 -0.3530 -0.0170
  149loPI   C2A 2376   5.648  11.494   9.621 -0.1511 -0.0546 -0.0950
  149loPI   C3A 2377   5.818  11.773   9.262 -0.3291  0.1328 -0.1781
  149loPI   C4A 2378   5.892  11.763   8.790 -0.1461  0.1405 -0.0345
  149loPI   C5A 2379   6.298  11.765   8.530 -0.1169 -0.1153  0.0917
  149loPI   C6A 2380   6.660  11.917   8.573 -0.1695 -0.1326 -0.1279
  149loPI   C1B 2381   5.476  10.781   9.924 -0.0155  0.0006  0.0816
  149loPI   C2B 2382   5.544  10.925   9.579 -0.1228 -0.0001  0.0395
  149loPI   C3B 2383   5.519  10.622   9.287  0.0721 -0.1301 -0.0915
  149loPI   C4B 2384   5.359  10.781   8.898  0.2272  0.0981 -0.1025
  150loPI    C1 2385  14.840  11.043  10.919 -0.0487  0.0712  0.2259
  150loPI    C2 2386  15.041  10.822  11.186 -0.1748 -0.0370  0.2324
  150loPI    C3 2387  14.643  10.852  11.210 -0.2129 -0.2445 -0.0856
  150loPI   PO4 2388  14.915  10.995  10.635  0.0228 -0.0776  0.1219
  150loPI   GL1 2389  14.848  11.206  10.296  0.0049 -0.0667 -0.0730
  150loPI   GL2 2390  14.606  11.407  10.197  0.2968  0.6767  0.2849
  150loPI   C1A 2391  15.032  11.272   9.875  0.2390 -0.2634  0.0146
  150loPI   C2A 2392  14.999  11.332   9.486 -0.1001 -0.0271  0.1542
  150loPI   C3A 2393  14.943  11.567   9.101  0.3118  0.1001 -0.0150
  150loPI   C4A 2394  14.872  11.494   8.614 -0.0008  0.0103  0.3125
  150loPI   C5A 2395  14.811  11.614   8.169 -0.1175 -0.3173  0.0042
  150loPI   C6A 2396  15.029  11.582   7.741  0.0546  0.2520  0.0308
  150loPI   C1B 2397  14.426  11.477   9.855  0.3122  0.0328 -0.0719
  150loPI   C2B 2398  14.476  11.509   9.343  0.1029  0.3650  0.0003
  150loPI   C3B 2399  14.412  11.516   8.934 -0.0227  0.0388 -0.0022
  150loPI   C4B 2400  14.352  11.345   8.538  0.0530  0.1974  0.0276
  151loPI    C1 2401  14.613  15.242  11.021 -0.1144  0.0603 -0.1173
  151loPI    C2 2402  14.691  15.524  11.294 -0.1368  0.0790 -0.1301
  151loPI    C3 2403  14.837  15.154  11.340  0.2204  0.1928 -0.3102
  151loPI   PO4 2404  14.269  15.271  10.944 -0.0911 -0.0210  0.2532
  151loPI   GL1 2405  14.182  15.139  10.572  0.1741 -0.0220  0.1495
  151loPI   GL2 2406  14.310  14.859  10.607  0.1973  0.1577  0.0713
  151loPI   C1A 2407  14.335  15.116  10.160  0.0210 -0.2371  0.2135
  151loPI   C2A 2408  14.374  15.102   9.668  0.0420  0.1632  0.2059
  151loPI   C3A 2409  14.443  15.115   9.258 -0.1912  0.3102 -0.0319
  151loPI   C4A 2410  14.318  15.082   8.833 -0.1097 -0.0402 -0.0028
  151loPI   C5A 2411  13.992  15.101   8.545 -0.3398  0.1571  0.1469
  151loPI   C6A 2412  13.602  15.081   8.350 -0.1983 -0.1574  0.0630
  151loPI   C1B 2413  14.266  14.553  10.339  0.1609 -0.2323 -0.1549
  151loPI   C2B 2414  14.359  14.647   9.894  0.3994 -0.0206 -0.0248
  151loPI   C3B 2415  14.369  14.607   9.454 -0.0133  0.0803  0.3684
  151loPI   C4B 2416  14.451  14.645   9.008 -0.1262 -0.2388  0.0789
  152loPI    C1 2417   0.892  10.130  10.855 -0.1734 -0.0436  0.2514
  152loPI    C2 2418   1.165  10.104  11.147 -0.1746  0.1182  0.2677
  152loPI    C3 2419   0.779  10.036  11.227 -0.1332 -0.1716  0.2318
  152loPI   PO4 2420   0.989   9.965  10.678  0.0183 -0.0015  0.0984
  152loPI   GL1 2421   1.139  10.021  10.257 -0.1001 -0.2003  0.2762
  152loPI   GL2 2422   1.062   9.637  10.191 -0.0799 -0.0446 -0.1639
  152loPI   C1A 2423   1.020  10.106   9.994 -0.3211  0.1771  0.3291
  152loPI   C2A 2424   1.072  10.071   9.590 -0.0527  0.3465 -0.0216
  152loPI   C3A 2425   1.265  10.099   9.146  0.0307  0.0055  0.2635
  152loPI   C4A 2426   1.327  10.132   8.718 -0.2035  0.2193  0.0356
  152loPI   C5A 2427   1.204  10.116   8.264 -0.2628  0.0303 -0.3426
  152loPI   C6A 2428   0.965  10.433   8.021 -0.2591 -0.0467 -0.1596
  152loPI   C1B 2429   0.730   9.612   9.907  0.0004 -0.0879  0.0416
  152loPI   C2B 2430   0.681   9.453   9.536  0.2096  0.0620  0.1695
  152loPI   C3B 2431   0.624   9.458   9.092 -0.3364 -0.1523  0.2081
  152loPI   C4B 2432   0.705   9.449   8.719  0.0346  0.0075  0.0530
  153loPI    C1 2433   5.194  13.513  10.728  0.0200 -0.0555 -0.1980
  153loPI    C2 2434   5.402  13.820  10.879 -0.1042  0.1000 -0.3380
  153loPI    C3 2435   5.242  13.546  11.124  0.3656 -0.0914 -0.2342
  153loPI   PO4 2436   5.029  13.654  10.504  0.3602 -0.0325 -0.5686
  153loPI   GL1 2437   5.193  13.915  10.161 -0.1619 -0.0119  0.0928
  153loPI   GL2 2438   5.453  14.118  10.116 -0.0834 -0.2809  0.2292
  153loPI   C1A 2439   5.382  13.619   9.795  0.2642  0.1888 -0.0103
  153loPI   C2A 2440   5.397  13.655   9.435  0.0936  0.1021 -0.0425
  153loPI   C3A 2441   5.181  13.726   9.047 -0.0956  0.0804 -0.1593
  153loPI   C4A 2442   5.066  13.743   8.645  0.2337 -0.0831 -0.2381
  153loPI   C5A 2443   5.105  13.615   8.228 -0.1340 -0.0578  0.1396
  153loPI   C6A 2444   5.339  13.386   8.007 -0.2115  0.0699 -0.0570
  153loPI   C1B 2445   5.511  14.081   9.629 -0.0935 -0.1003 -0.2593
  153loPI   C2B 2446   5.482  14.154   9.243 -0.1174 -0.3005  0.0812
  153loPI   C3B 2447   5.379  14.236   8.838  0.1433 -0.0343 -0.1400
  153loPI   C4B 2448   5.606  14.323   8.489  0.2195  0.0520  0.0762
  154loPI    C1 2449   0.611   5.674  10.965 -0.0937 -0.0701  0.0701
  154loPI    C2 2450   0.739   5.549  11.322 -0.0500  0.0049  0.0810
  154loPI    C3 2451   0.365   5.684  11.280  0.0557  0.3392  0.1805
  154loPI   PO4 2452   0.880   5.607  10.750 -0.1674  0.1063 -0.1081
  154loPI   GL1 2453   1.114   5.650  10.357 -0.0692  0.0384  0.2124
  154loPI   GL2 2454   1.351   5.844  10.258 -0.2781 -0.3138  0.0979
  154loPI   C1A 2455   1.106   5.697   9.895 -0.0166 -0.0212 -0.1765
  154loPI   C2A 2456   1.091   5.431   9.561 -0.1204 -0.2005  0.5846
  154loPI   C3A 2457   1.179   5.537   9.137 -0.1285  0.2232  0.2311
  154loPI   C4A 2458   1.295   5.621   8.726  0.1016  0.3812 -0.1533
  154loPI   C5A 2459   1.254   5.715   8.292  0.0834  0.0655  0.1447
  154loPI   C6A 2460   1.000   5.748   7.962  0.1466  0.0836  0.0069
  154loPI   C1B 2461   1.606   5.716   9.879  0.1430 -0.0584  0.1066
  154loPI   C2B 2462   1.589   5.812   9.437  0.3004 -0.3343  0.0224
  154loPI   C3B 2463   1.545   6.010   9.049  0.4443  0.0746 -0.4457
  154loPI   C4B 2464   1.520   6.098   8.646 -0.1043 -0.1961  0.1698
  155loPI    C1 2465   2.434  17.520  11.217 -0.2551 -0.2194 -0.0176
  155loPI    C2 2466   2.125  17.676  11.417 -0.2854  0.1391 -0.3331
  155loPI    C3 2467   2.468  17.880  11.387 -0.1246 -0.1154 -0.2579
  155loPI   PO4 2468   2.330  17.420  11.006  0.1794  0.3135 -0.1399
  155loPI   GL1 2469   2.035  17.688  10.660  0.0690  0.1029  0.2089
  155loPI   GL2 2470   1.768  17.960  10.546 -0.1506 -0.0444  0.1907
  155loPI   C1A 2471   2.080  17.512  10.242 -0.2076 -0.1044  0.0366
  155loPI   C2A 2472   2.273  17.396   9.898 -0.0041  0.0744 -0.2784
  155loPI   C3A 2473   2.505  17.305   9.575 -0.0386 -0.0965 -0.1648
  155loPI   C4A 2474   2.833  17.282   9.294  0.1301 -0.1837  0.1129
  155loPI   C5A 2475   3.099  17.383   9.073 -0.0662  0.2245  0.1438
  155loPI   C6A 2476   3.114  17.096   8.695 -0.0041 -0.1744  0.4551
  155loPI   C1B 2477   1.681  17.770  10.151 -0.1958 -0.1226 -0.0351
  155loPI   C2B 2478   1.521  17.828   9.659 -0.2613  0.3166  0.4931
  155loPI   C3B 2479   1.413  17.843   9.241 -0.3380 -0.2155  0.2704
  155loPI   C4B 2480   1.237  17.777   8.722  0.0306 -0.2961  0.1476
  156loPI    C1 2481   8.700   3.053  10.826  0.0625 -0.1178  0.1669
  156loPI    C2 2482   8.602   3.417  10.959 -0.0294 -0.0473 -0.0896
  156loPI    C3 2483   8.582   3.102  11.205  0.0499  0.1196  0.1335
  156loPI   PO4 2484   9.031   3.185  10.717 -0.1887  0.0419  0.0734
  156loPI   GL1 2485   9.030   3.345  10.325 -0.2562 -0.0984  0.0539
  156loPI   GL2 2486   8.730   3.054  10.293  0.0004  0.2201  0.1715
  156loPI   C1A 2487   9.207   3.365   9.942 -0.2898 -0.1150  0.0268
  156loPI   C2A 2488   9.119   3.307   9.515 -0.4437 -0.1832  0.2155
  156loPI   C3A 2489   9.152   3.321   9.080 -0.2649  0.0382  0.1791
  156loPI   C4A 2490   9.158   3.423   8.665  0.2532  0.2051 -0.1356
  156loPI   C5A 2491   9.481   3.640   8.446  0.2103 -0.0599 -0.1115
  156loPI   C6A 2492   9.822   3.868   8.485 -0.2525 -0.0736 -0.2277
  156loPI   C1B 2493   8.579   3.047   9.829  0.1250 -0.2018  0.1670
  156loPI   C2B 2494   8.559   2.848   9.415  0.2442  0.1094 -0.3991
  156loPI   C3B 2495   8.576   2.722   9.010  0.0996 -0.0822 -0.2186
  156loPI   C4B 2496   8.434   2.906   8.615 -0.0475 -0.3730  0.0543
  157loPI    C1 2497   9.201  16.377  11.289  0.0929  0.0028  0.2339
  157loPI    C2 2498   9.552  16.205  11.204 -0.0667 -0.1105 -0.2214
  157loPI    C3 2499   9.366  16.119  11.547  0.3095 -0.1091 -0.0119
  157loPI   PO4 2500   9.059  16.476  11.019 -0.0670  0.0100 -0.2698
  157loPI   GL1 2501   9.030  16.514  10.550 -0.1505 -0.0271 -0.1110
  157loPI   GL2 2502   8.635  16.512  10.528  0.0967  0.1853  0.2593
  157loPI   C1A 2503   9.131  16.412  10.224 -0.1690  0.0453 -0.0619
  157loPI   C2A 2504   9.158  16.492   9.835  0.3097  0.1310  0.0297
  157loPI   C3A 2505   9.187  16.583   9.387 -0.1586 -0.0315  0.0581
  157loPI   C4A 2506   9.268  16.690   8.990  0.0960 -0.0678  0.1726
  157loPI   C5A 2507   9.411  16.774   8.677  0.3912  0.2680  0.0231
  157loPI   C6A 2508   9.547  16.658   8.299 -0.1247 -0.0860 -0.0071
  157loPI   C1B 2509   8.642  16.367  10.116 -0.2543  0.0401  0.1432
  157loPI   C2B 2510   8.646  16.305   9.686  0.2105 -0.1967  0.0276
  157loPI   C3B 2511   8.752  16.358   9.225 -0.0551  0.0655  0.2776
  157loPI   C4B 2512   8.757  16.271   8.782 -0.0131 -0.0450 -0.2510
  158loPI    C1 2513  16.991   1.436  10.947  0.0497 -0.1244 -0.0732
  158loPI    C2 2514  16.992   1.669  11.272 -0.2931 -0.0041 -0.1545
  158loPI    C3 2515  17.282   1.399  11.219 -0.2897 -0.0985  0.3022
  158loPI   PO4 2516  17.064   1.649  10.731 -0.0452  0.2202  0.0842
  158loPI   GL1 2517  17.293   1.593  10.335  0.1760 -0.3074  0.1631
  158loPI   GL2 2518  17.545   1.464  10.231 -0.1919  0.1951  0.0723
  158loPI   C1A 2519  17.326   1.658   9.846 -0.3666 -0.2793 -0.2076
  158loPI   C2A 2520  17.147   1.744   9.491 -0.0615 -0.2764 -0.1443
  158loPI   C3A 2521  17.026   1.907   9.204 -0.0159  0.0155 -0.2199
  158loPI   C4A 2522  17.035   1.812   8.823  0.0127 -0.0791 -0.0319
  158loPI   C5A 2523  17.493   1.833   8.516  0.2114 -0.3135  0.0423
  158loPI   C6A 2524  17.671   1.468   8.291 -0.0567 -0.0077 -0.1951
  158loPI   C1B 2525  17.781   1.580   9.891 -0.0194  0.0298 -0.0001
  158loPI   C2B 2526  17.685   1.694   9.436  0.2089  0.0861 -0.1213
  158loPI   C3B 2527  17.475   1.601   9.097 -0.0729 -0.1631 -0.0588
  158loPI   C4B 2528  17.293   1.411   8.711 -0.0632 -0.2965 -0.0332
  159loPI    C1 2529   6.128   9.810  10.689 -0.2401  0.1010 -0.1145
  159loPI    C2 2530   5.834   9.606  10.509 -0.2123 -0.1047  0.0683
  159loPI    C3 2531   5.924   9.532  10.892 -0.1884  0.2405  0.1332
  159loPI   PO4 2532   6.289   9.773  10.467  0.3509  0.1174  0.0563
  159loPI   GL1 2533   6.198   9.605  10.132  0.2506 -0.1205  0.3698
  159loPI   GL2 2534   5.982   9.922  10.094 -0.1024 -0.0557 -0.2180
  159loPI   C1A 2535   6.116   9.477   9.727 -0.1484 -0.0626  0.0498
  159loPI   C2A 2536   6.077   9.500   9.310  0.1738  0.1329  0.1229
  159loPI   C3A 2537   6.059   9.464   8.824  0.3041 -0.1468 -0.0817
  159loPI   C4A 2538   6.105   9.451   8.359 -0.0741 -0.0608 -0.2821
  159loPI   C5A 2539   6.582   9.505   8.271  0.1832 -0.2100  0.0888
  159loPI   C6A 2540   6.923   9.863   8.088  0.0755  0.1582 -0.0814
  159loPI   C1B 2541   5.868   9.944   9.756  0.2127  0.0959  0.0348
  159loPI   C2B 2542   5.855   9.916   9.346  0.1459 -0.1041 -0.1424
  159loPI   C3B 2543   5.628   9.696   9.036  0.1503  0.0603 -0.2737
  159loPI   C4B 2544   5.617   9.504   8.606  0.0741 -0.5032 -0.0526
  160loPI    C1 2545   3.243  11.767  11.103 -0.2086  0.0823  0.1771
  160loPI    C2 2546   2.922  11.929  11.280 -0.1900  0.0290  0.2603
  160loPI    C3 2547   3.012  11.544  11.342 -0.0998  0.0483  0.2512
  160loPI   PO4 2548   3.237  11.879  10.820 -0.0225  0.0437 -0.0886
  160loPI   GL1 2549   3.079  11.836  10.431  0.2080 -0.0982 -0.2670
  160loPI   GL2 2550   3.218  11.594  10.251  0.0157 -0.1434 -0.0290
  160loPI   C1A 2551   3.225  11.992   9.968  0.2452 -0.1138 -0.0557
  160loPI   C2A 2552   3.341  11.958   9.544 -0.0353  0.2615  0.3014
  160loPI   C3A 2553   3.342  11.874   9.067  0.2497 -0.0179  0.1292
  160loPI   C4A 2554   3.667  11.879   8.685  0.1074 -0.1432 -0.2207
  160loPI   C5A 2555   3.755  11.457   8.482  0.2098 -0.2771  0.3702
  160loPI   C6A 2556   3.413  11.190   8.270 -0.0133  0.0847  0.2530
  160loPI   C1B 2557   3.163  11.485   9.840  0.0450 -0.3193  0.0634
  160loPI   C2B 2558   3.174  11.465   9.469  0.1481  0.0143  0.2780
  160loPI   C3B 2559   3.127  11.368   9.091  0.1531 -0.1211 -0.2093
  160loPI   C4B 2560   3.250  11.523   8.712 -0.3388 -0.0123 -0.0863
  161loPI    C1 2561  13.869   4.202  11.022 -0.0330 -0.0862 -0.1855
  161loPI    C2 2562  13.850   4.150  11.418 -0.5034 -0.0828 -0.2015
  161loPI    C3 2563  14.081   4.439  11.265 -0.1738 -0.2034  0.0551
  161loPI   PO4 2564  13.604   4.204  10.918 -0.0470 -0.0162  0.1205
  161loPI   GL1 2565  13.455   4.459  10.577  0.2044  0.2524  0.1343
  161loPI   GL2 2566  13.148   4.397  10.505  0.2586 -0.2625 -0.2260
  161loPI   C1A 2567  13.515   4.228  10.112 -0.0386 -0.6129 -0.2663
  161loPI   C2A 2568  13.865   4.354   9.824  0.2009  0.3063  0.4930
  161loPI   C3A 2569  13.947   4.448   9.422  0.0979  0.0058 -0.3962
  161loPI   C4A 2570  14.059   4.307   9.082 -0.1153  0.1072  0.3040
  161loPI   C5A 2571  14.166   4.090   8.796 -0.1450  0.3123 -0.0490
  161loPI   C6A 2572  14.180   4.141   8.364 -0.1807  0.3544  0.0212
  161loPI   C1B 2573  12.938   4.128  10.176  0.2157  0.2465 -0.0364
  161loPI   C2B 2574  13.060   3.989   9.806 -0.1578  0.1862  0.1266
  161loPI   C3B 2575  13.143   3.887   9.439  0.3860 -0.1575 -0.0182
  161loPI   C4B 2576  13.348   3.703   9.095  0.0512  0.2015  0.0003
  162loPI    C1 2577   7.697   5.076  10.856 -0.0417 -0.0810 -0.3210
  162loPI    C2 2578   7.850   5.402  10.681  0.0341  0.0059 -0.0958
  162loPI    C3 2579   7.466   5.396  10.792  0.0014 -0.0271 -0.2093
  162loPI   PO4 2580   7.809   4.896  10.610  0.0008  0.0094  0.0650
  162loPI   GL1 2581   7.940   4.698  10.309 -0.0842  0.1124  0.1377
  162loPI   GL2 2582   8.179   4.780  10.311 -0.1084 -0.1287  0.3098
  162loPI   C1A 2583   7.939   4.781   9.844 -0.2876  0.2838  0.2333
  162loPI   C2A 2584   7.847   4.878   9.441 -0.0412  0.1449 -0.4386
  162loPI   C3A 2585   7.748   4.845   8.945 -0.2479 -0.0747  0.0991
  162loPI   C4A 2586   7.355   4.781   8.720 -0.3326 -0.0571 -0.0244
  162loPI   C5A 2587   7.062   5.103   8.589 -0.0058  0.1370 -0.0982
  162loPI   C6A 2588   6.812   5.200   8.296 -0.1013  0.3292  0.0685
  162loPI   C1B 2589   8.304   5.165   9.975 -0.1445  0.1350 -0.0352
  162loPI   C2B 2590   8.318   5.157   9.543 -0.3188 -0.2163 -0.1088
  162loPI   C3B 2591   8.252   5.042   9.151  0.1574 -0.0091 -0.0825
  162loPI   C4B 2592   8.306   5.180   8.591 -0.2532 -0.1337 -0.2732
  163loPI    C1 2593  16.097   0.376  11.219  0.0215 -0.0279 -0.0560
  163loPI    C2 2594  16.455   0.197  11.213  0.0540  0.0391 -0.1267
  163loPI    C3 2595  16.399   0.524  11.437  0.0335  0.0214 -0.1061
  163loPI   PO4 2596  16.007   0.378  10.945 -0.2017  0.1936 -0.1006
  163loPI   GL1 2597  16.122   0.331  10.488 -0.1202 -0.1739 -0.2543
  163loPI   GL2 2598  16.263   0.225  10.353 -0.1753  0.2261 -0.0944
  163loPI   C1A 2599  16.032   0.717  10.243 -0.0850 -0.1215 -0.2810
  163loPI   C2A 2600  15.868   0.798   9.901 -0.0785 -0.0269 -0.0402
  163loPI   C3A 2601  15.812   1.026   9.515 -0.2686 -0.3477  0.3320
  163loPI   C4A 2602  15.657   1.372   9.284  0.0169 -0.3074 -0.2565
  163loPI   C5A 2603  15.511   1.727   8.975 -0.0213  0.1341  0.4242
  163loPI   C6A 2604  15.497   1.896   8.618  0.3351  0.0526 -0.1537
  163loPI   C1B 2605  15.975   0.327   9.949 -0.0240 -0.0809 -0.1029
  163loPI   C2B 2606  15.915   0.439   9.525 -0.2226  0.0477  0.2282
  163loPI   C3B 2607  15.796   0.616   9.061 -0.1724 -0.0433  0.1435
  163loPI   C4B 2608  15.717   0.478   8.627  0.1331 -0.1214  0.1481
  164loPI    C1 2609  17.223  13.489  11.020  0.0512  0.2749 -0.2557
  164loPI    C2 2610  17.561  13.312  11.139 -0.0513  0.2825  0.0547
  164loPI    C3 2611  17.554  13.706  11.075 -0.0708  0.3288  0.3290
  164loPI   PO4 2612  17.108  13.299  10.906 -0.0946  0.3399 -0.0349
  164loPI   GL1 2613  17.006  13.083  10.471  0.0315 -0.1266 -0.2261
  164loPI   GL2 2614  17.125  12.884  10.346  0.0955 -0.0643 -0.4186
  164loPI   C1A 2615  16.974  13.373  10.142  0.1969  0.0715  0.0125
  164loPI   C2A 2616  17.176  13.422   9.812  0.1159 -0.1950  0.0803
  164loPI   C3A 2617  17.435  13.482   9.374  0.0472 -0.4832  0.0743
  164loPI   C4A 2618  17.536  13.369   8.980 -0.0662  0.0417  0.1246
  164loPI   C5A 2619  17.570  13.149   8.609  0.2379  0.2278  0.1286
  164loPI   C6A 2620  17.427  12.998   8.195 -0.1933 -0.0082 -0.2851
  164loPI   C1B 2621  17.177  12.920   9.891  0.2714 -0.0801  0.0980
  164loPI   C2B 2622  17.333  13.010   9.475  0.0367 -0.0278 -0.1137
  164loPI   C3B 2623  17.584  12.825   9.102 -0.3138 -0.1072 -0.1018
  164loPI   C4B 2624  17.921  12.633   9.033  0.1177  0.4822 -0.0527
  165loPI    C1 2625   8.921   0.226  11.048 -0.1883 -0.1744  0.0657
  165loPI    C2 2626   8.975  -0.044  11.338 -0.0845 -0.1317  0.0864
  165loPI    C3 2627   8.742   0.275  11.403  0.0465 -0.0514  0.1693
  165loPI   PO4 2628   8.808   0.059  10.808  0.1124  0.2051 -0.2393
  165loPI   GL1 2629   8.977  -0.017  10.464 -0.1702  0.3890  0.0003
  165loPI   GL2 2630   8.868  -0.247  10.385  0.3202 -0.0896 -0.0634
  165loPI   C1A 2631   8.907   0.096  10.053  0.0501 -0.0485  0.0192
  165loPI   C2A 2632   8.888   0.002   9.612  0.0476 -0.1676  0.0267
  165loPI   C3A 2633   8.825   0.016   9.160  0.0563 -0.2865  0.1906
  165loPI   C4A 2634   8.787   0.267   8.702  0.0735  0.1790 -0.0703
  165loPI   C5A 2635   8.494   0.531   8.573 -0.1202  0.2028  0.0002
  165loPI   C6A 2636   8.440   0.828   8.220 -0.1550 -0.1028 -0.3014
  165loPI   C1B 2637   8.793  -0.378   9.976  0.0629  0.1213  0.0468
  165loPI   C2B 2638   8.809  -0.465   9.459 -0.0348  0.2970  0.1414
  165loPI   C3B 2639   8.819  -0.465   9.029 -0.0896 -0.1328 -0.1369
  165loPI   C4B 2640   8.837  -0.201   8.629 -0.1017  0.3985 -0.0230
  166loPI    C1 2641  15.877  16.529  10.800  0.1150  0.1323  0.0051
  166loPI    C2 2642  16.255  16.423  10.724  0.0592 -0.1943  0.1662
  166loPI    C3 2643  16.178  16.731  10.968  0.2204 -0.1268  0.1329
  166loPI   PO4 2644  15.743  16.435  10.544 -0.1097 -0.3581  0.1315
  166loPI   GL1 2645  15.974  16.336  10.210 -0.1774  0.1917 -0.2973
  166loPI   GL2 2646  15.788  16.166  10.053 -0.4048  0.0209  0.2865
  166loPI   C1A 2647  16.195  16.450   9.895 -0.1636 -0.0768  0.1444
  166loPI   C2A 2648  16.226  16.446   9.419  0.1683  0.4300 -0.1534
  166loPI   C3A 2649  16.351  16.420   9.011  0.1407  0.1455 -0.1683
  166loPI   C4A 2650  16.395  16.527   8.514 -0.2952  0.3220  0.1073
  166loPI   C5A 2651  16.158  16.843   8.354 -0.0971  0.1952 -0.0800
  166loPI   C6A 2652  15.800  16.933   8.710 -0.1184  0.0898  0.1450
  166loPI   C1B 2653  15.838  16.181   9.585  0.3208 -0.2445 -0.0376
  166loPI   C2B 2654  15.810  16.176   9.134  0.3706  0.2601 -0.0094
  166loPI   C3B 2655  15.878  16.404   8.764  0.1671 -0.0999  0.0616
  166loPI   C4B 2656  15.941  16.387   8.239 -0.2662 -0.2787  0.1253
  167loPI    C1 2657   5.067   5.720  10.708  0.1075  0.4269 -0.0163
  167loPI    C2 2658   5.021   5.525  11.054  0.0937  0.1457 -0.1736
  167loPI    C3 2659   4.772   5.823  10.957 -0.0446  0.0729 -0.0453
  167loPI   PO4 2660   5.301   5.632  10.609 -0.0211 -0.0754 -0.4164
  167loPI   GL1 2661   5.386   5.542  10.195 -0.0764  0.0190 -0.2306
  167loPI   GL2 2662   5.216   5.805  10.178  0.1794  0.1759 -0.3890
  167loPI   C1A 2663   5.280   5.544   9.733  0.2636 -0.0871  0.1163
  167loPI   C2A 2664   5.174   5.473   9.350  0.1464 -0.0817  0.4302
  167loPI   C3A 2665   5.131   5.375   8.883 -0.1068  0.0173 -0.0888
  167loPI   C4A 2666   5.285   5.433   8.461  0.2139  0.2470 -0.1934
  167loPI   C5A 2667   5.531   5.641   8.195  0.2259 -0.3595 -0.0572
  167loPI   C6A 2668   5.755   5.585   7.815 -0.0534 -0.1233 -0.0332
  167loPI   C1B 2669   5.205   6.024   9.694 -0.0005 -0.2804  0.0433
  167loPI   C2B 2670   5.156   5.991   9.296 -0.1619 -0.0170 -0.1884
  167loPI   C3B 2671   5.110   5.865   8.951 -0.0601  0.1581 -0.0694
  167loPI   C4B 2672   5.386   5.967   8.543 -0.0055 -0.0869  0.1394
  168loPI    C1 2673  14.422   6.712  10.508 -0.0170 -0.0416 -0.0238
  168loPI    C2 2674  14.596   6.660  10.865 -0.1160  0.2982  0.0778
  168loPI    C3 2675  14.208   6.755  10.843 -0.1651  0.0618 -0.1303
  168loPI   PO4 2676  14.366   6.485  10.368  0.1073 -0.0191 -0.5328
  168loPI   GL1 2677  14.072   6.638  10.044  0.2728  0.0071 -0.1679
  168loPI   GL2 2678  13.709   6.751   9.979  0.0289  0.4732 -0.5816
  168loPI   C1A 2679  14.013   6.830   9.627 -0.0941 -0.1501  0.3427
  168loPI   C2A 2680  14.046   6.812   9.205  0.2473 -0.2555  0.0993
  168loPI   C3A 2681  13.864   6.729   8.827  0.0835 -0.0986 -0.1536
  168loPI   C4A 2682  13.950   6.788   8.280 -0.2758  0.0838 -0.4242
  168loPI   C5A 2683  13.790   6.868   7.859  0.3988 -0.0933  0.1867
  168loPI   C6A 2684  13.511   6.838   7.670 -0.1066 -0.0696  0.5099
  168loPI   C1B 2685  13.577   6.771   9.455  0.0918 -0.1782  0.1042
  168loPI   C2B 2686  13.388   6.908   8.918 -0.1657  0.0720  0.0379
  168loPI   C3B 2687  13.403   6.652   8.474  0.0796  0.0719  0.0314
  168loPI   C4B 2688  13.535   6.536   8.097 -0.1670 -0.0905 -0.1598
  169loPI    C1 2689  16.145  12.758  10.926  0.1153  0.1157 -0.2144
  169loPI    C2 2690  15.751  12.817  10.896  0.1062  0.1692 -0.0021
  169loPI    C3 2691  15.942  12.913  11.234  0.2155 -0.3285  0.0850
  169loPI   PO4 2692  16.318  12.808  10.682 -0.2404 -0.2090 -0.3511
  169loPI   GL1 2693  16.508  12.855  10.349  0.0919  0.0644 -0.1937
  169loPI   GL2 2694  16.587  13.056  10.171 -0.2547  0.1052 -0.3478
  169loPI   C1A 2695  16.743  12.630  10.028  0.0468 -0.4231  0.0663
  169loPI   C2A 2696  16.757  12.600   9.605  0.2501 -0.1521  0.0215
  169loPI   C3A 2697  17.008  12.741   9.272  0.0635  0.0519  0.0834
  169loPI   C4A 2698  17.024  12.428   8.947 -0.0227 -0.2004  0.1821
  169loPI   C5A 2699  17.129  12.327   8.565 -0.1023  0.2656  0.3729
  169loPI   C6A 2700  16.994  12.323   8.068 -0.0365  0.3777 -0.2655
  169loPI   C1B 2701  16.432  12.975   9.729  0.0747 -0.1096 -0.2145
  169loPI   C2B 2702  16.471  12.844   9.288  0.1548  0.0007 -0.0331
  169loPI   C3B 2703  16.419  12.949   8.834  0.0481  0.2701 -0.0113
  169loPI   C4B 2704  16.553  12.979   8.373 -0.0248 -0.1153 -0.0427
  170loPI    C1 2705  11.542  14.029  10.801  0.0025 -0.1853 -0.0280
  170loPI    C2 2706  11.782  14.073  11.118  0.1550  0.1040 -0.1795
  170loPI    C3 2707  11.446  13.859  11.150  0.1747  0.1205  0.1732
  170loPI   PO4 2708  11.611  13.947  10.545 -0.2284 -0.0328 -0.1066
  170loPI   GL1 2709  11.385  13.711  10.259 -0.2516 -0.0630 -0.1389
  170loPI   GL2 2710  11.372  14.032  10.132  0.0813  0.1060  0.0118
  170loPI   C1A 2711  11.384  13.485   9.874  0.3501 -0.0077 -0.2249
  170loPI   C2A 2712  11.493  13.432   9.468  0.0581  0.0460  0.1025
  170loPI   C3A 2713  11.723  13.404   9.098 -0.2298 -0.1568 -0.2934
  170loPI   C4A 2714  11.865  13.357   8.683 -0.0343 -0.0596 -0.0774
  170loPI   C5A 2715  11.860  13.566   8.201  0.1544 -0.1752 -0.0673
  170loPI   C6A 2716  11.698  13.647   7.837  0.0454 -0.0392  0.3638
  170loPI   C1B 2717  11.588  13.915   9.783 -0.1956  0.2361  0.0206
  170loPI   C2B 2718  11.666  13.866   9.411  0.4496  0.4299  0.1290
  170loPI   C3B 2719  11.690  13.889   8.936  0.0494 -0.1897 -0.0321
  170loPI   C4B 2720  11.653  13.906   8.519  0.1431  0.1772  0.1685
  171loPI    C1 2721   3.361  10.332  11.002 -0.0604 -0.1522  0.2451
  171loPI    C2 2722   3.389  10.727  11.054 -0.0633 -0.1022 -0.1061
  171loPI    C3 2723   3.075  10.528  11.200 -0.0096  0.0059  0.1639
  171loPI   PO4 2724   3.420  10.256  10.665 -0.2877 -0.0158  0.1111
  171loPI   GL1 2725   3.617  10.236  10.243  0.2507  0.0704 -0.1067
  171loPI   GL2 2726   3.659  10.564  10.292 -0.1812  0.2967 -0.2095
  171loPI   C1A 2727   3.657  10.125   9.853  0.2786  0.1488  0.2964
  171loPI   C2A 2728   3.690  10.163   9.395 -0.0416 -0.0144 -0.3098
  171loPI   C3A 2729   3.658  10.148   9.039 -0.3951  0.2710  0.0346
  171loPI   C4A 2730   3.646  10.295   8.567 -0.3288 -0.2492 -0.1940
  171loPI   C5A 2731   3.220  10.281   8.267  0.0086  0.1856 -0.0251
  171loPI   C6A 2732   2.774  10.247   8.289 -0.1320  0.1980 -0.1280
  171loPI   C1B 2733   3.956  10.630   9.912 -0.1072 -0.1986 -0.0001
  171loPI   C2B 2734   4.124  10.341   9.565  0.1749 -0.0958  0.0089
  171loPI   C3B 2735   4.170  10.287   9.195 -0.0792  0.2445 -0.2064
  171loPI   C4B 2736   4.308  10.487   8.898  0.0306  0.0933  0.2247
  172loPI    C1 2737  17.454  17.388  10.800 -0.0061  0.0799 -0.0326
  172loPI    C2 2738  17.541  17.778  10.829  0.2824  0.0303 -0.1910
  172loPI    C3 2739  17.285  17.610  11.087  0.2803  0.2893 -0.0210
  172loPI   PO4 2740  17.388  17.325  10.620 -0.0357 -0.1064  0.1530
  172loPI   GL1 2741  17.198  17.234  10.334 -0.1135 -0.1384 -0.0223
  172loPI   GL2 2742  17.009  17.003  10.199 -0.1009  0.1126 -0.0409
  172loPI   C1A 2743  17.213  17.496   9.987 -0.0428 -0.1060 -0.3211
  172loPI   C2A 2744  17.108  17.464   9.478  0.1828  0.0955  0.1870
  172loPI   C3A 2745  16.984  17.163   9.282 -0.0879  0.0886  0.1493
  172loPI   C4A 2746  17.114  17.081   8.910 -0.1284  0.1707  0.1517
  172loPI   C5A 2747  17.370  17.208   8.601  0.2733 -0.1306  0.0022
  172loPI   C6A 2748  17.634  17.381   8.349  0.1629  0.0468  0.0571
  172loPI   C1B 2749  17.091  16.999   9.722 -0.0502 -0.0070 -0.3215
  172loPI   C2B 2750  17.120  16.690   9.322  0.3220 -0.2147  0.1218
  172loPI   C3B 2751  17.056  16.576   8.889 -0.1374 -0.0148  0.1549
  172loPI   C4B 2752  16.900  16.438   8.566  0.0688  0.2264  0.0435
  173loPI    C1 2753   6.653  15.795  11.041 -0.2082 -0.0382  0.1153
  173loPI    C2 2754   6.730  15.418  11.150  0.0611  0.0659  0.2951
  173loPI    C3 2755   6.487  15.645  11.373 -0.2197 -0.0442  0.1068
  173loPI   PO4 2756   6.654  15.689  10.728  0.1463 -0.0665  0.3048
  173loPI   GL1 2757   6.980  15.748  10.402  0.1036 -0.1245  0.0819
  173loPI   GL2 2758   7.257  15.704  10.315  0.2045 -0.0523  0.0467
  173loPI   C1A 2759   7.001  16.156  10.158 -0.0296 -0.1134 -0.0685
  173loPI   C2A 2760   6.951  16.168   9.707 -0.0883 -0.0473  0.0454
  173loPI   C3A 2761   7.063  16.129   9.319  0.1910 -0.0058 -0.0989
  173loPI   C4A 2762   6.728  16.121   9.005  0.0204 -0.1718  0.1441
  173loPI   C5A 2763   6.396  16.024   8.806 -0.2108  0.0710  0.2816
  173loPI   C6A 2764   6.416  15.930   8.508  0.0040 -0.2614  0.0169
  173loPI   C1B 2765   7.197  15.714   9.837  0.0725  0.0623 -0.0717
  173loPI   C2B 2766   7.174  15.675   9.425  0.3207 -0.2957  0.2645
  173loPI   C3B 2767   7.181  15.797   8.965 -0.1123 -0.0747  0.4230
  173loPI   C4B 2768   6.980  16.051   8.566  0.1536  0.0942 -0.2214
  174loPI    C1 2769   9.669   7.937  10.910  0.0836 -0.0077 -0.0816
  174loPI    C2 2770   9.632   7.824  11.291 -0.0530 -0.2036 -0.1514
  174loPI    C3 2771   9.319   7.797  11.044 -0.0949  0.3452 -0.1686
  174loPI   PO4 2772   9.886   8.000  10.841  0.0077  0.1550 -0.0023
  174loPI   GL1 2773  10.130   8.098  10.443  0.1636  0.0107  0.1669
  174loPI   GL2 2774  10.361   8.290  10.368  0.2821 -0.1155  0.1449
  174loPI   C1A 2775  10.156   7.758  10.147 -0.0551 -0.2278  0.0856
  174loPI   C2A 2776  10.133   7.587   9.705  0.1484  0.1247  0.1481
  174loPI   C3A 2777  10.135   7.373   9.316 -0.0026 -0.0522  0.0040
  174loPI   C4A 2778  10.046   7.311   8.892  0.1247 -0.0279  0.0348
  174loPI   C5A 2779  10.094   7.550   8.641 -0.0143  0.1361  0.4155
  174loPI   C6A 2780  10.245   7.815   8.397 -0.2224  0.2577  0.1269
  174loPI   C1B 2781  10.623   7.998  10.092 -0.0503 -0.0188  0.0246
  174loPI   C2B 2782  10.494   7.962   9.635  0.4444 -0.0314 -0.1142
  174loPI   C3B 2783  10.291   8.009   9.334  0.0278  0.3800 -0.2305
  174loPI   C4B 2784  10.380   7.947   8.870  0.2243  0.3089  0.0376
  175loPI    C1 2785  14.641  12.214  11.184  0.0718  0.0742 -0.0563
  175loPI    C2 2786  14.633  11.847  11.025  0.0400 -0.0007  0.1167
  175loPI    C3 2787  14.873  11.926  11.335 -0.1000  0.0712  0.2078
  175loPI   PO4 2788  14.674  12.367  10.948 -0.1842 -0.0628  0.1614
  175loPI   GL1 2789  14.540  12.477  10.564 -0.0917 -0.1502  0.1180
  175loPI   GL2 2790  14.234  12.600  10.466  0.1841 -0.0266  0.0206
  175loPI   C1A 2791  14.656  12.391  10.177 -0.0292  0.2045  0.0055
  175loPI   C2A 2792  14.603  12.417   9.832  0.0584  0.0163  0.3461
  175loPI   C3A 2793  14.693  12.457   9.361 -0.1904  0.0135  0.0494
  175loPI   C4A 2794  14.820  12.532   8.933  0.2595  0.4142  0.0629
  175loPI   C5A 2795  14.766  12.477   8.486  0.3946  0.1223 -0.2955
  175loPI   C6A 2796  14.885  12.331   8.030  0.1530 -0.0531  0.1962
  175loPI   C1B 2797  14.172  12.517  10.047 -0.2343  0.1411  0.0976
  175loPI   C2B 2798  14.189  12.537   9.584  0.2814  0.3019  0.1129
  175loPI   C3B 2799  14.141  12.499   9.152  0.0455  0.0135 -0.0560
  175loPI   C4B 2800  14.336  12.527   8.646 -0.0164  0.2638  0.2207
  176loPI    C1 2801   4.848   4.927  10.512 -0.1202  0.0439 -0.1915
  176loPI    C2 2802   5.241   4.929  10.439  0.0056 -0.2784  0.4088
  176loPI    C3 2803   5.082   5.198  10.690 -0.2100  0.0177 -0.0313
  176loPI   PO4 2804   4.746   4.968  10.298  0.1772 -0.3374  0.3563
  176loPI   GL1 2805   4.793   5.146   9.910 -0.2809 -0.5071  0.0612
  176loPI   GL2 2806   5.086   5.112   9.930  0.2103 -0.1836  0.0293
  176loPI   C1A 2807   4.682   5.300   9.429 -0.3207  0.0884 -0.4711
  176loPI   C2A 2808   4.655   5.359   9.062 -0.1092 -0.0380  0.2128
  176loPI   C3A 2809   4.328   5.269   8.614  0.0340 -0.0438 -0.3202
  176loPI   C4A 2810   4.075   5.108   8.197  0.1801  0.0967  0.2167
  176loPI   C5A 2811   3.781   4.979   8.024 -0.0075  0.0022  0.0397
  176loPI   C6A 2812   3.753   4.744   7.654 -0.0619  0.0533  0.0285
  176loPI   C1B 2813   5.101   4.970   9.549 -0.2196 -0.3241  0.1511
  176loPI   C2B 2814   5.261   4.977   9.087  0.0423  0.2149  0.0147
  176loPI   C3B 2815   5.340   4.962   8.568  0.3604  0.3319 -0.3875
  176loPI   C4B 2816   5.577   5.132   8.212  0.0040  0.1592 -0.0334
  177loPI    C1 2817  10.612   6.013  11.399 -0.0076 -0.1366  0.0770
  177loPI    C2 2818  10.655   6.082  11.791 -0.2202 -0.0527  0.0871
  177loPI    C3 2819  10.348   5.862  11.659 -0.1022 -0.1513 -0.0266
  177loPI   PO4 2820  10.462   6.251  11.121  0.0883 -0.4052 -0.2287
  177loPI   GL1 2821  10.469   6.263  10.659  0.1535 -0.0648 -0.1801
  177loPI   GL2 2822  10.375   6.589  10.595  0.2286  0.2498  0.1036
  177loPI   C1A 2823  10.525   6.003  10.316  0.1913  0.0105  0.1215
  177loPI   C2A 2824  10.651   5.927   9.898 -0.0462  0.0794 -0.2038
  177loPI   C3A 2825  10.615   5.771   9.508 -0.1377 -0.1596  0.1033
  177loPI   C4A 2826  10.701   5.860   9.109  0.0263  0.4186  0.0057
  177loPI   C5A 2827  10.838   5.961   8.757 -0.1961 -0.3868  0.0753
  177loPI   C6A 2828  11.142   6.109   8.438 -0.0334  0.0224 -0.2572
  177loPI   C1B 2829  10.274   6.426  10.182 -0.2941 -0.1715 -0.3841
  177loPI   C2B 2830  10.238   6.204   9.908  0.1513  0.4940 -0.0784
  177loPI   C3B 2831  10.351   6.276   9.503 -0.1466  0.0401 -0.2024
  177loPI   C4B 2832  10.652   6.348   9.211  0.2219 -0.2910 -0.0751
  178loPI    C1 2833   5.325   9.405  11.019  0.1577 -0.0339 -0.1510
  178loPI    C2 2834   5.386   9.298  11.400  0.0293 -0.0723 -0.1408
  178loPI    C3 2835   5.234   9.659  11.315  0.0363 -0.0726 -0.1546
  178loPI   PO4 2836   5.517   9.242  10.811 -0.2059  0.3521 -0.0756
  178loPI   GL1 2837   5.391   9.055  10.388  0.0220 -0.1363 -0.0780
  178loPI   GL2 2838   5.088   9.117  10.287 -0.2687 -0.2218  0.1763
  178loPI   C1A 2839   5.376   8.990   9.912  0.0199 -0.0776  0.1583
  178loPI   C2A 2840   5.242   8.882   9.441 -0.1688 -0.0135 -0.2842
  178loPI   C3A 2841   5.120   9.055   9.091  0.1679 -0.2775 -0.1187
  178loPI   C4A 2842   5.113   9.015   8.764 -0.2108 -0.1831  0.2769
  178loPI   C5A 2843   5.259   9.263   8.349  0.0532  0.2907  0.0060
  178loPI   C6A 2844   5.628   9.471   8.121 -0.0388 -0.1801 -0.2413
  178loPI   C1B 2845   4.882   8.897   9.827  0.2208 -0.1330 -0.2029
  178loPI   C2B 2846   4.789   8.827   9.335 -0.0544 -0.1631 -0.2489
  178loPI   C3B 2847   4.614   9.064   8.925  0.0486  0.2809 -0.2705
  178loPI   C4B 2848   4.716   9.154   8.476 -0.1343 -0.0467  0.1634
  179loPI    C1 2849  13.246   5.137  10.983 -0.2170  0.1951 -0.0827
  179loPI    C2 2850  13.308   4.927  11.318  0.0841  0.0376 -0.2331
  179loPI    C3 2851  12.970   5.137  11.273 -0.0389 -0.0844  0.0912
  179loPI   PO4 2852  13.403   4.949  10.800  0.2827  0.1279  0.1083
  179loPI   GL1 2853  13.246   4.942  10.498 -0.1958  0.0329 -0.1213
  179loPI   GL2 2854  13.137   5.109  10.292  0.0106 -0.2029 -0.0485
  179loPI   C1A 2855  13.572   4.763  10.146 -0.1133  0.1587 -0.1236
  179loPI   C2A 2856  13.777   4.874   9.757  0.0229 -0.0166 -0.0337
  179loPI   C3A 2857  13.733   4.881   9.319  0.2494  0.0026  0.0346
  179loPI   C4A 2858  13.740   4.671   8.924  0.1636  0.0018 -0.2608
  179loPI   C5A 2859  13.850   4.394   8.619 -0.0013 -0.2754  0.1038
  179loPI   C6A 2860  13.695   4.216   8.249  0.0114 -0.0330 -0.0131
  179loPI   C1B 2861  12.934   5.077   9.933  0.0807 -0.0437  0.1187
  179loPI   C2B 2862  12.867   5.033   9.531 -0.0868  0.4523  0.0739
  179loPI   C3B 2863  12.743   5.215   9.229 -0.0922 -0.0598 -0.1428
  179loPI   C4B 2864  12.495   5.369   8.907 -0.1195 -0.3137 -0.2789
  180loPI    C1 2865  12.352   2.084  10.984 -0.2294  0.0167 -0.1116
  180loPI    C2 2866  12.675   2.278  11.120 -0.0328 -0.2187 -0.2346
  180loPI    C3 2867  12.451   2.441  10.832 -0.0832 -0.0094 -0.0799
  180loPI   PO4 2868  12.471   1.840  10.885 -0.1487 -0.0403  0.1753
  180loPI   GL1 2869  12.289   1.639  10.518  0.0978 -0.0843  0.1769
  180loPI   GL2 2870  12.035   1.718  10.433 -0.2007  0.0841  0.1702
  180loPI   C1A 2871  12.522   1.617  10.182 -0.3819  0.0943 -0.4480
  180loPI   C2A 2872  12.372   1.427   9.809  0.0936  0.2604  0.0573
  180loPI   C3A 2873  12.418   1.443   9.399  0.0589  0.0489 -0.0060
  180loPI   C4A 2874  12.275   1.284   8.909  0.0176 -0.3102  0.0569
  180loPI   C5A 2875  12.394   0.971   8.652  0.0947 -0.1464 -0.1354
  180loPI   C6A 2876  12.625   0.820   8.338 -0.1928 -0.3124  0.3050
  180loPI   C1B 2877  12.001   1.731  10.013 -0.0995  0.0453  0.0858
  180loPI   C2B 2878  12.004   1.641   9.593 -0.0475 -0.2150  0.1554
  180loPI   C3B 2879  11.975   1.592   9.115 -0.0914  0.2648 -0.3257
  180loPI   C4B 2880  11.757   1.395   8.802 -0.1660  0.0434 -0.1292
  181loPI    C1 2881  11.807  10.573  11.017 -0.0792 -0.2332 -0.1442
  181loPI    C2 2882  11.936  10.210  11.125 -0.2332 -0.2704 -0.0836
  181loPI    C3 2883  11.574  10.337  11.240 -0.0680  0.0139  0.1364
  181loPI   PO4 2884  11.986  10.613  10.780  0.0230 -0.0341 -0.0876
  181loPI   GL1 2885  11.975  10.517  10.297  0.2153  0.1632  0.0812
  181loPI   GL2 2886  11.660  10.394  10.314 -0.3361  0.2168 -0.0096
  181loPI   C1A 2887  11.985  10.494   9.802 -0.0530 -0.1790  0.1841
  181loPI   C2A 2888  11.841  10.387   9.293 -0.0980  0.1518 -0.0886
  181loPI   C3A 2889  11.821  10.542   8.916 -0.0041 -0.2554  0.2132
  181loPI   C4A 2890  11.558  10.446   8.603  0.0747  0.1485 -0.1627
  181loPI   C5A 2891  11.204  10.359   8.335 -0.1108 -0.1154 -0.1993
  181loPI   C6A 2892  11.060   9.964   8.325  0.3414  0.4095 -0.0707
  181loPI   C1B 2893  11.570  10.560   9.991  0.1749 -0.0645 -0.0465
  181loPI   C2B 2894  11.413  10.533   9.572 -0.3479 -0.2928  0.4795
  181loPI   C3B 2895  11.360  10.577   9.120 -0.2150 -0.1504 -0.1613
  181loPI   C4B 2896  10.981  10.665   8.916 -0.0830 -0.3308  0.0313
  182loPI    C1 2897   7.129   3.646  11.112 -0.2394 -0.2725  0.0488
  182loPI    C2 2898   6.895   3.963  11.178  0.0502 -0.0938  0.2397
  182loPI    C3 2899   7.257   3.943  11.346  0.1352 -0.4123  0.0286
  182loPI   PO4 2900   7.080   3.642  10.828  0.1217 -0.0850  0.1226
  182loPI   GL1 2901   7.205   3.833  10.378 -0.3480  0.3851  0.2125
  182loPI   GL2 2902   7.428   3.703  10.292 -0.4009 -0.3101  0.0709
  182loPI   C1A 2903   6.971   3.897  10.065 -0.1791 -0.0296  0.1860
  182loPI   C2A 2904   6.969   4.215   9.722  0.1811  0.0161 -0.0851
  182loPI   C3A 2905   6.915   4.316   9.263 -0.1170 -0.0120  0.2744
  182loPI   C4A 2906   7.122   4.284   8.919 -0.0545  0.0468  0.1941
  182loPI   C5A 2907   7.162   4.190   8.424  0.1150 -0.0963  0.1092
  182loPI   C6A 2908   7.197   3.711   8.188  0.1849 -0.3496 -0.0343
  182loPI   C1B 2909   7.251   3.602   9.820 -0.1106  0.1639 -0.0105
  182loPI   C2B 2910   7.230   3.457   9.413 -0.3724 -0.0591 -0.2356
  182loPI   C3B 2911   7.329   3.394   9.089 -0.3755 -0.0084 -0.1027
  182loPI   C4B 2912   7.153   3.420   8.660 -0.3239  0.0228  0.3746
  183loPI    C1 2913   4.923  17.261  11.031 -0.1329  0.0580 -0.2969
  183loPI    C2 2914   5.014  17.643  11.106  0.3641 -0.0620 -0.2473
  183loPI    C3 2915   4.902  17.402  11.405  0.0828  0.0319 -0.2734
  183loPI   PO4 2916   4.766  17.276  10.776 -0.0578 -0.0802  0.0731
  183loPI   GL1 2917   4.608  17.116  10.407  0.0098  0.1625 -0.1816
  183loPI   GL2 2918   4.807  17.346  10.308  0.0450  0.2918 -0.3284
  183loPI   C1A 2919   4.465  16.920  10.054  0.0205 -0.2093 -0.3429
  183loPI   C2A 2920   4.203  16.498   9.954  0.4384 -0.0487 -0.1923
  183loPI   C3A 2921   4.179  16.087   9.708 -0.0804  0.1517 -0.1937
  183loPI   C4A 2922   4.064  15.850   9.429 -0.3520  0.2029  0.1700
  183loPI   C5A 2923   3.966  15.675   8.956 -0.2950 -0.1001  0.1208
  183loPI   C6A 2924   3.710  15.430   8.700 -0.0279 -0.1711 -0.1594
  183loPI   C1B 2925   4.975  17.217  10.022  0.2031 -0.1088 -0.2627
  183loPI   C2B 2926   4.810  17.026   9.686  0.0310 -0.0107 -0.0129
  183loPI   C3B 2927   5.056  16.613   9.566  0.0782  0.1562  0.2290
  183loPI   C4B 2928   4.722  16.256   9.498  0.0877 -0.0768 -0.0211
  184loPI    C1 2929   3.828  10.741  10.761  0.1938 -0.1184  0.0273
  184loPI    C2 2930   4.130  10.920  10.952  0.1256 -0.2541  0.2662
  184loPI    C3 2931   3.757  11.061  10.991  0.1518 -0.1021 -0.0081
  184loPI   PO4 2932   3.945  10.471  10.752  0.1812 -0.0210 -0.1826
  184loPI   GL1 2933   4.098  10.307  10.420  0.3004  0.0302  0.1359
  184loPI   GL2 2934   4.364  10.135  10.556  0.2053 -0.2329  0.3245
  184loPI   C1A 2935   4.080  10.137  10.062  0.0665 -0.1841 -0.1398
  184loPI   C2A 2936   4.071   9.841   9.699 -0.0103  0.0432 -0.1207
  184loPI   C3A 2937   3.996   9.806   9.281 -0.2544 -0.3387 -0.0177
  184loPI   C4A 2938   4.030   9.767   8.789 -0.1143 -0.2134 -0.0770
  184loPI   C5A 2939   3.801   9.789   8.534 -0.2984 -0.0428 -0.0895
  184loPI   C6A 2940   3.304   9.938   8.629 -0.3117 -0.0306  0.1092
  184loPI   C1B 2941   4.613  10.245  10.152 -0.0966 -0.1287 -0.1428
  184loPI   C2B 2942   4.606  10.234   9.741  0.0706 -0.2117  0.0799
  184loPI   C3B 2943   4.635  10.250   9.301  0.0660  0.0965  0.1920
  184loPI   C4B 2944   4.825  10.153   8.878  0.1576  0.3123 -0.2708
  185loPI    C1 2945   2.273   0.993  10.709 -0.0322 -0.3301  0.0133
  185loPI    C2 2946   2.369   1.181  11.048 -0.2226  0.0070 -0.1147
  185loPI    C3 2947   2.635   1.158  10.750 -0.1359 -0.0870 -0.0306
  185loPI   PO4 2948   2.025   1.044  10.608  0.0777 -0.3123 -0.0122
  185loPI   GL1 2949   1.857   1.048  10.238 -0.1438 -0.2467  0.0070
  185loPI   GL2 2950   1.751   1.322  10.140 -0.1045 -0.0072 -0.1873
  185loPI   C1A 2951   1.680   0.896   9.843  0.1458  0.1310  0.1907
  185loPI   C2A 2952   1.615   1.034   9.469  0.4804  0.0171  0.0882
  185loPI   C3A 2953   1.543   1.032   8.943  0.0354 -0.2557  0.2178
  185loPI   C4A 2954   1.569   1.061   8.537  0.2533 -0.2215  0.0775
  185loPI   C5A 2955   1.463   1.168   8.108 -0.2424  0.1365  0.0541
  185loPI   C6A 2956   1.308   1.179   7.773 -0.0937  0.1920  0.3273
  185loPI   C1B 2957   1.700   1.504   9.767 -0.3121 -0.0602  0.3199
  185loPI   C2B 2958   1.609   1.574   9.365  0.4050  0.2410 -0.0733
  185loPI   C3B 2959   1.711   1.519   8.898 -0.0362 -0.1832 -0.0779
  185loPI   C4B 2960   1.867   1.510   8.461 -0.1136 -0.0303  0.2794
  186loPI    C1 2961  16.195  14.667  11.086 -0.0883  0.1890 -0.0062
  186loPI    C2 2962  16.028  14.800  11.424 -0.2139  0.0844 -0.0261
  186loPI    C3 2963  15.833  14.536  11.196  0.0907 -0.2444  0.0856
  186loPI   PO4 2964  16.184  14.878  10.925 -0.0894  0.0331  0.0849
  186loPI   GL1 2965  16.138  14.866  10.452 -0.0647 -0.1466  0.2018
  186loPI   GL2 2966  16.399  14.898  10.451  0.1168  0.0957 -0.2925
  186loPI   C1A 2967  16.014  14.502  10.199 -0.3326 -0.1367  0.2826
  186loPI   C2A 2968  15.968  14.344   9.882 -0.0975 -0.1069  0.1097
  186loPI   C3A 2969  15.841  14.356   9.495  0.0963  0.0627 -0.0768
  186loPI   C4A 2970  15.881  14.251   9.137  0.2686  0.0477 -0.0101
  186loPI   C5A 2971  15.809  14.223   8.741 -0.1792 -0.0397 -0.0180
  186loPI   C6A 2972  15.504  14.162   8.450 -0.2197  0.0120  0.2437
  186loPI   C1B 2973  16.257  14.866   9.958  0.3368 -0.0712  0.1726
  186loPI   C2B 2974  16.257  14.666   9.594  0.2086 -0.2183 -0.1010
  186loPI   C3B 2975  16.377  14.305   9.294  0.2423  0.0149  0.3962
  186loPI   C4B 2976  16.290  14.084   8.861 -0.0631  0.2175  0.0793
  187loPI    C1 2977  11.315   1.401  11.126 -0.1620  0.1996 -0.0974
  187loPI    C2 2978  11.623   1.564  11.323  0.2436 -0.2550 -0.3314
  187loPI    C3 2979  11.520   1.184  11.393 -0.3332 -0.0841 -0.1915
  187loPI   PO4 2980  11.402   1.527  10.869 -0.2217  0.0884 -0.0350
  187loPI   GL1 2981  11.568   1.921  10.626  0.0706 -0.1269 -0.0225
  187loPI   GL2 2982  11.227   2.052  10.681  0.2258 -0.1114  0.0850
  187loPI   C1A 2983  11.371   1.953  10.212  0.4527 -0.0269  0.0809
  187loPI   C2A 2984  11.256   2.030   9.682  0.1315  0.0565 -0.0046
  187loPI   C3A 2985  11.313   2.111   9.281  0.1453  0.2087  0.2420
  187loPI   C4A 2986  11.459   2.175   8.862 -0.0206  0.1384  0.3815
  187loPI   C5A 2987  11.096   2.339   8.482 -0.0838  0.0010  0.1315
  187loPI   C6A 2988  10.774   2.537   8.255 -0.3450 -0.0804  0.2805
  187loPI   C1B 2989  10.946   2.198  10.363  0.2467  0.1595 -0.1651
  187loPI   C2B 2990  10.840   2.087   9.909 -0.0410 -0.0248 -0.0697
  187loPI   C3B 2991  10.792   2.047   9.449  0.0061  0.3281  0.0066
  187loPI   C4B 2992  10.761   2.393   9.085  0.1456  0.0886 -0.0761
  188loPI    C1 2993  14.991   5.766  10.936  0.0124 -0.1924 -0.1633
  188loPI    C2 2994  15.283   5.950  11.138 -0.2187  0.0763 -0.0669
  188loPI    C3 2995  15.026   5.712  11.331 -0.2654  0.1054 -0.0929
  188loPI   PO4 2996  15.043   5.755  10.680  0.1923  0.0792  0.0324
  188loPI   GL1 2997  14.950   6.004  10.269 -0.0074  0.1178 -0.0386
  188loPI   GL2 2998  14.763   5.897  10.036 -0.0185  0.0291 -0.0513
  188loPI   C1A 2999  15.239   6.141   9.933 -0.0372  0.0568 -0.0594
  188loPI   C2A 3000  15.446   6.090   9.533  0.1072 -0.0161  0.2665
  188loPI   C3A 3001  15.399   5.810   9.123 -0.0686 -0.1642 -0.2576
  188loPI   C4A 3002  15.374   5.739   8.677 -0.1441 -0.0948 -0.1006
  188loPI   C5A 3003  15.335   5.480   8.225  0.0456 -0.1109 -0.0685
  188loPI   C6A 3004  15.358   5.465   7.847  0.1189  0.0986  0.0795
  188loPI   C1B 3005  14.666   5.903   9.645 -0.0276 -0.2425  0.0726
  188loPI   C2B 3006  14.571   5.932   9.266 -0.0476  0.1122 -0.1189
  188loPI   C3B 3007  14.588   5.966   8.907  0.0514 -0.4179 -0.0869
  188loPI   C4B 3008  14.225   6.138   8.604  0.1820 -0.1156  0.0963
  189loPI    C1 3009  10.815   4.010  10.689 -0.1729  0.0014  0.3078
  189loPI    C2 3010  10.754   4.046  11.082  0.2969 -0.1757  0.4047
  189loPI    C3 3011  11.127   4.037  10.938  0.1293  0.0053 -0.0603
  189loPI   PO4 3012  10.730   3.803  10.636 -0.0152 -0.2252 -0.4637
  189loPI   GL1 3013  10.671   3.755  10.220 -0.4014  0.4190 -0.0725
  189loPI   GL2 3014  10.730   3.963  10.177  0.0846  0.1372  0.0295
  189loPI   C1A 3015  10.548   3.463   9.935  0.0620 -0.2724  0.0460
  189loPI   C2A 3016  10.595   3.316   9.578  0.0723 -0.1376  0.0934
  189loPI   C3A 3017  10.377   3.212   9.232  0.0000  0.0552 -0.1409
  189loPI   C4A 3018  10.103   3.399   8.885 -0.3664  0.0736 -0.0276
  189loPI   C5A 3019   9.883   3.168   8.498  0.0685  0.3245 -0.2769
  189loPI   C6A 3020  10.019   2.879   8.229 -0.0169  0.0843 -0.0351
  189loPI   C1B 3021  10.709   3.903   9.759 -0.2614 -0.3159  0.1928
  189loPI   C2B 3022  10.605   3.798   9.332 -0.0768 -0.2945 -0.2913
  189loPI   C3B 3023  10.466   3.796   8.973 -0.1342  0.0577  0.0505
  189loPI   C4B 3024  10.378   3.973   8.597 -0.1972  0.0068  0.1485
  190loPI    C1 3025   0.916   2.172  10.773  0.0772 -0.0889  0.1094
  190loPI    C2 3026   0.625   1.975  10.965  0.2413 -0.1396  0.3095
  190loPI    C3 3027   1.003   1.847  10.990  0.2852 -0.0613  0.0686
  190loPI   PO4 3028   0.851   2.204  10.531 -0.4577  0.1100  0.2533
  190loPI   GL1 3029   0.867   2.041  10.098 -0.0804 -0.0268 -0.0458
  190loPI   GL2 3030   0.855   1.758  10.028 -0.2266 -0.2179 -0.1459
  190loPI   C1A 3031   1.145   2.314   9.897 -0.1903  0.0870  0.1143
  190loPI   C2A 3032   1.226   2.382   9.464  0.2083 -0.1607 -0.0703
  190loPI   C3A 3033   1.131   2.401   9.059  0.0942 -0.2163  0.0389
  190loPI   C4A 3034   1.003   2.279   8.718 -0.2645  0.0022  0.0182
  190loPI   C5A 3035   1.273   2.151   8.422  0.2003 -0.2249 -0.1320
  190loPI   C6A 3036   1.463   2.161   8.063 -0.4481 -0.0469  0.2708
  190loPI   C1B 3037   0.694   1.550   9.606  0.0478 -0.2027  0.0221
  190loPI   C2B 3038   0.623   1.640   9.131 -0.1375  0.0251  0.3856
  190loPI   C3B 3039   0.829   1.739   8.853 -0.0090 -0.0212 -0.0218
  190loPI   C4B 3040   0.891   1.848   8.486  0.1235  0.2702 -0.0820
  191loPI    C1 3041  13.542   8.428  11.083 -0.0451 -0.2301  0.1131
  191loPI    C2 3042  13.613   8.285  11.449 -0.0819 -0.0912  0.1749
  191loPI    C3 3043  13.729   8.655  11.353 -0.0614 -0.1318  0.0420
  191loPI   PO4 3044  13.535   8.239  10.845 -0.2435  0.2006 -0.0700
  191loPI   GL1 3045  13.530   8.026  10.392  0.3832  0.2547  0.1451
  191loPI   GL2 3046  13.305   8.299  10.384 -0.0658  0.0096  0.0457
  191loPI   C1A 3047  13.645   8.093   9.997 -0.1420  0.1261 -0.2543
  191loPI   C2A 3048  13.635   8.110   9.603  0.1493 -0.0020  0.0690
  191loPI   C3A 3049  13.778   8.069   9.176  0.1050  0.1044  0.3749
  191loPI   C4A 3050  13.798   8.212   8.704 -0.0271 -0.1151  0.1231
  191loPI   C5A 3051  13.767   8.402   8.254  0.1040  0.1092  0.0162
  191loPI   C6A 3052  13.472   8.766   8.114 -0.3386 -0.0918  0.2065
  191loPI   C1B 3053  13.383   8.504  10.025  0.1461 -0.1931  0.1357
  191loPI   C2B 3054  13.376   8.589   9.585  0.1643 -0.0232 -0.0467
  191loPI   C3B 3055  13.239   8.618   9.147 -0.0168  0.1859 -0.2105
  191loPI   C4B 3056  13.324   8.431   8.721 -0.0070  0.0055  0.1485
  192loPI    C1 3057   4.867   1.165  11.068  0.1783  0.0332  0.0582
  192loPI    C2 3058   4.854   0.900  11.367 -0.0606 -0.2131 -0.1650
  192loPI    C3 3059   4.603   0.864  11.057  0.0612  0.1435 -0.3096
  192loPI   PO4 3060   5.075   1.128  10.969 -0.0174 -0.2422 -0.1170
  192loPI   GL1 3061   5.192   1.032  10.507 -0.0085  0.0582 -0.5059
  192loPI   GL2 3062   5.461   1.163  10.417 -0.0061 -0.2998 -0.1705
  192loPI   C1A 3063   5.058   0.877  10.058 -0.0010  0.0326  0.1071
  192loPI   C2A 3064   4.952   0.909   9.616 -0.1176  0.0852 -0.2824
  192loPI   C3A 3065   5.037   0.625   9.333  0.1386 -0.1861 -0.1195
  192loPI   C4A 3066   4.822   0.395   8.936 -0.0188 -0.0816 -0.2165
  192loPI   C5A 3067   4.830   0.178   8.556  0.0302  0.1472 -0.0291
  192loPI   C6A 3068   4.566  -0.048   8.230 -0.2286  0.2415  0.0355
  192loPI   C1B 3069   5.484   1.460  10.232  0.2606  0.0256  0.1346
  192loPI   C2B 3070   5.736   1.652  10.009 -0.2504  0.0097  0.2604
  192loPI   C3B 3071   5.821   1.719   9.614 -0.0143  0.1312  0.1475
  192loPI   C4B 3072   6.018   1.741   9.155  0.1368  0.2657  0.0002
  193loPI    C1 3073   5.620   6.616  10.324 -0.0895 -0.0396 -0.3056
  193loPI    C2 3074   5.977   6.717  10.174 -0.0138  0.0969 -0.0387
  193loPI    C3 3075   5.931   6.367  10.361  0.0721  0.2281  0.2332
  193loPI   PO4 3076   5.477   6.874  10.240  0.1540 -0.0936 -0.2188
  193loPI   GL1 3077   5.526   7.103  10.018 -0.2808  0.0013 -0.0174
  193loPI   GL2 3078   5.562   6.739   9.806 -0.3776  0.0034  0.0912
  193loPI   C1A 3079   5.589   7.218   9.597 -0.0474  0.1388  0.2833
  193loPI   C2A 3080   5.666   7.245   9.164 -0.3528 -0.2273  0.1345
  193loPI   C3A 3081   5.711   7.205   8.688  0.2038  0.0184  0.1814
  193loPI   C4A 3082   5.730   7.288   8.266 -0.0544 -0.2853  0.1952
  193loPI   C5A 3083   5.992   7.427   7.922  0.2925 -0.0636 -0.2744
  193loPI   C6A 3084   6.160   7.084   7.700 -0.2408  0.4869 -0.1679
  193loPI   C1B 3085   5.650   6.796   9.378 -0.2151 -0.3891  0.1812
  193loPI   C2B 3086   5.527   6.696   8.972  0.3186  0.1508  0.0891
  193loPI   C3B 3087   5.276   6.856   8.475 -0.1107  0.1441  0.2243
  193loPI   C4B 3088   5.362   6.840   8.120  0.0884 -0.4093 -0.1517
  194loPI    C1 3089  13.983   0.283  11.438  0.1323 -0.1723 -0.0613
  194loPI    C2 3090  13.864  -0.093  11.504 -0.0944 -0.1198 -0.1599
  194loPI    C3 3091  13.661   0.212  11.665  0.2312 -0.0450  0.1217
  194loPI   PO4 3092  14.056   0.305  11.106 -0.0940 -0.0328  0.0010
  194loPI   GL1 3093  14.052   0.401  10.644 -0.4108 -0.1620 -0.2111
  194loPI   GL2 3094  13.786   0.547  10.660  0.2650 -0.0993  0.1009
  194loPI   C1A 3095  13.909   0.217  10.218  0.1677  0.2290  0.3709
  194loPI   C2A 3096  13.841   0.398   9.852 -0.1473 -0.0070 -0.1406
  194loPI   C3A 3097  13.687   0.456   9.493  0.0198 -0.1461  0.0191
  194loPI   C4A 3098  13.799   0.682   9.175  0.1303 -0.1627  0.1282
  194loPI   C5A 3099  14.049   0.552   8.874  0.0804 -0.2827  0.0677
  194loPI   C6A 3100  14.437   0.484   8.896 -0.1472 -0.0264  0.0289
  194loPI   C1B 3101  13.778   0.738  10.206  0.0364  0.1479  0.0586
  194loPI   C2B 3102  14.026   0.901   9.976 -0.0928  0.0602 -0.0182
  194loPI   C3B 3103  14.173   0.748   9.598  0.2753 -0.0754 -0.0468
  194loPI   C4B 3104  14.157   0.372   9.404 -0.1964  0.0185  0.1171
  195loPI    C1 3105  12.432  10.289  10.959  0.0864  0.0362  0.0113
  195loPI    C2 3106  12.523  10.261  11.348 -0.2481  0.3396  0.1169
  195loPI    C3 3107  12.276  10.548  11.220 -0.2774  0.1377 -0.2983
  195loPI   PO4 3108  12.564  10.032  10.847  0.0198  0.2111  0.0362
  195loPI   GL1 3109  12.427   9.980  10.383  0.2059  0.0547  0.0970
  195loPI   GL2 3110  12.752   9.756  10.476 -0.3033  0.0527 -0.0867
  195loPI   C1A 3111  12.327  10.197   9.969  0.0141 -0.2149 -0.2869
  195loPI   C2A 3112  12.343  10.355   9.500 -0.0545  0.0707  0.2289
  195loPI   C3A 3113  12.586  10.285   9.175  0.0252 -0.1120 -0.2007
  195loPI   C4A 3114  12.759  10.475   8.814  0.1119  0.1045 -0.0231
  195loPI   C5A 3115  12.978  10.380   8.444  0.3560 -0.2327 -0.0922
  195loPI   C6A 3116  13.474  10.272   8.435  0.1692 -0.1138 -0.3242
  195loPI   C1B 3117  12.708   9.901   9.991 -0.1638 -0.0233  0.0500
  195loPI   C2B 3118  12.786  10.212   9.625 -0.2685 -0.1097  0.0795
  195loPI   C3B 3119  12.728  10.659   9.415 -0.5318 -0.0010 -0.1679
  195loPI   C4B 3120  12.734  10.933   9.032 -0.4371  0.1656 -0.1167
  196loPI    C1 3121  12.650   2.970  11.086  0.1679 -0.0700 -0.0087
  196loPI    C2 3122  12.465   2.687  11.299  0.2635 -0.0411  0.1144
  196loPI    C3 3123  12.381   3.072  11.364 -0.0910 -0.0473 -0.2633
  196loPI   PO4 3124  12.716   2.860  10.830 -0.0664  0.2271 -0.0696
  196loPI   GL1 3125  12.862   2.533  10.623 -0.0981  0.0397  0.3478
  196loPI   GL2 3126  12.862   2.128  10.674  0.4344 -0.1015  0.2714
  196loPI   C1A 3127  12.897   2.438  10.173  0.0505 -0.1230 -0.1559
  196loPI   C2A 3128  12.973   2.340   9.777  0.1256  0.0287  0.0147
  196loPI   C3A 3129  13.051   2.383   9.403 -0.1982 -0.1962 -0.1112
  196loPI   C4A 3130  13.413   2.321   9.130 -0.1352 -0.0496  0.1523
  196loPI   C5A 3131  13.384   1.940   8.985 -0.1593  0.0170 -0.1515
  196loPI   C6A 3132  13.622   1.608   9.076  0.1160  0.0265  0.0438
  196loPI   C1B 3133  12.954   1.929  10.290  0.0262  0.1532  0.0148
  196loPI   C2B 3134  12.964   1.831   9.878  0.2527  0.0495  0.1731
  196loPI   C3B 3135  12.864   1.757   9.510 -0.0505 -0.2427  0.1180
  196loPI   C4B 3136  12.890   2.001   9.119  0.0934  0.1977 -0.1792
  197loPI    C1 3137  12.080  16.182  10.928 -0.0209  0.1149  0.1217
  197loPI    C2 3138  12.256  15.912  11.165 -0.2397 -0.1117  0.0312
  197loPI    C3 3139  11.923  16.097  11.286 -0.3176 -0.1826 -0.0727
  197loPI   PO4 3140  12.312  16.278  10.776  0.0880 -0.0711 -0.3234
  197loPI   GL1 3141  12.337  16.557  10.416 -0.0055 -0.2381  0.2200
  197loPI   GL2 3142  12.601  16.539  10.380  0.1558  0.0110  0.2548
  197loPI   C1A 3143  12.137  16.691  10.033 -0.0461  0.0471 -0.2098
  197loPI   C2A 3144  11.877  16.649   9.653  0.0849  0.3574  0.0194
  197loPI   C3A 3145  11.943  16.638   9.160 -0.0254 -0.1495  0.1368
  197loPI   C4A 3146  11.936  16.677   8.715 -0.0047  0.0219 -0.0284
  197loPI   C5A 3147  11.838  16.601   8.163  0.4301  0.0590  0.1401
  197loPI   C6A 3148  11.863  16.574   7.759  0.2018  0.0123 -0.1582
  197loPI   C1B 3149  12.595  16.500   9.952 -0.2829  0.0879 -0.2356
  197loPI   C2B 3150  12.484  16.589   9.654  0.0774  0.0235 -0.0313
  197loPI   C3B 3151  12.454  16.571   9.239 -0.5350  0.1938 -0.1583
  197loPI   C4B 3152  12.423  16.686   8.879  0.1094 -0.0343  0.3962
  198loPI    C1 3153   0.658  14.853  11.042 -0.0244 -0.0024 -0.0283
  198loPI    C2 3154   0.977  14.640  10.929  0.0020 -0.0148  0.0691
  198loPI    C3 3155   1.026  14.988  11.121 -0.0403  0.0986 -0.1225
  198loPI   PO4 3156   0.509  14.779  10.801  0.1932 -0.0454 -0.2776
  198loPI   GL1 3157   0.650  14.591  10.346  0.3116 -0.3042  0.1290
  198loPI   GL2 3158   0.507  14.323  10.253 -0.1754  0.1652 -0.0224
  198loPI   C1A 3159   0.589  14.640   9.840 -0.1221  0.1224 -0.1183
  198loPI   C2A 3160   0.574  14.586   9.455 -0.2143 -0.0202 -0.0804
  198loPI   C3A 3161   0.634  14.438   9.128  0.1040  0.0983  0.0369
  198loPI   C4A 3162   0.728  14.104   8.663  0.2143 -0.0022  0.0282
  198loPI   C5A 3163   0.825  13.753   8.407  0.0668  0.0705 -0.4392
  198loPI   C6A 3164   0.964  13.694   7.990  0.0434 -0.1626 -0.0895
  198loPI   C1B 3165   0.588  14.180   9.869  0.2733  0.1070  0.0931
  198loPI   C2B 3166   0.616  14.050   9.466  0.2268 -0.0207 -0.0245
  198loPI   C3B 3167   0.511  13.951   9.100  0.1307 -0.1102  0.0766
  198loPI   C4B 3168   0.238  14.045   8.802  0.3584  0.1295  0.0546
  199loPI    C1 3169  12.785  14.563  11.137 -0.0286  0.0495  0.0006
  199loPI    C2 3170  13.080  14.337  11.284  0.1531  0.2418 -0.0625
  199loPI    C3 3171  12.843  14.542  11.532  0.1106  0.1353 -0.0143
  199loPI   PO4 3172  12.913  14.661  10.923 -0.2373  0.4992 -0.2450
  199loPI   GL1 3173  13.159  14.657  10.531  0.1891 -0.0611 -0.0865
  199loPI   GL2 3174  13.081  14.363  10.545 -0.2342  0.1983  0.0207
  199loPI   C1A 3175  13.355  14.773  10.127 -0.1759 -0.1161  0.0027
  199loPI   C2A 3176  13.497  15.157   9.818  0.1673  0.0575  0.2175
  199loPI   C3A 3177  13.605  15.236   9.295 -0.0214  0.1240  0.0398
  199loPI   C4A 3178  13.554  15.096   8.859  0.1727  0.0095 -0.2752
  199loPI   C5A 3179  13.333  14.795   8.690  0.1958 -0.0728 -0.4549
  199loPI   C6A 3180  13.458  14.418   8.593  0.1743  0.0370 -0.1456
  199loPI   C1B 3181  13.155  14.311  10.189  0.1363  0.0705 -0.1767
  199loPI   C2B 3182  13.253  14.296   9.772 -0.0867 -0.0795 -0.1297
  199loPI   C3B 3183  13.495  14.616   9.596 -0.0513  0.2641 -0.3482
  199loPI   C4B 3184  13.497  14.627   9.129  0.1072  0.1009 -0.1037
  200loPI    C1 3185   9.627  11.293  10.959 -0.2344  0.1581  0.1701
  200loPI    C2 3186   9.794  11.077  11.252 -0.0562 -0.0112 -0.0523
  200loPI    C3 3187   9.756  11.473  11.292 -0.1261 -0.0452  0.2400
  200loPI   PO4 3188   9.833  11.242  10.728  0.1093  0.1865 -0.1455
  200loPI   GL1 3189  10.056  11.267  10.319 -0.1198  0.0748  0.0417
  200loPI   GL2 3190  10.270  11.092  10.387  0.1691 -0.0220 -0.2464
  200loPI   C1A 3191  10.288  11.338   9.878 -0.2384 -0.2066 -0.3525
  200loPI   C2A 3192  10.276  11.279   9.483 -0.3153  0.1377  0.1407
  200loPI   C3A 3193  10.490  11.403   9.265  0.1741 -0.0689  0.1753
  200loPI   C4A 3194  10.531  11.491   8.893  0.0275  0.1279  0.0444
  200loPI   C5A 3195  10.742  11.528   8.507  0.0978 -0.2519 -0.2280
  200loPI   C6A 3196  11.178  11.429   8.585 -0.1579  0.1146  0.0196
  200loPI   C1B 3197  10.276  10.827  10.150 -0.0123  0.0212 -0.0377
  200loPI   C2B 3198  10.224  10.805   9.682  0.1254 -0.1035 -0.0118
  200loPI   C3B 3199  10.211  10.652   9.229 -0.0567  0.2068 -0.2745
  200loPI   C4B 3200  10.273  10.520   8.751 -0.3873 -0.1208  0.2749
  201loPI    C1 3201  17.637   9.714  10.586  0.1230  0.0797  0.1940
  201loPI    C2 3202  17.497  10.084  10.523  0.0117  0.0030 -0.0167
  201loPI    C3 3203  17.368   9.872  10.838 -0.2070  0.0038 -0.1038
  201loPI   PO4 3204  17.678   9.576  10.368  0.0328 -0.1494 -0.4807
  201loPI   GL1 3205  17.573   9.593   9.925  0.1495 -0.0782  0.3605
  201loPI   GL2 3206  17.699   9.908   9.964  0.1707 -0.2513  0.4304
  201loPI   C1A 3207  17.675   9.495   9.508 -0.0410 -0.1017 -0.2680
  201loPI   C2A 3208  17.561   9.421   9.088  0.1606  0.0834 -0.1922
  201loPI   C3A 3209  17.866   9.319   8.677 -0.2191  0.1102 -0.4499
  201loPI   C4A 3210  18.156   9.269   8.388 -0.1163 -0.1508 -0.2232
  201loPI   C5A 3211  18.586   9.346   8.236 -0.2457 -0.0581  0.4175
  201loPI   C6A 3212  18.927   9.174   8.298  0.1564 -0.0437  0.1073
  201loPI   C1B 3213  17.907  10.056   9.531 -0.2998  0.1422 -0.3678
  201loPI   C2B 3214  17.972  10.211   9.045 -0.2534 -0.0302  0.0493
  201loPI   C3B 3215  17.731  10.289   8.542  0.1191  0.4437 -0.0718
  201loPI   C4B 3216  17.395  10.267   8.299  0.3745 -0.1754 -0.0391
  202loPI    C1 3217   5.962  11.606  10.864 -0.0308  0.2650  0.0198
  202loPI    C2 3218   5.903  11.885  11.144 -0.3319  0.0099  0.2173
  202loPI    C3 3219   5.897  11.497  11.243 -0.1856 -0.0770 -0.1000
  202loPI   PO4 3220   6.145  11.754  10.748 -0.3617  0.1811 -0.2163
  202loPI   GL1 3221   6.440  11.905  10.353  0.0381  0.0062  0.0425
  202loPI   GL2 3222   6.773  12.123  10.413 -0.3174 -0.0541  0.1426
  202loPI   C1A 3223   6.417  11.781   9.892  0.2810 -0.0560  0.1418
  202loPI   C2A 3224   6.264  11.565   9.484  0.1519  0.2169 -0.2206
  202loPI   C3A 3225   6.141  11.445   9.056 -0.0327 -0.4394 -0.0588
  202loPI   C4A 3226   6.098  11.232   8.719 -0.1212  0.0881 -0.1051
  202loPI   C5A 3227   6.019  11.503   8.268  0.0518  0.4365  0.0278
  202loPI   C6A 3228   5.870  11.636   7.971  0.1277  0.1970  0.2443
  202loPI   C1B 3229   6.873  11.851  10.022  0.0227  0.0554 -0.2807
  202loPI   C2B 3230   6.873  11.792   9.589  0.2515 -0.0235  0.1352
  202loPI   C3B 3231   6.981  11.824   9.156 -0.2293 -0.3196 -0.0876
  202loPI   C4B 3232   7.307  11.780   8.818  0.4029 -0.4284 -0.2345
  203loPI    C1 3233  15.281  15.900  10.787  0.0317 -0.3189 -0.1574
  203loPI    C2 3234  15.570  15.691  10.604  0.2224  0.0667 -0.3096
  203loPI    C3 3235  15.666  15.984  10.859 -0.0414 -0.0861 -0.0277
  203loPI   PO4 3236  15.145  16.031  10.651 -0.1213  0.0714 -0.4606
  203loPI   GL1 3237  15.329  16.196  10.365  0.2660  0.0596  0.1240
  203loPI   GL2 3238  15.283  16.514  10.344  0.0884  0.0781  0.0830
  203loPI   C1A 3239  15.297  16.057   9.919 -0.3477 -0.0964  0.0403
  203loPI   C2A 3240  15.195  16.060   9.493  0.0591 -0.0893  0.3389
  203loPI   C3A 3241  15.216  16.133   9.088 -0.1836 -0.1663 -0.0951
  203loPI   C4A 3242  14.897  15.900   8.860 -0.0694 -0.0893  0.3043
  203loPI   C5A 3243  14.854  15.758   8.405  0.1893 -0.1182  0.0268
  203loPI   C6A 3244  15.253  15.639   8.318 -0.2398 -0.0248 -0.2386
  203loPI   C1B 3245  14.960  16.517  10.061  0.0405  0.1091 -0.2277
  203loPI   C2B 3246  14.998  16.507   9.614  0.2743  0.1779 -0.1034
  203loPI   C3B 3247  14.909  16.553   9.133  0.1434  0.0650  0.0159
  203loPI   C4B 3248  14.976  16.375   8.739 -0.2169  0.2503  0.0613
  204loPI    C1 3249  10.796   7.948  11.206 -0.0580 -0.1359 -0.0314
  204loPI    C2 3250  11.065   7.774  11.446 -0.2408 -0.2528  0.0915
  204loPI    C3 3251  10.677   7.682  11.480 -0.3302  0.1074  0.0921
  204loPI   PO4 3252  10.976   7.946  10.966 -0.4737 -0.1774 -0.1244
  204loPI   GL1 3253  11.040   8.113  10.512  0.2798  0.0886  0.2785
  204loPI   GL2 3254  11.075   8.334  10.587 -0.0987  0.1189  0.0596
  204loPI   C1A 3255  11.098   8.120  10.033 -0.1337 -0.1852  0.2523
  204loPI   C2A 3256  10.983   8.143   9.616 -0.1334 -0.1335 -0.2737
  204loPI   C3A 3257  10.884   8.241   9.306  0.0389  0.0211 -0.2028
  204loPI   C4A 3258  10.764   8.294   8.972  0.2290  0.0133 -0.0089
  204loPI   C5A 3259  10.946   8.552   8.611 -0.4121 -0.1194  0.0256
  204loPI   C6A 3260  11.402   8.641   8.446 -0.1591  0.0273 -0.0667
  204loPI   C1B 3261  11.278   8.567  10.213  0.1308  0.0927 -0.1594
  204loPI   C2B 3262  11.218   8.531   9.756  0.1469  0.1150 -0.1546
  204loPI   C3B 3263  11.223   8.595   9.337  0.0242  0.1373 -0.2169
  204loPI   C4B 3264  11.243   8.791   8.904  0.1400 -0.0708 -0.1708
  205loPI    C1 3265  14.093  11.710  11.036 -0.0464 -0.1158 -0.0009
  205loPI    C2 3266  14.105  11.600  11.420  0.2317  0.0973  0.0551
  205loPI    C3 3267  14.258  11.952  11.309  0.0707  0.0774 -0.2390
  205loPI   PO4 3268  13.907  11.520  10.904  0.4921 -0.2714 -0.2419
  205loPI   GL1 3269  13.996  11.237  10.536  0.4111  0.0214 -0.1005
  205loPI   GL2 3270  13.684  11.321  10.535  0.1522 -0.0604 -0.0136
  205loPI   C1A 3271  14.104  11.150  10.114 -0.0828  0.1922  0.0324
  205loPI   C2A 3272  14.163  11.122   9.664  0.2646  0.0242  0.4155
  205loPI   C3A 3273  14.205  11.064   9.180  0.0297  0.3264  0.1531
  205loPI   C4A 3274  13.969  11.165   8.825 -0.1378 -0.1088  0.1732
  205loPI   C5A 3275  13.872  11.030   8.475  0.1720 -0.0951  0.1552
  205loPI   C6A 3276  13.830  10.788   8.167 -0.2418 -0.0895  0.1736
  205loPI   C1B 3277  13.608  11.356  10.124  0.0743  0.0596 -0.1617
  205loPI   C2B 3278  13.647  11.302   9.705 -0.2062 -0.0631  0.1757
  205loPI   C3B 3279  13.670  11.200   9.301  0.0950  0.0515 -0.0638
  205loPI   C4B 3280  13.389  11.180   8.918 -0.0035  0.0127 -0.0676
  206loPI    C1 3281  13.242  16.624  11.169 -0.1363 -0.1435  0.1628
  206loPI    C2 3282  13.437  16.959  11.265 -0.2866  0.0408 -0.1612
  206loPI    C3 3283  13.492  16.628  11.481  0.0375  0.2106  0.0244
  206loPI   PO4 3284  13.229  16.544  10.929 -0.1492 -0.0880 -0.0204
  206loPI   GL1 3285  13.382  16.528  10.518  0.1991  0.0526  0.0997
  206loPI   GL2 3286  13.059  16.730  10.447 -0.1593  0.0576 -0.1727
  206loPI   C1A 3287  13.619  16.260  10.260 -0.2701 -0.0103 -0.1486
  206loPI   C2A 3288  13.632  16.199   9.831 -0.4861  0.3808 -0.1051
  206loPI   C3A 3289  13.582  16.224   9.392  0.0869 -0.0692 -0.0156
  206loPI   C4A 3290  13.501  16.392   8.984  0.1416  0.2916 -0.1067
  206loPI   C5A 3291  13.232  16.334   8.705 -0.0547 -0.3054 -0.3512
  206loPI   C6A 3292  13.127  16.256   8.333  0.1218 -0.0038 -0.1345
  206loPI   C1B 3293  12.982  16.867  10.059  0.0465  0.0886  0.3047
  206loPI   C2B 3294  12.889  17.028   9.717  0.2860 -0.1030  0.1653
  206loPI   C3B 3295  12.690  17.015   9.235  0.4594  0.0813 -0.0674
  206loPI   C4B 3296  12.670  17.249   8.871  0.0698  0.3543 -0.0547
  207loPI    C1 3297  10.845   1.846  11.232  0.3363  0.0066  0.0021
  207loPI    C2 3298  10.982   2.045  11.551 -0.0398  0.1563  0.0750
  207loPI    C3 3299  10.661   1.809  11.585  0.2417 -0.2589 -0.0732
  207loPI   PO4 3300  10.773   2.027  11.067 -0.0566 -0.2848  0.0446
  207loPI   GL1 3301  10.514   2.013  10.699  0.0607 -0.3321 -0.1459
  207loPI   GL2 3302  10.320   2.247  10.566  0.1782  0.0324  0.0981
  207loPI   C1A 3303  10.487   1.840  10.324  0.4080 -0.1700  0.0048
  207loPI   C2A 3304  10.394   1.814   9.904 -0.0333 -0.2141 -0.1403
  207loPI   C3A 3305  10.269   1.854   9.583 -0.0164 -0.1149  0.0941
  207loPI   C4A 3306  10.277   1.738   9.189  0.0232 -0.1042 -0.0936
  207loPI   C5A 3307  10.185   1.838   8.829 -0.1207 -0.2034 -0.2259
  207loPI   C6A 3308   9.999   2.161   8.574 -0.0889  0.3475  0.3847
  207loPI   C1B 3309  10.080   2.177  10.167 -0.0577  0.2062 -0.2324
  207loPI   C2B 3310   9.879   2.195   9.768  0.2647  0.0988 -0.0341
  207loPI   C3B 3311   9.853   2.131   9.382  0.0142 -0.0825 -0.3617
  207loPI   C4B 3312   9.763   2.194   8.988  0.0681 -0.2698 -0.2046
  208loPI    C1 3313   6.806   7.962  10.822 -0.0017 -0.1972  0.1492
  208loPI    C2 3314   7.088   7.894  11.098  0.0133  0.1005  0.2117
  208loPI    C3 3315   6.702   7.895  11.203 -0.0006 -0.0977  0.1674
  208loPI   PO4 3316   6.864   8.202  10.669  0.4822 -0.1385  0.1278
  208loPI   GL1 3317   6.924   8.530  10.407  0.1238  0.1507 -0.0212
  208loPI   GL2 3318   7.045   8.300  10.182 -0.1115  0.1781 -0.2626
  208loPI   C1A 3319   6.635   8.578  10.023  0.0644 -0.2893 -0.0980
  208loPI   C2A 3320   6.594   8.611   9.619 -0.0565 -0.1005  0.0340
  208loPI   C3A 3321   6.515   8.565   9.173  0.0250 -0.1669 -0.3068
  208loPI   C4A 3322   6.389   8.535   8.785 -0.1419  0.0088  0.0684
  208loPI   C5A 3323   6.118   8.596   8.459 -0.1371 -0.0067  0.1576
  208loPI   C6A 3324   6.181   8.792   8.073  0.0946 -0.0029  0.1285
  208loPI   C1B 3325   6.978   8.258   9.709 -0.1802  0.1195  0.0073
  208loPI   C2B 3326   6.999   8.528   9.296  0.0838  0.0217 -0.3463
  208loPI   C3B 3327   6.962   8.499   8.870 -0.1952 -0.2754 -0.0303
  208loPI   C4B 3328   6.734   8.680   8.462  0.1329  0.0442  0.1362
  209loPI    C1 3329  16.067   5.984  10.799  0.3198  0.3819  0.1852
  209loPI    C2 3330  15.814   6.102  11.086  0.0723  0.0389  0.1140
  209loPI    C3 3331  15.948   5.725  11.080  0.2760  0.1122 -0.0771
  209loPI   PO4 3332  16.056   6.224  10.646  0.1080  0.0840  0.2836
  209loPI   GL1 3333  15.976   6.485  10.314  0.3518  0.1646 -0.2994
  209loPI   GL2 3334  15.714   6.608  10.310  0.1447 -0.2081 -0.1921
  209loPI   C1A 3335  16.203   6.571  10.084  0.0576  0.1826 -0.0944
  209loPI   C2A 3336  16.430   6.501   9.703  0.1952 -0.3013  0.1694
  209loPI   C3A 3337  16.443   6.377   9.265  0.0162  0.0877 -0.0682
  209loPI   C4A 3338  16.168   6.181   8.849  0.4508  0.2225  0.2889
  209loPI   C5A 3339  15.880   6.243   8.518  0.1473 -0.0689  0.2469
  209loPI   C6A 3340  15.961   6.278   8.027  0.0920  0.2164 -0.2065
  209loPI   C1B 3341  15.756   6.830   9.989 -0.1873  0.0131  0.0359
  209loPI   C2B 3342  15.623   6.931   9.568 -0.0003 -0.2035 -0.0462
  209loPI   C3B 3343  15.619   6.965   9.160 -0.0335  0.0990 -0.2736
  209loPI   C4B 3344  15.758   6.585   8.809  0.5315 -0.1122  0.0539
  210loPI    C1 3345  13.123  11.784  10.921  0.1488 -0.0722 -0.1296
  210loPI    C2 3346  12.934  12.135  10.891  0.1510 -0.0422  0.1743
  210loPI    C3 3347  12.746  11.798  10.788  0.0029  0.0079  0.2773
  210loPI   PO4 3348  13.358  11.827  10.840 -0.0119 -0.1664  0.2277
  210loPI   GL1 3349  13.355  12.042  10.390 -0.0914 -0.2848  0.0375
  210loPI   GL2 3350  13.041  11.852  10.420 -0.1003 -0.1464  0.4805
  210loPI   C1A 3351  13.477  11.825   9.971 -0.0168 -0.0254  0.1506
  210loPI   C2A 3352  13.474  11.698   9.512 -0.2050 -0.0156 -0.1444
  210loPI   C3A 3353  13.413  11.614   9.110 -0.2324 -0.0441  0.1084
  210loPI   C4A 3354  13.288  11.733   8.651 -0.2448 -0.0422  0.0888
  210loPI   C5A 3355  13.104  11.658   8.290  0.2940 -0.0858 -0.0663
  210loPI   C6A 3356  13.017  11.259   8.205 -0.0674 -0.0262  0.2175
  210loPI   C1B 3357  12.916  11.913  10.000  0.0502  0.0699 -0.0670
  210loPI   C2B 3358  12.727  12.084   9.592 -0.0783  0.0494  0.0939
  210loPI   C3B 3359  12.768  12.291   9.177 -0.1631  0.2897 -0.0537
  210loPI   C4B 3360  12.834  12.479   8.803  0.0557  0.0157 -0.1402
  211loPI    C1 3361   2.058  13.251  10.987  0.0959 -0.1259  0.0364
  211loPI    C2 3362   1.840  13.109  11.291  0.0333  0.0087  0.0553
  211loPI    C3 3363   2.186  12.933  11.193 -0.1920 -0.3493 -0.1216
  211loPI   PO4 3364   1.843  13.472  10.881  0.0383 -0.0321  0.1447
  211loPI   GL1 3365   1.788  13.447  10.540 -0.0181  0.1076  0.0139
  211loPI   GL2 3366   1.571  13.285  10.533 -0.1161  0.1364  0.0577
  211loPI   C1A 3367   1.924  13.600  10.208  0.1631 -0.3492 -0.1212
  211loPI   C2A 3368   1.923  13.647   9.770  0.1534 -0.1086 -0.1530
  211loPI   C3A 3369   1.946  13.812   9.359  0.0038  0.0607 -0.2032
  211loPI   C4A 3370   2.153  13.732   8.971  0.1544 -0.3094 -0.2143
  211loPI   C5A 3371   2.412  13.964   8.656  0.0755 -0.1809  0.1859
  211loPI   C6A 3372   2.802  14.125   8.513 -0.2483 -0.0096 -0.1596
  211loPI   C1B 3373   1.530  13.355  10.055 -0.3620 -0.3205  0.1518
  211loPI   C2B 3374   1.546  13.407   9.575  0.0380 -0.1195  0.3292
  211loPI   C3B 3375   1.469  13.527   9.190  0.0973 -0.2329 -0.1360
  211loPI   C4B 3376   1.620  13.534   8.752 -0.0488  0.0376  0.1127
  212loPI    C1 3377  15.855   3.375  11.086 -0.2972 -0.0696  0.1791
  212loPI    C2 3378  16.056   3.114  11.312 -0.0697 -0.1057 -0.0607
  212loPI    C3 3379  15.660   3.149  11.352 -0.0488 -0.1998  0.2531
  212loPI   PO4 3380  15.958   3.353  10.821  0.3237  0.1409 -0.3517
  212loPI   GL1 3381  16.186   3.448  10.443 -0.1833 -0.2715 -0.2781
  212loPI   GL2 3382  16.105   3.710  10.296 -0.1455 -0.1487  0.1270
  212loPI   C1A 3383  16.452   3.318  10.093 -0.1579  0.0586 -0.2483
  212loPI   C2A 3384  16.503   3.184   9.686  0.0375 -0.0634 -0.3543
  212loPI   C3A 3385  16.439   3.062   9.238  0.0419 -0.0767  0.0701
  212loPI   C4A 3386  16.369   3.057   8.802 -0.2844 -0.1633 -0.0806
  212loPI   C5A 3387  16.272   2.887   8.408  0.1044  0.0165 -0.0288
  212loPI   C6A 3388  15.871   2.956   8.146  0.1174 -0.1469  0.0949
  212loPI   C1B 3389  16.009   3.439   9.931 -0.0730  0.3112 -0.1198
  212loPI   C2B 3390  16.002   3.342   9.472  0.2283 -0.0407 -0.0920
  212loPI   C3B 3391  15.711   3.494   9.155 -0.4312 -0.1305 -0.1272
  212loPI   C4B 3392  15.634   3.660   8.754  0.1338  0.0902 -0.1256
  213loPI    C1 3393   8.825   2.437  11.018 -0.0640 -0.1326 -0.0391
  213loPI    C2 3394   8.831   2.668  11.344 -0.0533  0.0363 -0.1575
  213loPI    C3 3395   8.590   2.349  11.329 -0.0007 -0.0148  0.0430
  213loPI   PO4 3396   8.843   2.604  10.879  0.0376  0.2478 -0.0493
  213loPI   GL1 3397   9.041   2.675  10.564 -0.1797  0.1666  0.1608
  213loPI   GL2 3398   9.080   2.400  10.363 -0.0221  0.3117 -0.1181
  213loPI   C1A 3399   9.166   2.896  10.170 -0.0312 -0.1279 -0.5744
  213loPI   C2A 3400   9.044   2.792   9.678 -0.0748 -0.1151 -0.2873
  213loPI   C3A 3401   9.008   2.859   9.196  0.1201  0.1370 -0.0216
  213loPI   C4A 3402   8.984   2.869   8.844 -0.0958 -0.1057  0.2559
  213loPI   C5A 3403   8.871   3.047   8.430  0.1359  0.3460  0.2952
  213loPI   C6A 3404   9.102   3.105   8.096  0.0290 -0.1161  0.1188
  213loPI   C1B 3405   8.670   2.557  10.164  0.0654  0.2505  0.1833
  213loPI   C2B 3406   8.546   2.499   9.832  0.2717 -0.0831  0.1064
  213loPI   C3B 3407   8.386   2.385   9.562  0.0274 -0.1345 -0.0959
  213loPI   C4B 3408   8.369   2.338   9.134 -0.0386 -0.0756 -0.2440
  214loPI    C1 3409   7.204   2.085  10.911  0.1443  0.0867  0.1156
  214loPI    C2 3410   7.122   1.903  11.258  0.2598  0.1207  0.1612
  214loPI    C3 3411   6.830   2.081  11.051  0.0828 -0.3894 -0.0433
  214loPI   PO4 3412   7.359   1.873  10.717  0.2696 -0.4039 -0.1314
  214loPI   GL1 3413   7.360   1.879  10.336 -0.2002  0.0857  0.1004
  214loPI   GL2 3414   7.516   2.093  10.244  0.0491  0.2112  0.1406
  214loPI   C1A 3415   7.305   1.670   9.962 -0.0421 -0.2613 -0.1393
  214loPI   C2A 3416   7.115   1.570   9.666  0.0820 -0.0547  0.1902
  214loPI   C3A 3417   6.802   1.470   9.429  0.1294 -0.0677 -0.0418
  214loPI   C4A 3418   6.570   1.677   9.144  0.0762 -0.1298  0.0875
  214loPI   C5A 3419   6.368   1.803   8.803 -0.0408  0.0875 -0.0800
  214loPI   C6A 3420   6.451   2.211   8.446  0.0237  0.2336  0.2314
  214loPI   C1B 3421   7.531   2.058   9.739 -0.2041 -0.1150  0.1522
  214loPI   C2B 3422   7.510   1.778   9.435  0.2258 -0.2582  0.1283
  214loPI   C3B 3423   7.497   1.899   8.974  0.0281 -0.2404 -0.1497
  214loPI   C4B 3424   7.304   2.101   8.709  0.0968  0.2964  0.2294
  215loPI    C1 3425  15.383   5.052  11.046 -0.0820  0.1707 -0.1302
  215loPI    C2 3426  15.030   5.238  11.047 -0.1147  0.1117  0.1006
  215loPI    C3 3427  15.094   4.932  11.296  0.0255 -0.0207 -0.0954
  215loPI   PO4 3428  15.402   4.930  10.738 -0.1472  0.3366 -0.2203
  215loPI   GL1 3429  15.202   4.972  10.390 -0.0830 -0.0125  0.0285
  215loPI   GL2 3430  14.924   4.745  10.318  0.1226 -0.2595  0.1600
  215loPI   C1A 3431  15.325   4.658  10.047 -0.2295 -0.1795 -0.0077
  215loPI   C2A 3432  15.218   4.576   9.715  0.0098  0.4385  0.1097
  215loPI   C3A 3433  15.274   4.619   9.195 -0.0088  0.1640 -0.1478
  215loPI   C4A 3434  15.504   4.755   8.854 -0.1367  0.3070 -0.4401
  215loPI   C5A 3435  15.514   4.940   8.423  0.1839 -0.4244  0.0500
  215loPI   C6A 3436  15.380   4.980   7.991 -0.1679  0.2004 -0.1137
  215loPI   C1B 3437  14.817   4.816   9.889  0.1408  0.3690 -0.0391
  215loPI   C2B 3438  14.823   4.610   9.455 -0.0839 -0.1933  0.2757
  215loPI   C3B 3439  14.801   4.803   9.078  0.5412  0.1507 -0.0872
  215loPI   C4B 3440  14.966   4.843   8.674 -0.0378  0.3043 -0.4688
  216loPI    C1 3441   9.864   9.529  10.997 -0.1864  0.0850 -0.1959
  216loPI    C2 3442   9.569   9.541  11.266 -0.0587 -0.0575 -0.0476
  216loPI    C3 3443   9.935   9.671  11.364  0.0018 -0.1608 -0.1349
  216loPI   PO4 3444   9.711   9.394  10.789 -0.2823 -0.2210  0.1540
  216loPI   GL1 3445   9.787   9.347  10.382  0.1291  0.0175 -0.1360
  216loPI   GL2 3446  10.053   9.461  10.113 -0.0679  0.4146 -0.1728
  216loPI   C1A 3447   9.511   9.523  10.074 -0.0213 -0.0383  0.0605
  216loPI   C2A 3448   9.395   9.673   9.777  0.2777 -0.0282  0.0223
  216loPI   C3A 3449   9.266   9.830   9.424  0.0884 -0.3088  0.1463
  216loPI   C4A 3450   9.192   9.973   8.941 -0.1120 -0.0175  0.1764
  216loPI   C5A 3451   9.366   9.899   8.552 -0.0294  0.0813  0.5016
  216loPI   C6A 3452   9.494   9.622   8.385 -0.3014  0.2269  0.1152
  216loPI   C1B 3453   9.913   9.326   9.660 -0.2679  0.2008 -0.1179
  216loPI   C2B 3454   9.873   9.188   9.331  0.2933  0.1616  0.1081
  216loPI   C3B 3455   9.892   9.189   8.871  0.2742  0.1885 -0.0931
  216loPI   C4B 3456   9.948   9.317   8.469 -0.2680  0.1692  0.1420
  217loPI    C1 3457   0.573  16.782  10.925 -0.1106  0.0582 -0.2056
  217loPI    C2 3458   0.566  16.848  11.319  0.0884 -0.0819 -0.1771
  217loPI    C3 3459   0.488  16.482  11.176  0.1473 -0.0628 -0.2586
  217loPI   PO4 3460   0.504  17.146  10.826 -0.3567 -0.0377 -0.2600
  217loPI   GL1 3461   0.591  17.434  10.456 -0.2849 -0.0872  0.0718
  217loPI   GL2 3462   0.825  17.654  10.353  0.0913  0.1335 -0.1689
  217loPI   C1A 3463   0.836  17.189  10.156  0.0701 -0.1500 -0.0105
  217loPI   C2A 3464   0.845  17.205   9.753 -0.0429 -0.1853 -0.2330
  217loPI   C3A 3465   0.966  17.083   9.321 -0.0451 -0.0458  0.1055
  217loPI   C4A 3466   1.008  17.219   8.909  0.1393  0.0250  0.2876
  217loPI   C5A 3467   1.193  17.379   8.442  0.0377 -0.1961 -0.2630
  217loPI   C6A 3468   0.954  17.674   8.209  0.2269  0.4808  0.1556
  217loPI   C1B 3469   0.576  17.672   9.913  0.0474  0.2160 -0.0785
  217loPI   C2B 3470   0.545  17.583   9.502  0.1871 -0.0180 -0.0640
  217loPI   C3B 3471   0.612  17.373   9.123 -0.0098  0.2902 -0.1597
  217loPI   C4B 3472   0.740  17.495   8.618 -0.0057 -0.1618  0.2047
  218loPI    C1 3473   3.941  17.476  10.678  0.0665  0.0676 -0.0041
  218loPI    C2 3474   4.103  17.729  10.942  0.1438 -0.1488  0.1587
  218loPI    C3 3475   3.710  17.742  10.868  0.1878  0.1979 -0.0367
  218loPI   PO4 3476   4.123  17.274  10.753 -0.0612  0.1057  0.1191
  218loPI   GL1 3477   4.078  17.018  10.410 -0.1201 -0.0863 -0.0436
  218loPI   GL2 3478   3.671  17.046  10.350 -0.1831 -0.0525  0.0681
  218loPI   C1A 3479   4.013  17.211   9.856  0.0815 -0.0133  0.2030
  218loPI   C2A 3480   3.913  17.215   9.488 -0.0833 -0.0874 -0.0985
  218loPI   C3A 3481   4.028  17.159   9.101  0.0279 -0.3145 -0.2976
  218loPI   C4A 3482   4.105  16.884   8.837  0.0190  0.1734 -0.2006
  218loPI   C5A 3483   4.390  16.508   8.667  0.1634 -0.1783 -0.2043
  218loPI   C6A 3484   4.554  16.227   8.568  0.0702  0.1187 -0.0636
  218loPI   C1B 3485   3.719  16.863   9.942  0.0069 -0.0141  0.2508
  218loPI   C2B 3486   3.915  16.686   9.606 -0.0213 -0.0879 -0.0780
  218loPI   C3B 3487   4.020  16.544   9.242  0.0579  0.1192 -0.2789
  218loPI   C4B 3488   4.338  16.305   9.117 -0.2089  0.2240  0.1850
  219loPI    C1 3489   4.347  14.415  10.708 -0.0706  0.1491  0.0075
  219loPI    C2 3490   4.349  14.412  11.108  0.0704 -0.0024  0.0067
  219loPI    C3 3491   4.004  14.370  10.910  0.0456 -0.3263  0.1124
  219loPI   PO4 3492   4.614  14.248  10.674  0.3173 -0.3618 -0.0427
  219loPI   GL1 3493   4.678  14.113  10.292  0.0840  0.0383  0.0201
  219loPI   GL2 3494   4.479  14.032  10.237 -0.2023 -0.3289 -0.0775
  219loPI   C1A 3495   4.860  14.118   9.905 -0.2271  0.0299  0.1949
  219loPI   C2A 3496   4.940  13.954   9.502 -0.0914  0.0200  0.3104
  219loPI   C3A 3497   4.756  14.038   9.148 -0.3289 -0.2265  0.1867
  219loPI   C4A 3498   4.677  13.878   8.875 -0.3356 -0.2019  0.4782
  219loPI   C5A 3499   4.515  13.958   8.491 -0.2601  0.0055  0.0953
  219loPI   C6A 3500   4.560  14.404   8.354 -0.0256 -0.0529 -0.0478
  219loPI   C1B 3501   4.332  13.905   9.889 -0.1062  0.0052  0.0025
  219loPI   C2B 3502   4.405  13.826   9.543 -0.0443 -0.0927 -0.1950
  219loPI   C3B 3503   4.252  13.914   9.195  0.2668  0.1186 -0.0536
  219loPI   C4B 3504   4.077  13.963   8.749  0.0028  0.0137 -0.0585
  220loPI    C1 3505   7.216  15.301  10.862  0.0468  0.0792  0.1049
  220loPI    C2 3506   7.196  15.691  10.949 -0.0804  0.1517 -0.2336
  220loPI    C3 3507   7.489  15.553  10.714 -0.0175  0.0367 -0.0890
  220loPI   PO4 3508   6.999  15.250  10.698  0.0011  0.1708  0.2186
  220loPI   GL1 3509   6.880  15.051  10.324 -0.1021  0.1095  0.1087
  220loPI   GL2 3510   6.706  14.819  10.390  0.0657 -0.1321 -0.1729
  220loPI   C1A 3511   6.969  15.299  10.002  0.0874 -0.3648 -0.1373
  220loPI   C2A 3512   7.026  15.230   9.613 -0.2027 -0.1319  0.1106
  220loPI   C3A 3513   6.965  15.280   9.277  0.2142 -0.1006 -0.1552
  220loPI   C4A 3514   7.059  15.283   8.896  0.1238  0.1561  0.0481
  220loPI   C5A 3515   7.172  15.583   8.540  0.4434 -0.0240  0.0540
  220loPI   C6A 3516   7.472  15.859   8.475 -0.1513  0.0392 -0.3032
  220loPI   C1B 3517   6.924  14.705   9.922 -0.1436 -0.1044 -0.0781
  220loPI   C2B 3518   6.961  14.767   9.339  0.1563 -0.0675  0.0265
  220loPI   C3B 3519   6.969  14.778   8.937  0.0604 -0.0326 -0.0521
  220loPI   C4B 3520   6.982  14.803   8.456 -0.1475  0.1926  0.0534
  221loPI    C1 3521   8.191  13.663  10.921  0.0636  0.1109  0.0271
  221loPI    C2 3522   8.324  14.001  11.090 -0.1126  0.2590 -0.1254
  221loPI    C3 3523   8.180  13.706  11.319  0.2885  0.1750  0.0277
  221loPI   PO4 3524   8.115  13.714  10.714 -0.1702  0.2726 -0.2431
  221loPI   GL1 3525   8.188  13.752  10.340 -0.0005 -0.1959  0.2007
  221loPI   GL2 3526   8.379  13.507  10.284 -0.0664  0.0264  0.0616
  221loPI   C1A 3527   8.138  13.905  10.038 -0.1378 -0.2917  0.3313
  221loPI   C2A 3528   8.243  14.052   9.577  0.0156  0.0436 -0.0434
  221loPI   C3A 3529   8.119  14.184   9.219  0.1774  0.1697 -0.2258
  221loPI   C4A 3530   7.808  14.097   8.957  0.1394  0.0980  0.3388
  221loPI   C5A 3531   7.418  14.038   8.806 -0.1261  0.1866  0.0305
  221loPI   C6A 3532   7.222  13.672   8.644 -0.2882 -0.3311 -0.5986
  221loPI   C1B 3533   8.101  13.269  10.216 -0.1294  0.0783 -0.0391
  221loPI   C2B 3534   7.693  13.319   9.856  0.2981  0.2325 -0.1649
  221loPI   C3B 3535   7.408  13.591   9.711 -0.1502  0.1249  0.0690
  221loPI   C4B 3536   7.166  13.980   9.521  0.0900  0.1039 -0.1317
  222loPI    C1 3537  10.603  13.628  11.004 -0.1292 -0.0811  0.1641
  222loPI    C2 3538  10.930  13.402  11.050  0.0138  0.1120  0.1053
  222loPI    C3 3539  10.641  13.393  11.326  0.1060  0.0026  0.1995
  222loPI   PO4 3540  10.587  13.622  10.713 -0.4029 -0.2379 -0.0302
  222loPI   GL1 3541  10.546  13.340  10.368  0.0250  0.1715  0.2037
  222loPI   GL2 3542  10.755  13.134  10.232  0.0478  0.3459 -0.0161
  222loPI   C1A 3543  10.450  13.494  10.038 -0.1112 -0.3325  0.5585
  222loPI   C2A 3544  10.506  13.572   9.586 -0.1088  0.2639  0.1361
  222loPI   C3A 3545  10.515  13.464   9.175 -0.0341  0.1813  0.2274
  222loPI   C4A 3546  10.662  13.270   8.955 -0.1225  0.1136  0.0705
  222loPI   C5A 3547  10.846  13.318   8.618 -0.1136 -0.0525  0.0008
  222loPI   C6A 3548  11.052  13.651   8.441  0.0451  0.0937  0.0252
  222loPI   C1B 3549  10.931  13.256   9.803 -0.2058  0.0190 -0.0542
  222loPI   C2B 3550  10.850  13.211   9.432 -0.0592 -0.3656 -0.0634
  222loPI   C3B 3551  11.177  13.138   9.128  0.0436 -0.2141  0.0778
  222loPI   C4B 3552  11.190  12.932   8.730 -0.0297 -0.1117 -0.1468
  223loPI    C1 3553   1.698  12.434  10.945 -0.3430 -0.0466  0.0277
  223loPI    C2 3554   1.955  12.209  11.153  0.0066 -0.0581 -0.4017
  223loPI    C3 3555   1.887  12.587  11.262 -0.0769 -0.1657 -0.0700
  223loPI   PO4 3556   1.708  12.384  10.700  0.0648  0.1485  0.1789
  223loPI   GL1 3557   1.719  12.621  10.380 -0.0776  0.0279  0.2630
  223loPI   GL2 3558   2.059  12.429  10.357 -0.0651  0.1871  0.1618
  223loPI   C1A 3559   1.783  12.552   9.844 -0.0520  0.0177  0.0376
  223loPI   C2A 3560   1.927  12.627   9.421 -0.1097 -0.0324  0.1297
  223loPI   C3A 3561   1.982  12.887   8.988  0.0566  0.3831  0.0152
  223loPI   C4A 3562   1.900  12.701   8.540 -0.1725 -0.0959  0.2595
  223loPI   C5A 3563   1.997  12.309   8.372  0.1528  0.0622  0.0423
  223loPI   C6A 3564   1.908  11.952   8.183 -0.1429  0.0486  0.0037
  223loPI   C1B 3565   2.259  12.157   9.988  0.1465 -0.0864  0.0226
  223loPI   C2B 3566   2.393  11.920   9.673  0.0360 -0.3708  0.1375
  223loPI   C3B 3567   2.345  11.875   9.258 -0.0636  0.2367  0.1630
  223loPI   C4B 3568   2.302  11.512   8.972 -0.0193 -0.2347  0.3908
  224loPI    C1 3569   8.112   0.661  11.128 -0.0346 -0.2885 -0.0896
  224loPI    C2 3570   7.878   0.485  11.401 -0.0587  0.0361  0.1044
  224loPI    C3 3571   8.272   0.514  11.463 -0.0465 -0.0016  0.0451
  224loPI   PO4 3572   7.935   0.914  11.049 -0.0148 -0.2653  0.1718
  224loPI   GL1 3573   7.914   1.112  10.706  0.0436 -0.1835 -0.3077
  224loPI   GL2 3574   7.604   0.863  10.606 -0.0738 -0.2591 -0.1459
  224loPI   C1A 3575   8.076   1.263  10.299  0.0115  0.0667  0.0166
  224loPI   C2A 3576   8.073   1.179   9.845  0.1469 -0.1853 -0.2541
  224loPI   C3A 3577   7.990   1.077   9.390  0.2478 -0.1461  0.0288
  224loPI   C4A 3578   7.911   1.081   8.924 -0.2163 -0.1782 -0.1632
  224loPI   C5A 3579   7.577   0.906   8.595  0.0989 -0.2571  0.2845
  224loPI   C6A 3580   7.242   0.705   8.341 -0.0606 -0.4174  0.2235
  224loPI   C1B 3581   7.836   0.849  10.218  0.3723  0.0105  0.2666
  224loPI   C2B 3582   7.682   0.839   9.795  0.2386  0.0463 -0.0466
  224loPI   C3B 3583   7.440   0.801   9.454 -0.0976 -0.1943  0.0534
  224loPI   C4B 3584   7.398   0.774   9.048 -0.1125  0.1082 -0.0994
  225loPI    C1 3585   2.501  12.156  11.262  0.1738 -0.0007  0.1234
  225loPI    C2 3586   2.355  12.503  11.398  0.0558  0.0637 -0.1593
  225loPI    C3 3587   2.248  12.159  11.571  0.1132  0.1612  0.0736
  225loPI   PO4 3588   2.464  12.177  11.027 -0.0304 -0.1053 -0.1787
  225loPI   GL1 3589   2.561  12.286  10.547 -0.0125  0.0165 -0.0551
  225loPI   GL2 3590   2.515  11.955  10.354  0.2386  0.3201  0.2961
  225loPI   C1A 3591   2.890  12.361  10.325 -0.2537  0.0914 -0.0190
  225loPI   C2A 3592   2.997  12.436   9.932  0.2996 -0.1989  0.3261
  225loPI   C3A 3593   2.765  12.381   9.561 -0.0955  0.1309  0.1233
  225loPI   C4A 3594   2.652  12.290   9.152  0.2648  0.3076 -0.0299
  225loPI   C5A 3595   2.348  12.140   8.867 -0.2305 -0.1026  0.1072
  225loPI   C6A 3596   1.992  11.933   8.718  0.2536  0.0874  0.2188
  225loPI   C1B 3597   2.723  11.999  10.034  0.2147 -0.0843 -0.0797
  225loPI   C2B 3598   2.871  11.918   9.571  0.0685  0.0861  0.1882
  225loPI   C3B 3599   2.857  11.806   9.171 -0.2575 -0.1754  0.2420
  225loPI   C4B 3600   2.796  11.640   8.775 -0.0555  0.0726  0.0441
  226loPI    C1 3601   7.289  12.711  10.817  0.0998 -0.2054 -0.0934
  226loPI    C2 3602   6.957  12.491  10.852  0.0323 -0.1000 -0.0662
  226loPI    C3 3603   7.159  12.602  11.179  0.0099 -0.0364 -0.0739
  226loPI   PO4 3604   7.238  12.840  10.577  0.3820 -0.2227 -0.2855
  226loPI   GL1 3605   7.047  12.795  10.184  0.1254 -0.0639 -0.0020
  226loPI   GL2 3606   6.863  12.611  10.366 -0.1652 -0.0496  0.0860
  226loPI   C1A 3607   6.945  12.671   9.686 -0.0802 -0.1475 -0.4546
  226loPI   C2A 3608   7.018  12.728   9.280  0.3030  0.2122 -0.0177
  226loPI   C3A 3609   6.742  12.845   8.957 -0.0301 -0.1031 -0.1443
  226loPI   C4A 3610   6.538  13.284   8.859 -0.0495 -0.0719 -0.2169
  226loPI   C5A 3611   6.682  13.401   8.600  0.3001 -0.2282  0.0644
  226loPI   C6A 3612   7.065  13.233   8.676 -0.3233  0.2531  0.0967
  226loPI   C1B 3613   6.645  12.275   9.999 -0.1679  0.0746  0.2179
  226loPI   C2B 3614   6.689  12.234   9.701  0.1581  0.1157 -0.1745
  226loPI   C3B 3615   6.815  12.286   9.348 -0.2470  0.2911 -0.1587
  226loPI   C4B 3616   6.605  12.286   8.975  0.2492  0.3457 -0.2298
  227loPI    C1 3617   6.305   9.348  11.252 -0.1008  0.0594 -0.1392
  227loPI    C2 3618   6.451   9.664  11.054  0.0288  0.0985  0.0169
  227loPI    C3 3619   6.265   9.716  11.405  0.0618  0.0004  0.0494
  227loPI   PO4 3620   6.336   9.167  11.048 -0.1758 -0.1162 -0.0214
  227loPI   GL1 3621   6.153   9.085  10.674 -0.0785  0.1508 -0.0003
  227loPI   GL2 3622   5.908   9.129  10.462 -0.2768 -0.3333  0.1649
  227loPI   C1A 3623   6.404   8.942  10.272  0.2723  0.1802  0.0990
  227loPI   C2A 3624   6.349   9.047   9.825  0.0757  0.0020  0.0604
  227loPI   C3A 3625   6.354   9.075   9.407 -0.1282 -0.4022  0.3066
  227loPI   C4A 3626   6.276   9.014   8.983 -0.2968  0.0848  0.1258
  227loPI   C5A 3627   5.927   9.006   8.692 -0.1109 -0.2343 -0.3159
  227loPI   C6A 3628   5.718   9.031   8.291 -0.4160  0.1694  0.1312
  227loPI   C1B 3629   5.791   9.226  10.053  0.0004 -0.1133 -0.2229
  227loPI   C2B 3630   5.851   9.085   9.718 -0.0268  0.3173 -0.0142
  227loPI   C3B 3631   5.877   8.948   9.302 -0.0801  0.0005 -0.2326
  227loPI   C4B 3632   5.910   8.611   8.978 -0.1098  0.1263  0.1408
  228loPI    C1 3633   3.226  17.778  10.973 -0.2499 -0.0964  0.1995
  228loPI    C2 3634   2.841  17.776  11.084 -0.2201 -0.2299  0.3036
  228loPI    C3 3635   3.120  17.920  11.332 -0.2312  0.1101  0.1243
  228loPI   PO4 3636   3.220  17.702  10.756 -0.1061 -0.0151 -0.0286
  228loPI   GL1 3637   3.391  17.850  10.452 -0.3862 -0.3899  0.3333
  228loPI   GL2 3638   3.513  17.545  10.302 -0.0043 -0.0596 -0.2418
  228loPI   C1A 3639   3.558  18.002  10.062  0.0587 -0.1294  0.0200
  228loPI   C2A 3640   3.464  17.992   9.585 -0.3286  0.5059 -0.3605
  228loPI   C3A 3641   3.350  17.965   9.173 -0.5028 -0.3340 -0.1278
  228loPI   C4A 3642   3.202  17.952   8.835 -0.0752  0.0750 -0.2867
  228loPI   C5A 3643   3.140  17.778   8.469  0.1171  0.0635  0.2236
  228loPI   C6A 3644   2.762  17.520   8.315  0.3013 -0.1345  0.0571
  228loPI   C1B 3645   3.457  17.425   9.925 -0.1657 -0.1307  0.0773
  228loPI   C2B 3646   3.442  17.101   9.590  0.0815 -0.1193  0.0003
  228loPI   C3B 3647   3.610  16.853   9.177 -0.0714  0.3694 -0.0539
  228loPI   C4B 3648   3.656  16.610   8.857  0.2918  0.1621 -0.2173
  229loPI    C1 3649  17.468  14.511  10.582  0.1722 -0.0556  0.0809
  229loPI    C2 3650  17.617  14.346  10.914  0.3395  0.0201  0.0442
  229loPI    C3 3651  17.277  14.556  10.931  0.0991 -0.3629  0.0831
  229loPI   PO4 3652  17.456  14.360  10.419 -0.1216 -0.1558  0.1719
  229loPI   GL1 3653  17.635  14.535  10.048 -0.0135  0.0321  0.2313
  229loPI   GL2 3654  17.947  14.671  10.069 -0.0915 -0.0898  0.1174
  229loPI   C1A 3655  17.279  14.631   9.778  0.2734 -0.0595  0.1241
  229loPI   C2A 3656  17.149  14.626   9.331 -0.0881 -0.2211  0.1029
  229loPI   C3A 3657  17.193  14.654   8.828  0.5162 -0.2202 -0.1388
  229loPI   C4A 3658  17.282  14.536   8.365 -0.0555  0.1252  0.0519
  229loPI   C5A 3659  17.459  14.383   8.010  0.1711  0.0018 -0.1660
  229loPI   C6A 3660  17.610  14.384   7.542  0.1495  0.0159  0.1579
  229loPI   C1B 3661  18.000  14.804   9.610 -0.1910  0.1105  0.0710
  229loPI   C2B 3662  18.286  15.020   9.401 -0.0727  0.0537  0.0527
  229loPI   C3B 3663  18.610  14.891   9.049 -0.3329 -0.0089  0.3067
  229loPI   C4B 3664  18.597  14.943   8.617  0.0982  0.1519  0.0103
  230loPI    C1 3665   0.863   9.200  10.718  0.3468 -0.2075  0.0485
  230loPI    C2 3666   1.148   9.473  10.783  0.0373  0.0670  0.2796
  230loPI    C3 3667   0.998   9.264  11.089 -0.2388  0.1598  0.2112
  230loPI   PO4 3668   0.914   9.126  10.421 -0.0442  0.1670  0.3468
  230loPI   GL1 3669   0.556   9.073  10.082 -0.0223 -0.1339 -0.1751
  230loPI   GL2 3670   0.596   8.766   9.818 -0.2079 -0.1117  0.2509
  230loPI   C1A 3671   0.293   9.182   9.664  0.1301  0.3772 -0.2226
  230loPI   C2A 3672   0.173   9.194   9.262  0.0244  0.3144  0.0864
  230loPI   C3A 3673   0.325   8.996   8.889 -0.1486 -0.1069 -0.2653
  230loPI   C4A 3674   0.413   8.565   8.700  0.3757 -0.2616  0.0540
  230loPI   C5A 3675   0.178   8.325   8.359 -0.1101 -0.5115  0.3520
  230loPI   C6A 3676  -0.062   8.070   8.014  0.2369 -0.2323  0.0110
  230loPI   C1B 3677   0.653   8.994   9.370  0.0237  0.1494  0.1287
  230loPI   C2B 3678   1.019   9.174   9.301 -0.0864  0.2407  0.1188
  230loPI   C3B 3679   1.275   9.196   9.088  0.2649  0.0722 -0.3115
  230loPI   C4B 3680   1.338   9.255   8.702  0.2890 -0.3153  0.0062
  231loPI    C1 3681   4.106   3.028  10.622 -0.1016 -0.1109 -0.1262
  231loPI    C2 3682   3.979   2.651  10.665 -0.1628 -0.0772 -0.0058
  231loPI    C3 3683   4.021   2.886  10.986 -0.0210 -0.0145 -0.0692
  231loPI   PO4 3684   4.289   2.952  10.373  0.0977 -0.1742  0.1337
  231loPI   GL1 3685   4.154   2.962   9.907  0.0908 -0.0325  0.0414
  231loPI   GL2 3686   4.415   2.663   9.964 -0.1621  0.1777 -0.3117
  231loPI   C1A 3687   3.928   3.099   9.606 -0.0917  0.1411  0.0522
  231loPI   C2A 3688   3.695   3.234   9.232 -0.2163 -0.0740  0.0181
  231loPI   C3A 3689   3.417   3.273   8.907  0.2272  0.0245 -0.2462
  231loPI   C4A 3690   3.439   3.132   8.502 -0.0317 -0.0319 -0.2452
  231loPI   C5A 3691   3.249   2.840   8.281  0.2129  0.4523  0.0044
  231loPI   C6A 3692   2.956   2.832   7.984  0.0481  0.1278 -0.0736
  231loPI   C1B 3693   4.567   2.761   9.526 -0.1719 -0.2427  0.1146
  231loPI   C2B 3694   4.577   2.863   9.189 -0.0358 -0.2619  0.2521
  231loPI   C3B 3695   4.400   2.935   8.817 -0.2737 -0.2502 -0.0260
  231loPI   C4B 3696   4.286   3.182   8.354  0.1487  0.1179 -0.2853
  232loPI    C1 3697   3.708   5.526  10.567  0.2710  0.0845 -0.0116
  232loPI    C2 3698   4.049   5.316  10.555  0.1284 -0.1451 -0.1330
  232loPI    C3 3699   3.927   5.481  10.899  0.3056 -0.1536 -0.0649
  232loPI   PO4 3700   3.649   5.698  10.476  0.0291  0.0884 -0.1058
  232loPI   GL1 3701   3.733   5.684  10.032 -0.0801 -0.2493  0.0274
  232loPI   GL2 3702   3.916   5.423  10.080  0.0037 -0.1971  0.0368
  232loPI   C1A 3703   3.797   5.777   9.673  0.0800 -0.0562 -0.1395
  232loPI   C2A 3704   3.619   5.632   9.288 -0.0960 -0.3362 -0.2747
  232loPI   C3A 3705   3.436   5.463   8.943  0.0063 -0.0093  0.1762
  232loPI   C4A 3706   3.310   5.579   8.527  0.0766  0.1000 -0.2028
  232loPI   C5A 3707   3.023   5.632   8.120 -0.2276 -0.3756  0.1193
  232loPI   C6A 3708   2.685   5.903   8.064  0.0891 -0.2606 -0.2504
  232loPI   C1B 3709   3.784   5.206   9.729 -0.1896  0.4305  0.2458
  232loPI   C2B 3710   3.597   5.101   9.449  0.1555  0.2833  0.0748
  232loPI   C3B 3711   3.640   5.041   9.030 -0.4436 -0.1101 -0.1257
  232loPI   C4B 3712   3.627   5.158   8.621  0.2698 -0.0371 -0.0191
  233loPI    C1 3713  16.600  16.039  10.930  0.1236  0.0002  0.1258
  233loPI    C2 3714  16.241  16.075  11.102  0.0253  0.1858 -0.1129
  233loPI    C3 3715  16.571  16.174  11.305 -0.0491 -0.0667  0.1374
  233loPI   PO4 3716  16.472  15.950  10.656 -0.2466  0.1392 -0.2986
  233loPI   GL1 3717  16.592  15.833  10.234 -0.3748  0.2297  0.1045
  233loPI   GL2 3718  16.612  15.410  10.286 -0.2494 -0.1055  0.0120
  233loPI   C1A 3719  16.705  16.098   9.952  0.2235 -0.2260 -0.0967
  233loPI   C2A 3720  16.667  16.144   9.498  0.0854 -0.0783 -0.3130
  233loPI   C3A 3721  16.776  16.032   9.104 -0.3459  0.1754 -0.0114
  233loPI   C4A 3722  16.604  16.001   8.632  0.0535  0.0871  0.0670
  233loPI   C5A 3723  16.584  15.657   8.360 -0.1832  0.0884  0.3545
  233loPI   C6A 3724  16.236  15.426   8.391 -0.0601 -0.1607 -0.1449
  233loPI   C1B 3725  16.613  15.263   9.854  0.1664 -0.0624  0.2843
  233loPI   C2B 3726  16.389  15.196   9.468  0.0561 -0.2699  0.2262
  233loPI   C3B 3727  16.212  14.933   9.152 -0.1003 -0.1858 -0.3735
  233loPI   C4B 3728  16.277  14.589   8.751 -0.1451 -0.1761  0.1538
  234loPI    C1 3729   4.164   8.504  11.169 -0.0801 -0.0116 -0.0604
  234loPI    C2 3730   4.499   8.717  11.221  0.0028 -0.1814  0.1168
  234loPI    C3 3731   4.173   8.799  11.438 -0.0129 -0.1379  0.0772
  234loPI   PO4 3732   4.285   8.339  10.972 -0.0677 -0.0423  0.1138
  234loPI   GL1 3733   4.265   8.421  10.464  0.0359  0.0208 -0.1355
  234loPI   GL2 3734   4.445   8.148  10.488  0.0769 -0.0035 -0.1567
  234loPI   C1A 3735   4.193   8.279  10.055  0.3079  0.1744 -0.0905
  234loPI   C2A 3736   4.070   8.346   9.614  0.0050 -0.0843  0.5439
  234loPI   C3A 3737   4.028   8.235   9.125 -0.0112  0.1641  0.2080
  234loPI   C4A 3738   4.195   8.237   8.693  0.2780 -0.0472 -0.3387
  234loPI   C5A 3739   4.337   8.304   8.178 -0.1846  0.4002 -0.0757
  234loPI   C6A 3740   4.569   8.068   7.870  0.0611  0.1188  0.1368
  234loPI   C1B 3741   4.710   7.925  10.131 -0.1926  0.1057 -0.0098
  234loPI   C2B 3742   4.867   8.005   9.723  0.1939  0.2276 -0.4356
  234loPI   C3B 3743   4.861   7.864   9.297  0.0370  0.0302  0.2102
  234loPI   C4B 3744   4.871   7.768   8.910  0.3596  0.2172  0.0475
  235loPI    C1 3745   3.007   8.188  10.666 -0.0769 -0.0743  0.1288
  235loPI    C2 3746   3.029   8.141  11.063 -0.1234  0.1724  0.1625
  235loPI    C3 3747   2.721   8.339  10.902 -0.2146 -0.1074 -0.0151
  235loPI   PO4 3748   3.231   8.269  10.589 -0.2773  0.2659 -0.2212
  235loPI   GL1 3749   3.447   8.036  10.352 -0.0131  0.1420  0.1953
  235loPI   GL2 3750   3.742   8.037  10.203  0.1217  0.2807  0.2035
  235loPI   C1A 3751   3.179   7.913  10.048  0.1872 -0.2718  0.0146
  235loPI   C2A 3752   3.163   7.917   9.541  0.0297  0.1885 -0.2896
  235loPI   C3A 3753   3.266   7.724   9.196  0.3411 -0.1199  0.0708
  235loPI   C4A 3754   3.276   7.560   8.868 -0.0651  0.1446 -0.1134
  235loPI   C5A 3755   3.312   7.387   8.465  0.2191  0.0363 -0.0697
  235loPI   C6A 3756   3.252   7.117   8.076 -0.1469 -0.1149  0.1877
  235loPI   C1B 3757   3.675   8.073   9.801 -0.0555  0.4149 -0.4518
  235loPI   C2B 3758   3.624   8.135   9.436  0.3128 -0.1770 -0.0093
  235loPI   C3B 3759   3.525   8.157   9.037  0.0548 -0.2210 -0.0616
  235loPI   C4B 3760   3.552   8.253   8.619 -0.1317  0.0028 -0.1105
  236loPI    C1 3761   2.702   1.968  10.625 -0.0562 -0.1152 -0.1086
  236loPI    C2 3762   2.371   2.166  10.731 -0.0175 -0.0822 -0.0489
  236loPI    C3 3763   2.723   2.356  10.720  0.0240 -0.1537  0.0342
  236loPI   PO4 3764   2.591   1.808  10.436 -0.0830 -0.2495 -0.1322
  236loPI   GL1 3765   2.647   1.900  10.040 -0.1598 -0.0250 -0.0934
  236loPI   GL2 3766   2.900   1.877   9.920  0.1095  0.0338 -0.0018
  236loPI   C1A 3767   2.621   1.474   9.807 -0.3487  0.2062  0.2508
  236loPI   C2A 3768   2.602   1.069   9.561  0.0256  0.1009 -0.1259
  236loPI   C3A 3769   2.518   0.829   9.165 -0.0177  0.3096  0.0709
  236loPI   C4A 3770   2.806   0.661   8.936 -0.0593  0.1811 -0.0393
  236loPI   C5A 3771   2.847   0.400   8.665  0.2399 -0.0335 -0.2460
  236loPI   C6A 3772   2.644   0.052   8.539 -0.1247 -0.4788  0.0571
  236loPI   C1B 3773   3.113   1.815   9.496  0.1993 -0.4392 -0.3102
  236loPI   C2B 3774   3.070   1.636   9.133 -0.2125 -0.0423  0.1095
  236loPI   C3B 3775   3.082   1.418   8.820 -0.1623  0.2017 -0.0305
  236loPI   C4B 3776   3.035   0.999   8.721 -0.0555  0.1273 -0.2216
  237loPI    C1 3777  13.683   7.764  10.932  0.0238 -0.0299 -0.0159
  237loPI    C2 3778  13.884   8.013  11.172 -0.0546  0.1442 -0.1288
  237loPI    C3 3779  13.743   7.667  11.315  0.3992 -0.0221 -0.0687
  237loPI   PO4 3780  13.806   7.743  10.739  0.4024  0.2280  0.1886
  237loPI   GL1 3781  13.932   7.638  10.336 -0.0123 -0.3088  0.1626
  237loPI   GL2 3782  13.915   7.293  10.226 -0.1219  0.1238 -0.1094
  237loPI   C1A 3783  13.941   7.717   9.851 -0.0562  0.2369  0.0475
  237loPI   C2A 3784  13.823   7.638   9.499 -0.0523  0.2724 -0.1649
  237loPI   C3A 3785  13.926   7.557   9.158  0.3432  0.0832 -0.0812
  237loPI   C4A 3786  13.782   7.170   9.011  0.0702  0.0339 -0.0929
  237loPI   C5A 3787  13.689   7.127   8.555  0.2388  0.0938 -0.4648
  237loPI   C6A 3788  13.635   7.395   8.172  0.2230 -0.1484 -0.1923
  237loPI   C1B 3789  13.724   7.232   9.824  0.1541 -0.1334 -0.1587
  237loPI   C2B 3790  13.433   7.262   9.467 -0.5018 -0.1395 -0.1187
  237loPI   C3B 3791  13.184   7.417   9.068 -0.1311  0.1713 -0.0014
  237loPI   C4B 3792  13.198   7.540   8.626  0.1179 -0.3627  0.1105
  238loPI    C1 3793   1.109  13.196  10.848 -0.0172 -0.0012 -0.1996
  238loPI    C2 3794   0.727  13.082  10.873 -0.0240  0.1127  0.3285
  238loPI    C3 3795   0.974  13.023  11.182  0.4397 -0.1326 -0.0758
  238loPI   PO4 3796   1.103  13.307  10.626 -0.3324 -0.2120  0.2593
  238loPI   GL1 3797   0.876  13.262  10.195 -0.2554  0.1662 -0.0953
  238loPI   GL2 3798   0.683  13.009  10.092 -0.1821 -0.2183 -0.2138
  238loPI   C1A 3799   1.092  13.281   9.787  0.0416 -0.1191 -0.2087
  238loPI   C2A 3800   1.005  13.288   9.424 -0.2195  0.1070 -0.2710
  238loPI   C3A 3801   1.028  13.407   9.025  0.1074 -0.0805 -0.0471
  238loPI   C4A 3802   1.087  13.351   8.637  0.2567 -0.0974  0.1393
  238loPI   C5A 3803   1.387  13.652   8.287  0.1767 -0.1127 -0.0028
  238loPI   C6A 3804   1.572  14.008   8.272 -0.0450  0.0023  0.2856
  238loPI   C1B 3805   0.871  12.848   9.703 -0.0985  0.0402 -0.4293
  238loPI   C2B 3806   0.989  12.794   9.335 -0.2177 -0.1530 -0.0709
  238loPI   C3B 3807   0.986  12.863   8.874 -0.0217  0.0873  0.0116
  238loPI   C4B 3808   1.030  12.865   8.407  0.0235  0.0678 -0.0392
  239loPI    C1 3809   8.354  13.222  10.982  0.0316 -0.3502 -0.0140
  239loPI    C2 3810   8.017  13.183  10.770 -0.0346 -0.1259  0.0479
  239loPI    C3 3811   7.999  13.266  11.161  0.0925  0.1174  0.0047
  239loPI   PO4 3812   8.557  13.269  10.753 -0.3146 -0.2683 -0.0151
  239loPI   GL1 3813   8.533  13.038  10.410  0.0864  0.4348  0.0564
  239loPI   GL2 3814   8.312  12.717  10.344  0.0737  0.2485 -0.0490
  239loPI   C1A 3815   8.475  13.056   9.945  0.0194  0.0804  0.1469
  239loPI   C2A 3816   8.369  12.965   9.504 -0.1081  0.5457 -0.1763
  239loPI   C3A 3817   8.474  12.927   9.025 -0.0697 -0.0247  0.1504
  239loPI   C4A 3818   8.825  13.015   8.716  0.1555 -0.1856  0.2074
  239loPI   C5A 3819   9.175  13.276   8.463 -0.2579  0.1717  0.0836
  239loPI   C6A 3820   9.089  13.650   8.340 -0.0842  0.3839  0.2710
  239loPI   C1B 3821   8.031  12.784   9.861 -0.0618  0.0048 -0.2636
  239loPI   C2B 3822   7.946  12.836   9.349  0.2393 -0.2179 -0.0517
  239loPI   C3B 3823   7.968  12.956   8.783 -0.0658 -0.2437  0.1066
  239loPI   C4B 3824   7.648  13.159   8.418  0.1665  0.0020  0.2521
  240loPI    C1 3825   3.498   3.661  10.612 -0.0145 -0.1109 -0.1162
  240loPI    C2 3826   3.730   3.532  10.313  0.1992 -0.0511  0.0219
  240loPI    C3 3827   3.881   3.570  10.682 -0.0489 -0.0756  0.1278
  240loPI   PO4 3828   3.293   3.698  10.491 -0.3611  0.2813  0.2469
  240loPI   GL1 3829   3.159   3.850  10.174  0.2054  0.2265 -0.1572
  240loPI   GL2 3830   3.024   3.649  10.026  0.0046  0.2847 -0.0682
  240loPI   C1A 3831   3.537   3.690   9.906 -0.1416  0.2516 -0.0370
  240loPI   C2A 3832   3.611   3.507   9.632  0.2787 -0.2150 -0.2359
  240loPI   C3A 3833   3.497   3.687   9.249 -0.0335 -0.0635  0.2604
  240loPI   C4A 3834   3.376   3.792   8.833 -0.0577  0.2658  0.1435
  240loPI   C5A 3835   3.113   3.564   8.630 -0.0346  0.0046  0.0470
  240loPI   C6A 3836   2.665   3.564   8.560  0.2054  0.1074 -0.0826
  240loPI   C1B 3837   3.106   3.711   9.628 -0.3586  0.0993 -0.1577
  240loPI   C2B 3838   2.965   3.748   9.231 -0.1694 -0.0496  0.0927
  240loPI   C3B 3839   2.705   3.956   8.874  0.1505 -0.0527 -0.1204
  240loPI   C4B 3840   2.771   4.048   8.506  0.2115 -0.0079 -0.1736
  241loPI    C1 3841  13.291  10.710  10.982  0.0540  0.0172 -0.1368
  241loPI    C2 3842  13.529  10.770  11.298  0.0438 -0.1228 -0.1017
  241loPI    C3 3843  13.141  10.865  11.319  0.0757  0.0142 -0.1258
  241loPI   PO4 3844  13.400  10.855  10.727 -0.1531  0.0670  0.2095
  241loPI   GL1 3845  13.747  10.782  10.394  0.3035 -0.0880  0.0134
  241loPI   GL2 3846  13.960  10.703  10.351 -0.0446  0.4525 -0.0780
  241loPI   C1A 3847  13.710  10.798   9.942  0.1780  0.0613  0.1349
  241loPI   C2A 3848  13.782  10.739   9.528  0.2416  0.2840  0.1863
  241loPI   C3A 3849  13.724  10.801   9.093  0.2389 -0.5777  0.0505
  241loPI   C4A 3850  13.832  10.593   8.685 -0.0782  0.4422  0.0750
  241loPI   C5A 3851  14.097  10.330   8.531  0.1442 -0.0903  0.0235
  241loPI   C6A 3852  14.379  10.077   8.346 -0.1102 -0.2842  0.1238
  241loPI   C1B 3853  14.160  10.633   9.940 -0.0510  0.1644  0.2283
  241loPI   C2B 3854  14.226  10.570   9.567  0.3221 -0.2072  0.2110
  241loPI   C3B 3855  14.166  10.588   9.049  0.0666  0.1776 -0.0673
  241loPI   C4B 3856  14.280  10.792   8.741 -0.1172 -0.0965  0.2339
  242loPI    C1 3857   3.518  17.244  10.816 -0.0545 -0.4125  0.0663
  242loPI    C2 3858   3.438  17.405  11.174  0.0925 -0.0918 -0.0416
  242loPI    C3 3859   3.667  17.078  11.148  0.1643 -0.0580  0.1513
  242loPI   PO4 3860   3.282  17.229  10.715 -0.2538  0.2801 -0.0883
  242loPI   GL1 3861   3.148  17.232  10.368  0.1417 -0.0003  0.1181
  242loPI   GL2 3862   3.002  17.514  10.395  0.0317  0.1453  0.0495
  242loPI   C1A 3863   3.239  17.018  10.052  0.0974  0.2605 -0.2135
  242loPI   C2A 3864   3.220  16.622   9.760  0.3150  0.1439  0.1450
  242loPI   C3A 3865   3.332  16.526   9.320  0.0829  0.1728  0.1774
  242loPI   C4A 3866   3.203  16.549   8.904  0.1481 -0.0019  0.0578
  242loPI   C5A 3867   3.335  16.184   8.703 -0.1299  0.2078 -0.2125
  242loPI   C6A 3868   3.540  15.843   8.430  0.1030  0.0237 -0.1063
  242loPI   C1B 3869   3.139  17.812  10.006  0.0956  0.0431 -0.1305
  242loPI   C2B 3870   2.982  18.193   9.683 -0.0669 -0.2715  0.0088
  242loPI   C3B 3871   2.980  18.534   9.417 -0.2836  0.1905 -0.0621
  242loPI   C4B 3872   2.956  18.967   9.198 -0.0888 -0.0653 -0.0889
  243loPI    C1 3873  11.680  17.510  11.159 -0.0561  0.1122 -0.2223
  243loPI    C2 3874  11.410  17.679  11.402 -0.1858 -0.0571 -0.2460
  243loPI    C3 3875  11.757  17.865  11.327 -0.1633  0.0177  0.0324
  243loPI   PO4 3876  11.650  17.406  10.909  0.1418  0.1337  0.0252
  243loPI   GL1 3877  11.773  17.426  10.518  0.0872 -0.1059  0.4089
  243loPI   GL2 3878  11.764  17.687  10.422 -0.0354  0.0808 -0.2290
  243loPI   C1A 3879  11.302  17.304  10.279 -0.1272 -0.1871  0.2354
  243loPI   C2A 3880  11.164  17.279   9.862  0.0481 -0.2095  0.0452
  243loPI   C3A 3881  11.085  17.138   9.503 -0.1362 -0.3399  0.0802
  243loPI   C4A 3882  11.115  17.172   9.098  0.0125 -0.2680  0.0649
  243loPI   C5A 3883  11.155  17.190   8.699  0.2972 -0.1993  0.0338
  243loPI   C6A 3884  10.915  17.234   8.372  0.2874 -0.0401 -0.0213
  243loPI   C1B 3885  11.588  17.586  10.024  0.2689  0.1564  0.1662
  243loPI   C2B 3886  11.391  17.540   9.563  0.1482 -0.1785  0.2698
  243loPI   C3B 3887  11.120  17.655   9.255  0.3439 -0.4562 -0.0249
  243loPI   C4B 3888  10.921  17.776   8.879  0.1233  0.2288 -0.2194
  244loPI    C1 3889   7.107   8.705  11.026 -0.0541  0.1966 -0.5265
  244loPI    C2 3890   7.219   8.328  10.953 -0.0469  0.1315 -0.1936
  244loPI    C3 3891   6.879   8.401  11.152  0.0165  0.2971 -0.1447
  244loPI   PO4 3892   7.214   8.789  10.815  0.0365  0.0420  0.0488
  244loPI   GL1 3893   7.417   8.609  10.356 -0.1472  0.1130  0.1237
  244loPI   GL2 3894   7.586   8.401  10.277 -0.0136  0.5621  0.1539
  244loPI   C1A 3895   7.378   8.701   9.926  0.1417 -0.1513  0.2189
  244loPI   C2A 3896   7.307   8.852   9.531 -0.2099 -0.0852  0.3219
  244loPI   C3A 3897   7.240   8.862   9.061 -0.0236  0.0115 -0.1229
  244loPI   C4A 3898   7.346   8.686   8.669  0.1528  0.0925  0.1601
  244loPI   C5A 3899   7.508   8.593   8.300 -0.0464 -0.3567  0.0553
  244loPI   C6A 3900   7.949   8.451   8.199 -0.0924  0.0613  0.0480
  244loPI   C1B 3901   7.552   8.236   9.899 -0.1235 -0.4688  0.0946
  244loPI   C2B 3902   7.438   8.335   9.547 -0.0761 -0.0986  0.1343
  244loPI   C3B 3903   7.485   8.287   9.160 -0.0996  0.0576 -0.0030
  244loPI   C4B 3904   7.639   8.306   8.706  0.0509  0.0712 -0.0008
  245loPI    C1 3905   6.060  17.744  10.946 -0.0356 -0.0910  0.0157
  245loPI    C2 3906   6.275  18.028  11.128 -0.2372  0.1813 -0.1627
  245loPI    C3 3907   5.954  17.873  11.309 -0.0394 -0.0476 -0.0007
  245loPI   PO4 3908   5.925  17.836  10.731 -0.0059  0.0874 -0.1560
  245loPI   GL1 3909   5.921  18.030  10.371 -0.2655 -0.4178 -0.1479
  245loPI   GL2 3910   5.867  18.268  10.462  0.0087 -0.2355  0.0226
  245loPI   C1A 3911   5.834  17.876   9.883 -0.5420 -0.2021  0.0016
  245loPI   C2A 3912   5.730  18.111   9.535 -0.0488 -0.1960 -0.0968
  245loPI   C3A 3913   5.768  18.197   9.182  0.1187 -0.1683  0.1071
  245loPI   C4A 3914   6.088  18.287   8.988 -0.1962  0.1044  0.2609
  245loPI   C5A 3915   6.441  18.514   8.759 -0.3067 -0.3537 -0.0648
  245loPI   C6A 3916   6.751  18.488   8.433 -0.4625 -0.0745  0.2847
  245loPI   C1B 3917   5.942  18.349   9.936  0.0539 -0.2651 -0.4158
  245loPI   C2B 3918   6.067  18.510   9.512  0.3079 -0.0562 -0.2966
  245loPI   C3B 3919   6.092  18.767   9.127  0.2718 -0.1121  0.3870
  245loPI   C4B 3920   6.160  19.153   8.907 -0.2478  0.0792  0.0965
  246loPI    C1 3921  10.376  12.127  10.482 -0.1654 -0.2504 -0.0173
  246loPI    C2 3922  10.259  12.126  10.864 -0.0958 -0.0863  0.0054
  246loPI    C3 3923  10.005  12.011  10.577 -0.0905 -0.3839  0.1162
  246loPI   PO4 3924  10.490  12.416  10.514  0.0841 -0.2123  0.3319
  246loPI   GL1 3925  10.709  12.599  10.187 -0.0522 -0.0277  0.1354
  246loPI   GL2 3926  10.689  12.243  10.115 -0.2922 -0.1847  0.3477
  246loPI   C1A 3927  11.053  12.738   9.891  0.2620  0.3032 -0.0816
  246loPI   C2A 3928  10.937  12.744   9.491  0.0251 -0.1044  0.0567
  246loPI   C3A 3929  10.773  12.748   9.130  0.1295 -0.2875 -0.0833
  246loPI   C4A 3930  10.711  12.560   8.697  0.1789 -0.1441  0.1332
  246loPI   C5A 3931  10.510  12.563   8.259 -0.0229  0.1286  0.1699
  246loPI   C6A 3932  10.141  12.718   8.156 -0.1834  0.0202  0.0011
  246loPI   C1B 3933  10.938  12.228   9.721  0.2195 -0.3314  0.0004
  246loPI   C2B 3934  10.907  12.289   9.301  0.2264  0.1139  0.1592
  246loPI   C3B 3935  11.028  12.172   8.965 -0.0335  0.0057 -0.2329
  246loPI   C4B 3936  11.263  12.411   8.706 -0.1862  0.1848 -0.0821
  247loPI    C1 3937  10.600   0.190  10.979 -0.3023  0.0215 -0.4057
  247loPI    C2 3938  10.677   0.573  11.063 -0.0807 -0.0602 -0.2262
  247loPI    C3 3939  10.621   0.311  11.360  0.0073 -0.2139 -0.3437
  247loPI   PO4 3940  10.693   0.156  10.749  0.0435  0.1824  0.0513
  247loPI   GL1 3941  10.535   0.237  10.398  0.0054  0.1788  0.1131
  247loPI   GL2 3942  10.728   0.382  10.130 -0.3330  0.1008  0.0290
  247loPI   C1A 3943  10.318   0.066  10.083 -0.0191 -0.0303 -0.0074
  247loPI   C2A 3944  10.255   0.187   9.698  0.0308  0.1310 -0.2187
  247loPI   C3A 3945  10.119   0.243   9.261 -0.1652 -0.3583 -0.3394
  247loPI   C4A 3946  10.204   0.380   8.821 -0.2945  0.0672 -0.0850
  247loPI   C5A 3947  10.128   0.327   8.386 -0.0482  0.0752 -0.0060
  247loPI   C6A 3948   9.868   0.620   8.191 -0.0284  0.1582  0.1146
  247loPI   C1B 3949  10.706   0.509   9.706  0.0177  0.0013  0.0581
  247loPI   C2B 3950  10.573   0.560   9.274 -0.0253  0.0430 -0.1440
  247loPI   C3B 3951  10.697   0.585   8.831 -0.0860 -0.0549  0.0445
  247loPI   C4B 3952  10.421   0.816   8.549  0.1517 -0.1750  0.0623
  248loPI    C1 3953   0.420   6.992  10.648 -0.0237  0.1906 -0.1796
  248loPI    C2 3954   0.380   7.379  10.740 -0.2206  0.1498 -0.0894
  248loPI    C3 3955   0.489   7.116  11.022  0.1194  0.1691 -0.1981
  248loPI   PO4 3956   0.512   7.005  10.438  0.0009 -0.2099  0.1318
  248loPI   GL1 3957   0.696   7.068  10.002 -0.0949  0.2392  0.0119
  248loPI   GL2 3958   0.502   7.292   9.772  0.2082  0.5283 -0.2515
  248loPI   C1A 3959   0.934   7.058   9.559 -0.1156 -0.0632  0.2055
  248loPI   C2A 3960   0.960   7.468   9.354  0.2140  0.1046  0.0813
  248loPI   C3A 3961   0.947   7.554   8.922  0.0154 -0.1535 -0.5130
  248loPI   C4A 3962   1.107   7.358   8.603  0.1732  0.0534  0.0145
  248loPI   C5A 3963   1.350   7.411   8.255 -0.3479 -0.1464  0.2217
  248loPI   C6A 3964   1.642   7.556   7.978 -0.0896 -0.1263  0.0257
  248loPI   C1B 3965   0.470   7.340   9.313  0.1761  0.1733 -0.0920
  248loPI   C2B 3966   0.378   7.462   8.856 -0.2442 -0.0719  0.0452
  248loPI   C3B 3967   0.620   7.617   8.600  0.3321  0.1191  0.4152
  248loPI   C4B 3968   0.953   7.801   8.396 -0.0481  0.1740 -0.0817
  249loPI    C1 3969   9.294   6.019  10.847  0.0339 -0.2706 -0.0560
  249loPI    C2 3970   9.045   5.710  10.892 -0.1483 -0.0980  0.1477
  249loPI    C3 3971   9.094   5.971  11.190 -0.0771  0.1291 -0.0597
  249loPI   PO4 3972   9.482   5.918  10.702  0.1994  0.2608  0.1754
  249loPI   GL1 3973   9.541   5.829  10.357  0.2495  0.3439  0.0719
  249loPI   GL2 3974   9.575   5.538  10.144  0.0672  0.0104  0.1182
  249loPI   C1A 3975   9.759   5.974  10.015 -0.1101 -0.0613  0.0564
  249loPI   C2A 3976   9.762   6.135   9.541  0.1098 -0.0111 -0.0343
  249loPI   C3A 3977   9.896   6.385   9.290 -0.2574 -0.1535 -0.0775
  249loPI   C4A 3978  10.189   6.380   8.993  0.1154 -0.1248  0.0211
  249loPI   C5A 3979  10.073   6.461   8.661  0.1918  0.0961 -0.1094
  249loPI   C6A 3980   9.713   6.364   8.413 -0.4565  0.1779 -0.1898
  249loPI   C1B 3981   9.636   5.581   9.688  0.1885  0.2013 -0.1469
  249loPI   C2B 3982   9.553   5.854   9.171  0.1853 -0.4051  0.0535
  249loPI   C3B 3983   9.800   6.049   8.889 -0.0118 -0.2496  0.2090
  249loPI   C4B 3984   9.884   5.912   8.436  0.1192 -0.3021 -0.1943
  250loPI    C1 3985  11.871   6.274  11.007 -0.0646  0.2841  0.0703
  250loPI    C2 3986  11.534   6.149  11.182  0.0634 -0.1351  0.0283
  250loPI    C3 3987  11.801   6.360  11.391 -0.1584  0.0790  0.1005
  250loPI   PO4 3988  11.772   6.294  10.721 -0.2208  0.1589 -0.0243
  250loPI   GL1 3989  11.971   6.421  10.252 -0.3033  0.1162 -0.2612
  250loPI   GL2 3990  12.127   6.408   9.957  0.0654 -0.0507  0.2595
  250loPI   C1A 3991  11.716   6.705   9.934 -0.1353  0.0344  0.1334
  250loPI   C2A 3992  11.557   6.925   9.590 -0.1465 -0.0854  0.4590
  250loPI   C3A 3993  11.401   6.986   9.158  0.1515 -0.1784 -0.1897
  250loPI   C4A 3994  11.367   6.948   8.767  0.1512  0.2105  0.2830
  250loPI   C5A 3995  11.323   6.946   8.370  0.1008  0.0423 -0.1854
  250loPI   C6A 3996  11.035   6.609   8.331  0.1205 -0.1318  0.0645
  250loPI   C1B 3997  12.206   6.411   9.545 -0.2830  0.1422  0.1212
  250loPI   C2B 3998  12.212   6.219   9.132  0.0760  0.0234 -0.1922
  250loPI   C3B 3999  12.088   5.973   8.759  0.0011  0.0055 -0.2598
  250loPI   C4B 4000  12.389   5.744   8.476 -0.1508  0.0378 -0.1488
  251loPI    C1 4001  12.271  14.347  11.095  0.1332 -0.0921 -0.2521
  251loPI    C2 4002  12.291  13.947  11.109 -0.1597 -0.1008  0.0144
  251loPI    C3 4003  12.445  14.166  11.407 -0.2848 -0.0276  0.0263
  251loPI   PO4 4004  12.309  14.502  10.942  0.0831  0.1951 -0.0026
  251loPI   GL1 4005  12.223  14.612  10.532 -0.1117  0.4093 -0.3024
  251loPI   GL2 4006  12.629  14.696  10.566  0.1694 -0.2150 -0.0824
  251loPI   C1A 4007  12.288  14.585  10.087  0.0058 -0.0210 -0.0270
  251loPI   C2A 4008  12.357  14.535   9.717 -0.0644  0.2307  0.0485
  251loPI   C3A 4009  12.592  14.632   9.302 -0.0274  0.1031  0.0458
  251loPI   C4A 4010  12.517  14.611   8.871  0.0370 -0.2401  0.2806
  251loPI   C5A 4011  12.304  14.515   8.495  0.0253  0.2673 -0.0371
  251loPI   C6A 4012  12.417  14.086   8.270 -0.1470  0.0860  0.0080
  251loPI   C1B 4013  12.804  14.792  10.191 -0.0555 -0.0470 -0.0433
  251loPI   C2B 4014  12.990  14.717   9.720  0.1608 -0.1243  0.0168
  251loPI   C3B 4015  13.108  14.916   9.361 -0.3006 -0.1476  0.3859
  251loPI   C4B 4016  12.985  14.965   9.009  0.1240 -0.0136  0.2658
  252loPI    C1 4017   8.204   6.878  10.964  0.1447 -0.3764 -0.0766
  252loPI    C2 4018   7.822   6.763  10.997 -0.0025  0.0702 -0.1571
  252loPI    C3 4019   8.066   6.739  11.313 -0.2495  0.3058  0.0558
  252loPI   PO4 4020   8.282   6.735  10.723 -0.2431  0.1531 -0.1361
  252loPI   GL1 4021   8.239   6.682  10.227 -0.2954  0.0602 -0.0729
  252loPI   GL2 4022   8.144   6.504   9.977  0.0873  0.0454  0.1017
  252loPI   C1A 4023   8.547   6.773   9.893 -0.2423 -0.1130 -0.0353
  252loPI   C2A 4024   8.575   6.909   9.487  0.1092 -0.0620  0.2003
  252loPI   C3A 4025   8.720   6.940   9.034  0.2204  0.0648 -0.0644
  252loPI   C4A 4026   8.788   6.763   8.656  0.1225  0.0881  0.1469
  252loPI   C5A 4027   8.654   6.440   8.325 -0.1484  0.5422  0.0330
  252loPI   C6A 4028   8.771   5.994   8.327 -0.1323 -0.1765 -0.3274
  252loPI   C1B 4029   8.311   6.473   9.520  0.2278 -0.1570  0.1108
  252loPI   C2B 4030   8.429   6.476   9.133 -0.2240 -0.1859 -0.2588
  252loPI   C3B 4031   8.287   6.670   8.728 -0.1548 -0.2420 -0.1416
  252loPI   C4B 4032   8.397   6.872   8.364  0.0864 -0.0359 -0.0823
  253loPI    C1 4033   6.398  17.045  10.989  0.1924 -0.0668  0.0837
  253loPI    C2 4034   6.668  17.148  11.265  0.2001 -0.2399  0.1420
  253loPI    C3 4035   6.436  16.828  11.322 -0.0593 -0.0590  0.1191
  253loPI   PO4 4036   6.208  17.209  10.913  0.0168  0.0135 -0.1982
  253loPI   GL1 4037   6.287  17.414  10.593  0.2858  0.3617  0.2166
  253loPI   GL2 4038   6.290  17.671  10.435 -0.0287  0.2400 -0.2057
  253loPI   C1A 4039   6.271  17.220  10.162  0.1547  0.3659 -0.0040
  253loPI   C2A 4040   6.271  17.037   9.765 -0.1755  0.0956 -0.0461
  253loPI   C3A 4041   6.473  17.061   9.428 -0.0857 -0.0160  0.5014
  253loPI   C4A 4042   6.685  16.879   9.181 -0.1124  0.0708  0.0347
  253loPI   C5A 4043   7.034  16.607   8.992  0.0162 -0.1308 -0.1195
  253loPI   C6A 4044   7.363  16.315   8.928 -0.0182 -0.1017 -0.0550
  253loPI   C1B 4045   6.357  17.935  10.202  0.0694  0.1432 -0.1338
  253loPI   C2B 4046   6.444  18.204   9.870 -0.1250 -0.0557 -0.0203
  253loPI   C3B 4047   6.520  18.205   9.447 -0.0270 -0.0027 -0.1381
  253loPI   C4B 4048   6.404  17.932   9.094  0.0617  0.0702  0.1497
  254loPI    C1 4049   7.804   1.758  10.914 -0.0809 -0.1991  0.1610
  254loPI    C2 4050   7.843   1.729  11.311 -0.0376  0.0618  0.1781
  254loPI    C3 4051   7.496   1.633  11.136 -0.1009  0.0779  0.2940
  254loPI   PO4 4052   7.967   2.012  10.855 -0.0804 -0.1117 -0.3440
  254loPI   GL1 4053   7.987   2.193  10.430 -0.1550  0.2526 -0.2836
  254loPI   GL2 4054   8.298   2.305  10.353  0.1159 -0.0460  0.0509
  254loPI   C1A 4055   7.964   2.218   9.916 -0.3439 -0.2103 -0.0828
  254loPI   C2A 4056   7.958   2.191   9.439 -0.0668 -0.1504  0.2292
  254loPI   C3A 4057   7.948   2.178   9.034  0.1239 -0.0691  0.0402
  254loPI   C4A 4058   7.910   2.002   8.482  0.3136  0.2692  0.0225
  254loPI   C5A 4059   7.933   2.152   8.116  0.4634 -0.0020 -0.3748
  254loPI   C6A 4060   7.830   2.396   7.827  0.0486 -0.3484 -0.2594
  254loPI   C1B 4061   8.464   2.077  10.111 -0.0948  0.0277 -0.0477
  254loPI   C2B 4062   8.541   1.906   9.761 -0.1665  0.1477 -0.1523
  254loPI   C3B 4063   8.407   1.809   9.319  0.1999  0.0681  0.0960
  254loPI   C4B 4064   8.423   1.849   8.921  0.0093  0.2953  0.0336
  255loPI    C1 4065   7.658  16.007  10.811  0.0245  0.0666  0.0351
  255loPI    C2 4066   7.620  15.808  11.156 -0.2591  0.1067  0.0299
  255loPI    C3 4067   7.493  16.186  11.129 -0.3416  0.0674 -0.1493
  255loPI   PO4 4068   7.884  15.914  10.764 -0.2838  0.1145  0.0612
  255loPI   GL1 4069   7.980  15.656  10.528 -0.0654 -0.4697 -0.0015
  255loPI   GL2 4070   7.892  15.444  10.402 -0.0702 -0.1481 -0.2377
  255loPI   C1A 4071   8.014  15.822  10.102  0.1250  0.2658 -0.1510
  255loPI   C2A 4072   8.075  15.672   9.684  0.3593 -0.0345  0.2142
  255loPI   C3A 4073   8.115  15.569   9.289  0.1341  0.2702  0.0060
  255loPI   C4A 4074   8.165  15.411   8.826  0.2529  0.0698 -0.0865
  255loPI   C5A 4075   8.039  15.118   8.555  0.2538 -0.4130 -0.4045
  255loPI   C6A 4076   7.887  14.663   8.427  0.2864  0.2594 -0.2053
  255loPI   C1B 4077   7.710  15.439  10.023  0.0834 -0.1388  0.2158
  255loPI   C2B 4078   7.567  15.452   9.654 -0.1083 -0.0446 -0.1144
  255loPI   C3B 4079   7.566  15.411   9.282 -0.0696  0.0798 -0.1721
  255loPI   C4B 4080   7.579  15.399   8.858  0.1246  0.0415  0.0805
  256loPI    C1 4081   7.041   9.469  10.981  0.0884 -0.1978  0.1128
  256loPI    C2 4082   6.845   9.121  11.005 -0.1411 -0.0763  0.0351
  256loPI    C3 4083   6.791   9.401  11.287 -0.1132 -0.0248 -0.0104
  256loPI   PO4 4084   7.211   9.405  10.803  0.1981  0.2343 -0.0445
  256loPI   GL1 4085   7.401   9.214  10.501  0.0433 -0.0768  0.2212
  256loPI   GL2 4086   7.649   9.052  10.418  0.4356 -0.2765 -0.0821
  256loPI   C1A 4087   7.204   9.209  10.073  0.2254  0.0710  0.0179
  256loPI   C2A 4088   6.892   9.027   9.816 -0.0839  0.4017 -0.0697
  256loPI   C3A 4089   6.827   8.975   9.376 -0.1617 -0.0217 -0.2062
  256loPI   C4A 4090   6.757   8.965   8.936 -0.4076 -0.4720  0.1169
  256loPI   C5A 4091   6.989   9.162   8.552 -0.1083  0.1630  0.0802
  256loPI   C6A 4092   7.195   9.507   8.342  0.0673  0.0974 -0.0382
  256loPI   C1B 4093   7.660   9.134  10.007  0.0358 -0.3626  0.0750
  256loPI   C2B 4094   7.549   9.274   9.707  0.0925  0.0432 -0.2121
  256loPI   C3B 4095   7.218   9.309   9.466 -0.0029  0.0998  0.3012
  256loPI   C4B 4096   7.010   9.392   8.989 -0.2530  0.1003 -0.1505
  257loPI    C1 4097   7.191   4.713  10.773 -0.1784  0.2952  0.0331
  257loPI    C2 4098   7.132   5.075  10.934  0.1423  0.3361  0.0658
  257loPI    C3 4099   7.358   4.806  11.124 -0.3134  0.0166  0.1744
  257loPI   PO4 4100   6.917   4.534  10.637 -0.1764  0.0247  0.0048
  257loPI   GL1 4101   7.047   4.395  10.235 -0.2239 -0.4696  0.2704
  257loPI   GL2 4102   7.007   4.662  10.117 -0.2043  0.1162 -0.1253
  257loPI   C1A 4103   7.399   4.200   9.978 -0.0594  0.0550  0.0542
  257loPI   C2A 4104   7.404   4.029   9.624  0.0972 -0.0793 -0.0484
  257loPI   C3A 4105   7.179   3.926   9.293 -0.0210  0.1571  0.2316
  257loPI   C4A 4106   7.480   3.877   8.910  0.0207 -0.4375 -0.0754
  257loPI   C5A 4107   7.600   3.893   8.479  0.0972 -0.1798 -0.0549
  257loPI   C6A 4108   7.659   4.184   8.174  0.0854 -0.1055 -0.2404
  257loPI   C1B 4109   6.829   4.698   9.685  0.2514  0.0999 -0.0223
  257loPI   C2B 4110   6.480   4.545   9.414 -0.2275  0.1687 -0.0432
  257loPI   C3B 4111   6.509   4.480   8.986 -0.0031  0.1421  0.2916
  257loPI   C4B 4112   6.318   4.461   8.608 -0.3418 -0.2366  0.1380
  258loPI    C1 4113  14.582   5.205  10.844  0.3260 -0.0308  0.0497
  258loPI    C2 4114  14.625   4.939  11.139  0.2611  0.1233  0.2003
  258loPI    C3 4115  14.551   5.322  11.226 -0.0641  0.1148 -0.0219
  258loPI   PO4 4116  14.753   5.152  10.604 -0.0168 -0.1817  0.0842
  258loPI   GL1 4117  14.794   5.220  10.167  0.0326 -0.0318 -0.2080
  258loPI   GL2 4118  15.003   5.495  10.244  0.1132 -0.1037 -0.0310
  258loPI   C1A 4119  14.770   5.296   9.678  0.2395  0.0973 -0.2690
  258loPI   C2A 4120  14.803   5.321   9.238 -0.0149 -0.2352  0.0480
  258loPI   C3A 4121  14.759   5.232   8.845  0.4148  0.1145 -0.2790
  258loPI   C4A 4122  14.461   5.354   8.587 -0.2692 -0.0466 -0.1285
  258loPI   C5A 4123  14.558   5.816   8.382 -0.0179 -0.0728  0.1423
  258loPI   C6A 4124  14.587   6.194   8.173 -0.0680  0.1900 -0.1089
  258loPI   C1B 4125  15.136   5.622   9.916 -0.0790 -0.2482  0.0445
  258loPI   C2B 4126  15.052   5.698   9.487  0.1035  0.1948 -0.1154
  258loPI   C3B 4127  14.957   5.671   8.932 -0.1938  0.0873 -0.2611
  258loPI   C4B 4128  14.978   5.608   8.518 -0.1204 -0.1720  0.1288
  259loPI    C1 4129   4.488   1.974  10.798 -0.0599  0.0360  0.0788
  259loPI    C2 4130   4.311   2.308  10.929 -0.1350 -0.0342  0.1577
  259loPI    C3 4131   4.422   2.026  11.190 -0.0799 -0.0749  0.0903
  259loPI   PO4 4132   4.586   2.010  10.586  0.2372  0.1081 -0.3018
  259loPI   GL1 4133   4.635   2.111  10.141 -0.0003  0.0098 -0.2298
  259loPI   GL2 4134   4.356   2.081  10.076  0.0112 -0.4615  0.0144
  259loPI   C1A 4135   4.816   2.220   9.774 -0.0101  0.2233 -0.0962
  259loPI   C2A 4136   4.905   2.293   9.359  0.0602 -0.0081 -0.0196
  259loPI   C3A 4137   4.738   2.472   8.894 -0.2811  0.0268 -0.3575
  259loPI   C4A 4138   4.733   2.675   8.522 -0.0050 -0.0470  0.0904
  259loPI   C5A 4139   4.754   2.879   8.219  0.3061  0.2147 -0.1335
  259loPI   C6A 4140   4.977   3.180   8.163 -0.2393  0.1888 -0.1293
  259loPI   C1B 4141   4.382   2.117   9.624  0.2538  0.1809 -0.0194
  259loPI   C2B 4142   4.394   2.301   9.207  0.2289 -0.0065 -0.1659
  259loPI   C3B 4143   4.140   2.495   8.836 -0.2083 -0.1179 -0.0682
  259loPI   C4B 4144   4.258   2.713   8.393  0.3481 -0.1487  0.0513
  260loPI    C1 4145   7.580   7.548  10.847 -0.2009  0.0151  0.3254
  260loPI    C2 4146   7.873   7.276  10.836 -0.1879  0.0324  0.2334
  260loPI    C3 4147   7.876   7.563  11.115  0.0245  0.1906  0.0714
  260loPI   PO4 4148   7.637   7.677  10.479  0.1782  0.1468  0.2578
  260loPI   GL1 4149   7.632   7.694  10.149 -0.0788 -0.1336  0.1508
  260loPI   GL2 4150   7.350   7.875  10.100 -0.1703  0.1888 -0.1624
  260loPI   C1A 4151   7.864   7.801   9.698  0.0390 -0.0212 -0.0915
  260loPI   C2A 4152   7.823   7.832   9.208  0.0211  0.1712  0.0114
  260loPI   C3A 4153   8.064   7.983   8.862  0.1650 -0.4230 -0.0126
  260loPI   C4A 4154   8.011   7.935   8.405  0.1478  0.1160  0.3210
  260loPI   C5A 4155   8.270   7.598   8.076  0.0142  0.0783  0.4244
  260loPI   C6A 4156   8.571   7.271   8.058  0.1939 -0.0718 -0.1030
  260loPI   C1B 4157   7.263   7.807   9.624  0.1781  0.0643  0.0774
  260loPI   C2B 4158   7.341   7.732   9.199 -0.0769  0.3897 -0.0510
  260loPI   C3B 4159   7.336   7.868   8.828 -0.2165 -0.0464  0.2823
  260loPI   C4B 4160   7.532   7.733   8.476  0.0474 -0.0551  0.2074
  261loPI    C1 4161   8.619   4.490  11.190  0.1282  0.0064 -0.0509
  261loPI    C2 4162   8.441   4.807  11.357 -0.1419 -0.1112 -0.1097
  261loPI    C3 4163   8.663   4.561  11.581 -0.2139 -0.0722  0.0051
  261loPI   PO4 4164   8.646   4.614  10.970 -0.1042  0.0119 -0.0192
  261loPI   GL1 4165   8.627   4.657  10.509  0.0228 -0.0607 -0.1713
  261loPI   GL2 4166   8.456   4.405  10.493 -0.2426 -0.2687 -0.0623
  261loPI   C1A 4167   8.659   4.687  10.126 -0.2679  0.1062 -0.3170
  261loPI   C2A 4168   8.541   4.633   9.804  0.1149  0.2271  0.2743
  261loPI   C3A 4169   8.217   4.456   9.494  0.0614 -0.1740 -0.1036
  261loPI   C4A 4170   8.103   4.477   9.124 -0.0763  0.0617 -0.1634
  261loPI   C5A 4171   8.208   4.685   8.786 -0.2801  0.0619  0.1044
  261loPI   C6A 4172   8.330   4.662   8.329 -0.3969 -0.0863  0.1073
  261loPI   C1B 4173   8.323   4.278  10.106  0.4078  0.0072 -0.0821
  261loPI   C2B 4174   8.384   3.982   9.784 -0.1240  0.2491 -0.3684
  261loPI   C3B 4175   8.196   3.757   9.395  0.1967 -0.1972  0.0655
  261loPI   C4B 4176   8.343   3.655   8.994 -0.1482  0.0387 -0.1411
  262loPI    C1 4177   2.193   8.759  10.913  0.0707 -0.0110 -0.1413
  262loPI    C2 4178   2.408   8.689  11.243  0.0740  0.0034 -0.1405
  262loPI    C3 4179   2.009   8.670  11.257  0.0694  0.1153 -0.1091
  262loPI   PO4 4180   2.405   8.721  10.733  0.0727  0.1681  0.1930
  262loPI   GL1 4181   2.507   8.908  10.431 -0.1900 -0.4669  0.1995
  262loPI   GL2 4182   2.371   9.043  10.239 -0.1857 -0.2830 -0.2671
  262loPI   C1A 4183   2.679   8.708   9.989  0.1245  0.4960 -0.0691
  262loPI   C2A 4184   2.557   8.581   9.608  0.1267  0.2224 -0.1075
  262loPI   C3A 4185   2.619   8.432   9.255 -0.4107  0.2916 -0.1125
  262loPI   C4A 4186   2.696   8.297   8.838  0.1982 -0.2240 -0.0126
  262loPI   C5A 4187   2.547   8.110   8.466 -0.0251 -0.3533 -0.1144
  262loPI   C6A 4188   2.491   7.740   8.388 -0.1111 -0.2513  0.0675
  262loPI   C1B 4189   2.245   9.129   9.758 -0.2027  0.3189 -0.3537
  262loPI   C2B 4190   2.264   8.997   9.368  0.2206 -0.0138  0.1364
  262loPI   C3B 4191   2.435   9.266   8.973  0.1533 -0.1949 -0.1678
  262loPI   C4B 4192   2.658   9.188   8.602  0.1038 -0.2376  0.0363
  263loPI    C1 4193  15.803  12.271  10.685  0.2028 -0.0520  0.1261
  263loPI    C2 4194  15.921  12.601  10.492 -0.0617  0.0941  0.2096
  263loPI    C3 4195  15.851  12.264  10.288 -0.2312  0.2164  0.0633
  263loPI   PO4 4196  15.566  12.302  10.820  0.0670  0.1403 -0.0778
  263loPI   GL1 4197  15.417  12.498  10.513  0.1023 -0.1402 -0.2092
  263loPI   GL2 4198  15.051  12.413  10.441 -0.0765  0.1101 -0.0585
  263loPI   C1A 4199  15.386  12.131  10.247 -0.3453 -0.0232  0.1283
  263loPI   C2A 4200  15.424  12.112   9.890  0.1407 -0.1639  0.1209
  263loPI   C3A 4201  15.479  12.140   9.477  0.0259  0.1151 -0.3406
  263loPI   C4A 4202  15.499  12.194   9.016  0.1746  0.0932 -0.0242
  263loPI   C5A 4203  15.655  12.423   8.708 -0.1019  0.3287  0.1983
  263loPI   C6A 4204  15.640  12.727   8.452  0.0037 -0.0842  0.1055
  263loPI   C1B 4205  15.162  12.495   9.971  0.2602  0.0820 -0.0169
  263loPI   C2B 4206  15.116  12.498   9.651  0.4715 -0.1932  0.1625
  263loPI   C3B 4207  15.232  12.528   9.249 -0.3520  0.0823 -0.1954
  263loPI   C4B 4208  15.284  12.726   8.808 -0.2235 -0.0337  0.1733
  264loPI    C1 4209   2.986  14.133  11.132  0.0213 -0.0663 -0.0958
  264loPI    C2 4210   2.792  14.367  11.393 -0.1092 -0.4005  0.1131
  264loPI    C3 4211   3.191  14.384  11.367 -0.1293 -0.0292 -0.0029
  264loPI   PO4 4212   2.814  14.106  10.975 -0.0334 -0.2186  0.0147
  264loPI   GL1 4213   2.599  13.849  10.705  0.0931  0.2267  0.2166
  264loPI   GL2 4214   2.876  13.638  10.506  0.1219 -0.1235  0.0751
  264loPI   C1A 4215   2.357  13.533  10.525 -0.1765 -0.0649 -0.5346
  264loPI   C2A 4216   2.336  13.577  10.038  0.1727  0.1696 -0.0051
  264loPI   C3A 4217   2.453  13.602   9.606  0.1515 -0.1639  0.1196
  264loPI   C4A 4218   2.580  13.687   9.130  0.1630 -0.0146  0.0223
  264loPI   C5A 4219   2.719  13.503   8.634 -0.0925  0.0621 -0.0215
  264loPI   C6A 4220   2.641  13.069   8.587  0.2486 -0.1720  0.0086
  264loPI   C1B 4221   2.820  13.562  10.041  0.2359  0.0762 -0.4492
  264loPI   C2B 4222   2.969  13.451   9.641 -0.5303  0.1111 -0.5359
  264loPI   C3B 4223   2.927  13.315   9.254  0.3120  0.2252  0.0437
  264loPI   C4B 4224   3.103  13.323   8.883 -0.2517 -0.1832  0.0626
  265loPI    C1 4225  16.087   7.256  10.772  0.0760  0.1571 -0.0187
  265loPI    C2 4226  16.207   7.505  11.062  0.1393  0.0590  0.0404
  265loPI    C3 4227  16.023   7.163  11.156 -0.0236  0.1224 -0.0435
  265loPI   PO4 4228  15.935   7.417  10.646  0.0348  0.1375  0.1247
  265loPI   GL1 4229  15.947   7.500  10.268  0.1677 -0.3030 -0.0551
  265loPI   GL2 4230  15.654   7.627  10.180 -0.2333 -0.3185  0.0788
  265loPI   C1A 4231  15.955   7.349   9.887  0.0684  0.0169  0.0211
  265loPI   C2A 4232  15.877   7.321   9.402 -0.1288 -0.2700  0.0757
  265loPI   C3A 4233  15.927   7.576   9.031  0.1790 -0.1776 -0.2685
  265loPI   C4A 4234  16.056   7.960   8.773  0.2173  0.2102  0.1868
  265loPI   C5A 4235  16.305   8.120   8.490 -0.0502  0.0704 -0.1146
  265loPI   C6A 4236  16.339   7.692   8.182 -0.3100  0.0005 -0.0887
  265loPI   C1B 4237  15.702   7.808   9.772  0.1774 -0.0051 -0.1507
  265loPI   C2B 4238  15.631   7.984   9.354  0.3848  0.0275 -0.1607
  265loPI   C3B 4239  15.519   8.114   8.904  0.4048 -0.0349  0.0189
  265loPI   C4B 4240  15.510   8.134   8.460  0.3184  0.0120  0.1098
  266loPI    C1 4241  15.933  15.295  10.759 -0.1578 -0.0419  0.2355
  266loPI    C2 4242  16.065  15.643  10.904  0.2456  0.0066 -0.2237
  266loPI    C3 4243  16.076  15.314  11.132  0.2854  0.2013  0.0603
  266loPI   PO4 4244  16.043  15.353  10.510  0.3607 -0.0445  0.1031
  266loPI   GL1 4245  15.942  15.372  10.131  0.2961  0.0875 -0.2025
  266loPI   GL2 4246  15.716  15.604  10.183  0.1765 -0.0580 -0.1873
  266loPI   C1A 4247  16.051  15.283   9.816 -0.0357 -0.4894 -0.1247
  266loPI   C2A 4248  15.857  15.342   9.430  0.0116  0.2572 -0.2079
  266loPI   C3A 4249  15.761  15.270   9.040  0.0322  0.1144  0.2021
  266loPI   C4A 4250  15.734  15.479   8.608 -0.1875  0.1715 -0.2827
  266loPI   C5A 4251  15.777  15.508   8.240 -0.0816  0.3465  0.1471
  266loPI   C6A 4252  16.074  15.751   8.072  0.3011  0.0339  0.3804
  266loPI   C1B 4253  15.677  15.759   9.809  0.0103 -0.0920  0.1967
  266loPI   C2B 4254  15.621  15.814   9.409  0.0759  0.1216  0.2017
  266loPI   C3B 4255  15.650  15.788   8.976  0.1808 -0.1418  0.1627
  266loPI   C4B 4256  15.559  15.973   8.625 -0.5097  0.1232 -0.4350
  267loPI    C1 4257  12.228   4.956  10.803  0.0443  0.1592 -0.0328
  267loPI    C2 4258  12.542   5.009  11.046 -0.0465 -0.0771  0.1393
  267loPI    C3 4259  12.186   4.906  11.198 -0.0826 -0.3175 -0.1011
  267loPI   PO4 4260  12.346   5.226  10.616  0.4756  0.1514 -0.0959
  267loPI   GL1 4261  12.551   5.176  10.222 -0.1446  0.0557 -0.1025
  267loPI   GL2 4262  12.754   5.459  10.184  0.2164 -0.1321 -0.1357
  267loPI   C1A 4263  12.435   4.995   9.831  0.0297  0.0214  0.1962
  267loPI   C2A 4264  12.383   4.880   9.472 -0.4770 -0.0138  0.1481
  267loPI   C3A 4265  12.658   4.676   9.193  0.3086  0.0405 -0.2056
  267loPI   C4A 4266  12.772   4.451   8.768 -0.1821  0.0084  0.0308
  267loPI   C5A 4267  12.689   4.152   8.428 -0.1272 -0.0119  0.0781
  267loPI   C6A 4268  12.771   3.751   8.333 -0.0133  0.1589  0.0953
  267loPI   C1B 4269  12.521   5.463   9.725  0.0012 -0.1542 -0.1509
  267loPI   C2B 4270  12.215   5.370   9.363  0.1778  0.4485  0.0650
  267loPI   C3B 4271  12.031   5.709   9.189 -0.1017  0.0875 -0.2703
  267loPI   C4B 4272  11.692   5.753   8.891 -0.0609 -0.0467  0.1106
  268loPI    C1 4273  13.800   3.343  11.175  0.0254  0.1069 -0.0879
  268loPI    C2 4274  13.711   3.730  11.128  0.2316  0.1561 -0.0816
  268loPI    C3 4275  14.091   3.608  11.107  0.1821 -0.0262  0.0562
  268loPI   PO4 4276  13.573   3.178  11.048  0.0811  0.2417  0.1554
  268loPI   GL1 4277  13.474   3.101  10.617 -0.0547  0.1294 -0.0981
  268loPI   GL2 4278  13.884   3.308  10.684 -0.0933 -0.2537 -0.1576
  268loPI   C1A 4279  13.569   3.114  10.178 -0.0533 -0.0934 -0.0139
  268loPI   C2A 4280  13.590   3.113   9.748 -0.1538  0.2050  0.1944
  268loPI   C3A 4281  13.682   2.839   9.370  0.0131 -0.0277 -0.1452
  268loPI   C4A 4282  13.471   2.839   8.982 -0.3622 -0.2836  0.0304
  268loPI   C5A 4283  13.430   2.518   8.660  0.1359  0.3303 -0.1406
  268loPI   C6A 4284  13.164   2.224   8.669  0.1377  0.1180  0.2168
  268loPI   C1B 4285  13.746   3.569  10.363  0.0335 -0.0565  0.0979
  268loPI   C2B 4286  13.530   3.705  10.002  0.4840 -0.0269  0.0725
  268loPI   C3B 4287  13.561   3.979   9.665  0.0163  0.1338  0.1718
  268loPI   C4B 4288  13.683   3.958   9.304 -0.1251 -0.0617 -0.1410
  269loPI    C1 4289  11.406  16.575  11.315 -0.1926 -0.0633 -0.1426
  269loPI    C2 4290  11.387  16.179  11.368 -0.0345 -0.0672 -0.1087
  269loPI    C3 4291  11.315  16.425  11.675 -0.0988 -0.0704 -0.1213
  269loPI   PO4 4292  11.338  16.652  11.006 -0.1001 -0.3046 -0.0103
  269loPI   GL1 4293  11.346  16.468  10.590 -0.0565 -0.0152 -0.0352
  269loPI   GL2 4294  11.120  16.248  10.524  0.1584 -0.0350 -0.3119
  269loPI   C1A 4295  11.266  16.718  10.227 -0.2488 -0.1275  0.2599
  269loPI   C2A 4296  11.274  16.696   9.760 -0.0708  0.0747 -0.3288
  269loPI   C3A 4297  11.251  16.712   9.362 -0.2153  0.0182 -0.2840
  269loPI   C4A 4298  11.071  16.685   9.047 -0.3633 -0.0678  0.4248
  269loPI   C5A 4299  11.130  16.650   8.603  0.2075  0.2331 -0.1180
  269loPI   C6A 4300  11.410  16.428   8.371 -0.0708  0.1049 -0.0240
  269loPI   C1B 4301  11.118  16.194  10.061 -0.0160 -0.0394 -0.0979
  269loPI   C2B 4302  11.087  16.253   9.644 -0.0052  0.1724  0.0419
  269loPI   C3B 4303  10.886  16.233   9.211  0.2984  0.1214  0.1405
  269loPI   C4B 4304  10.661  16.506   8.934 -0.3818  0.2596 -0.3346
  270loPI    C1 4305  11.923   0.344  10.995  0.1003  0.0455  0.0225
  270loPI    C2 4306  11.860   0.695  11.177  0.1157  0.1383 -0.1497
  270loPI    C3 4307  11.550   0.478  11.047  0.0993  0.0186  0.0855
  270loPI   PO4 4308  12.093   0.343  10.770  0.0003  0.0815 -0.1475
  270loPI   GL1 4309  11.925   0.378  10.353 -0.0374  0.2812  0.1376
  270loPI   GL2 4310  11.642   0.368  10.537  0.1411  0.2336  0.0192
  270loPI   C1A 4311  11.876   0.206   9.954  0.3864 -0.1857  0.0384
  270loPI   C2A 4312  11.814   0.150   9.600 -0.0343  0.0391  0.1730
  270loPI   C3A 4313  11.556   0.025   9.248 -0.2020  0.1238 -0.1089
  270loPI   C4A 4314  11.524   0.092   8.843 -0.0736  0.0399  0.2119
  270loPI   C5A 4315  11.482   0.522   8.647  0.0196  0.1430 -0.0633
  270loPI   C6A 4316  11.540   0.737   8.324 -0.1142  0.1582  0.0773
  270loPI   C1B 4317  11.419   0.250  10.249  0.1805 -0.0974 -0.3978
  270loPI   C2B 4318  11.293   0.244   9.858 -0.1997  0.1977 -0.0030
  270loPI   C3B 4319  11.170   0.213   9.520  0.0284 -0.1592 -0.1417
  270loPI   C4B 4320  11.073   0.329   9.074 -0.1139 -0.2009  0.1762
  271loPI    C1 4321   3.974   6.635  10.398  0.1418  0.0716 -0.2272
  271loPI    C2 4322   3.825   6.689  10.766  0.0817 -0.0786 -0.2285
  271loPI    C3 4323   4.157   6.882  10.653  0.1502 -0.0994 -0.0650
  271loPI   PO4 4324   3.786   6.643  10.266 -0.2399  0.1535 -0.0827
  271loPI   GL1 4325   3.715   6.548   9.843  0.0350  0.1948  0.0340
  271loPI   GL2 4326   3.400   6.656   9.873 -0.0127  0.1282 -0.0934
  271loPI   C1A 4327   3.889   6.220   9.556  0.3195 -0.0585  0.2134
  271loPI   C2A 4328   3.946   6.026   9.247 -0.1977 -0.1642 -0.1008
  271loPI   C3A 4329   3.871   5.981   8.755 -0.4412  0.1137 -0.3552
  271loPI   C4A 4330   3.654   5.939   8.496 -0.1972 -0.1357  0.2616
  271loPI   C5A 4331   3.401   6.007   8.175  0.3365  0.2143 -0.2040
  271loPI   C6A 4332   3.133   6.338   8.041  0.0727 -0.3042  0.1731
  271loPI   C1B 4333   3.507   6.673   9.418 -0.0420  0.1741  0.0223
  271loPI   C2B 4334   3.678   6.456   9.105  0.0969 -0.2631 -0.1197
  271loPI   C3B 4335   3.578   6.410   8.780 -0.0054  0.1576 -0.0267
  271loPI   C4B 4336   3.521   6.530   8.297  0.0152  0.1978 -0.2559
  272loPI    C1 4337  12.191   2.982  10.950  0.1566  0.0271 -0.0269
  272loPI    C2 4338  11.918   3.207  11.136 -0.1847 -0.1777 -0.2670
  272loPI    C3 4339  12.266   3.368  11.022 -0.0166 -0.0176  0.4252
  272loPI   PO4 4340  12.160   2.865  10.718 -0.1501  0.3123 -0.4200
  272loPI   GL1 4341  12.305   2.888  10.356  0.1960  0.0608 -0.2250
  272loPI   GL2 4342  12.080   2.575  10.270 -0.3503  0.0870  0.0992
  272loPI   C1A 4343  12.491   2.673   9.939 -0.0372  0.1047 -0.1207
  272loPI   C2A 4344  12.561   2.599   9.459  0.0426  0.1055  0.0532
  272loPI   C3A 4345  12.522   2.343   9.080  0.0659  0.2155  0.1305
  272loPI   C4A 4346  12.578   2.160   8.700  0.1295  0.0339 -0.1399
  272loPI   C5A 4347  12.388   2.081   8.378 -0.1054 -0.1375 -0.0059
  272loPI   C6A 4348  11.872   2.252   8.439 -0.2169 -0.0518  0.0196
  272loPI   C1B 4349  12.092   2.459   9.778  0.4277 -0.0311 -0.0647
  272loPI   C2B 4350  12.111   2.427   9.378  0.1533 -0.0421  0.0957
  272loPI   C3B 4351  12.164   2.639   8.906 -0.0514 -0.0877  0.0818
  272loPI   C4B 4352  12.222   2.545   8.634  0.2158  0.3188 -0.2961
  273loPI    C1 4353   4.609  13.157  10.682 -0.0559 -0.1989  0.1987
  273loPI    C2 4354   4.795  13.363  10.970  0.1042  0.1094 -0.1179
  273loPI    C3 4355   4.397  13.385  10.933  0.0750  0.0086  0.1237
  273loPI   PO4 4356   4.744  13.223  10.495  0.3201  0.0503 -0.0773
  273loPI   GL1 4357   4.756  12.850  10.251  0.1775  0.2176 -0.0725
  273loPI   GL2 4358   4.902  13.016  10.081 -0.0906  0.0873 -0.0462
  273loPI   C1A 4359   4.409  12.525  10.165  0.4935  0.0228  0.2568
  273loPI   C2A 4360   4.109  12.524   9.872  0.2829  0.1646  0.0850
  273loPI   C3A 4361   3.822  12.681   9.584 -0.0730 -0.0975 -0.0542
  273loPI   C4A 4362   3.627  12.721   9.146 -0.0933  0.1207 -0.0796
  273loPI   C5A 4363   3.347  12.742   8.799  0.1258 -0.1016 -0.3119
  273loPI   C6A 4364   3.042  12.689   8.541 -0.2735  0.1905 -0.1835
  273loPI   C1B 4365   4.591  12.923   9.786 -0.0059  0.1412 -0.1649
  273loPI   C2B 4366   4.288  12.806   9.502 -0.2162  0.0449  0.1458
  273loPI   C3B 4367   4.045  12.490   9.143  0.1473 -0.0403  0.0499
  273loPI   C4B 4368   3.993  12.238   8.655  0.1329  0.0081 -0.1697
  274loPI    C1 4369   6.167  14.785  10.929 -0.1080  0.0595 -0.1504
  274loPI    C2 4370   6.308  15.091  11.145 -0.0262  0.1505 -0.3302
  274loPI    C3 4371   6.302  14.722  11.300  0.0384  0.2132 -0.1762
  274loPI   PO4 4372   6.291  14.744  10.674  0.2411 -0.0462 -0.2463
  274loPI   GL1 4373   6.392  14.378  10.353  0.1047  0.1340  0.4496
  274loPI   GL2 4374   6.416  14.041  10.452 -0.2751  0.2850 -0.2860
  274loPI   C1A 4375   6.465  14.582   9.981  0.1580  0.0047 -0.2017
  274loPI   C2A 4376   6.531  14.620   9.454  0.0041  0.0052  0.1474
  274loPI   C3A 4377   6.472  14.670   9.095  0.1626  0.2991  0.1497
  274loPI   C4A 4378   6.468  14.677   8.612 -0.0714 -0.1032  0.2095
  274loPI   C5A 4379   6.458  14.866   8.229 -0.0288 -0.0431  0.0651
  274loPI   C6A 4380   6.669  14.985   7.892  0.0577 -0.1431  0.1505
  274loPI   C1B 4381   6.630  14.034  10.048  0.0039 -0.3194  0.2354
  274loPI   C2B 4382   6.653  14.175   9.628 -0.2631 -0.0482 -0.0638
  274loPI   C3B 4383   6.708  14.198   9.232 -0.0722 -0.1013  0.1079
  274loPI   C4B 4384   6.780  14.366   8.750  0.1502 -0.2056  0.0388
  275loPI    C1 4385  12.696   5.712  10.724  0.1397  0.2693  0.0878
  275loPI    C2 4386  12.564   5.489  11.029  0.0332 -0.1397 -0.2472
  275loPI    C3 4387  12.947   5.605  11.017  0.0636 -0.2105 -0.0138
  275loPI   PO4 4388  12.505   5.810  10.629 -0.1197 -0.2456  0.1799
  275loPI   GL1 4389  12.287   5.645  10.221  0.1757 -0.0012  0.2824
  275loPI   GL2 4390  12.243   6.005  10.239  0.3593 -0.2341 -0.2371
  275loPI   C1A 4391  11.985   5.567   9.913 -0.3173  0.0007 -0.1262
  275loPI   C2A 4392  11.798   5.441   9.574 -0.2297 -0.0097  0.2208
  275loPI   C3A 4393  11.696   5.327   9.206 -0.2123  0.1620 -0.1390
  275loPI   C4A 4394  11.569   5.285   8.808  0.3361  0.3065  0.0644
  275loPI   C5A 4395  11.595   5.561   8.408  0.0147  0.1555 -0.0816
  275loPI   C6A 4396  11.647   5.963   8.386  0.1360 -0.2865  0.0998
  275loPI   C1B 4397  12.280   5.964   9.815  0.0922 -0.1256  0.2226
  275loPI   C2B 4398  12.511   5.899   9.446  0.1067  0.0718  0.3097
  275loPI   C3B 4399  12.541   5.859   8.973  0.0487 -0.0171 -0.0386
  275loPI   C4B 4400  12.536   6.194   8.675 -0.0030 -0.0103  0.1246
  276loPI    C1 4401  15.718   2.618  11.183 -0.0318  0.0565  0.1501
  276loPI    C2 4402  15.912   2.287  11.071 -0.2319 -0.0378  0.0782
  276loPI    C3 4403  15.636   2.269  11.360  0.0128  0.1347  0.3282
  276loPI   PO4 4404  15.639   2.782  11.003  0.0410  0.2736 -0.0162
  276loPI   GL1 4405  15.744   2.856  10.574  0.0065  0.2835  0.2267
  276loPI   GL2 4406  15.831   2.574  10.613  0.1028  0.0462  0.2896
  276loPI   C1A 4407  15.435   2.766  10.305 -0.1332  0.1965 -0.3716
  276loPI   C2A 4408  15.410   2.721   9.906 -0.0055 -0.0086  0.1706
  276loPI   C3A 4409  15.430   2.640   9.456 -0.2460  0.0165  0.0313
  276loPI   C4A 4410  15.260   2.575   9.067 -0.1918 -0.1640  0.2243
  276loPI   C5A 4411  15.034   2.832   8.717 -0.4505  0.4692 -0.3374
  276loPI   C6A 4412  14.691   3.138   8.616  0.0184  0.3974 -0.2183
  276loPI   C1B 4413  15.793   2.469  10.148 -0.0074  0.0278  0.1631
  276loPI   C2B 4414  15.777   2.333   9.733 -0.1531  0.2667  0.2376
  276loPI   C3B 4415  15.774   2.359   9.284  0.0581 -0.2469  0.0096
  276loPI   C4B 4416  15.734   2.215   8.885 -0.2582  0.0923  0.2355
  277loPI    C1 4417   5.761   5.488  10.548  0.2722  0.0717  0.0154
  277loPI    C2 4418   5.707   5.638  10.914  0.0798  0.1422 -0.0406
  277loPI    C3 4419   5.563   5.276  10.823  0.1408  0.1183 -0.0419
  277loPI   PO4 4420   6.017   5.532  10.470 -0.2691 -0.1354  0.3155
  277loPI   GL1 4421   6.059   5.498  10.074 -0.0510  0.2258 -0.0645
  277loPI   GL2 4422   6.153   5.396   9.862  0.2279  0.0070 -0.0785
  277loPI   C1A 4423   5.746   5.651   9.754  0.0545 -0.0369  0.0163
  277loPI   C2A 4424   5.619   5.787   9.303  0.3240  0.0429 -0.0969
  277loPI   C3A 4425   5.561   5.698   8.892 -0.2966 -0.0585  0.2882
  277loPI   C4A 4426   5.767   5.549   8.586 -0.1014 -0.1244  0.1640
  277loPI   C5A 4427   5.912   5.945   8.444 -0.2290 -0.1410 -0.4500
  277loPI   C6A 4428   6.012   6.365   8.373 -0.2342  0.2315 -0.1149
  277loPI   C1B 4429   6.194   5.390   9.422  0.1872 -0.2678 -0.1191
  277loPI   C2B 4430   6.357   5.353   9.068  0.1697 -0.1587 -0.2344
  277loPI   C3B 4431   6.241   5.381   8.588 -0.1765 -0.2448  0.0454
  277loPI   C4B 4432   6.106   5.537   8.178  0.1045 -0.2475 -0.2540
  278loPI    C1 4433   2.903   4.071  10.777 -0.1200 -0.0323  0.2075
  278loPI    C2 4434   3.084   3.772  10.972 -0.0447  0.0652  0.2884
  278loPI    C3 4435   3.242   4.139  10.977 -0.0090  0.0568 -0.0074
  278loPI   PO4 4436   2.919   4.004  10.595  0.1832 -0.4178  0.2983
  278loPI   GL1 4437   2.810   4.149  10.183 -0.2157 -0.2536 -0.0634
  278loPI   GL2 4438   2.616   3.864  10.194 -0.3117 -0.1723  0.0836
  278loPI   C1A 4439   2.960   4.198   9.720 -0.3428  0.3204  0.1139
  278loPI   C2A 4440   2.830   4.416   9.255 -0.1254 -0.3249  0.1345
  278loPI   C3A 4441   2.700   4.494   8.719 -0.1058 -0.1165 -0.1268
  278loPI   C4A 4442   2.317   4.395   8.424  0.1750  0.0438 -0.0431
  278loPI   C5A 4443   2.003   4.390   8.105  0.0721 -0.0324  0.0789
  278loPI   C6A 4444   1.605   4.418   8.078  0.1509 -0.2346 -0.0099
  278loPI   C1B 4445   2.577   3.793   9.738 -0.1061 -0.0693  0.0564
  278loPI   C2B 4446   2.441   4.029   9.361 -0.0300  0.2458  0.1242
  278loPI   C3B 4447   2.322   4.254   9.001 -0.3752  0.2468 -0.0790
  278loPI   C4B 4448   2.253   4.683   8.823  0.1771  0.0331  0.0818
  279loPI    C1 4449   4.338   1.513  10.606  0.3428 -0.3265 -0.0792
  279loPI    C2 4450   4.124   1.329  10.889 -0.1897  0.3283 -0.0321
  279loPI    C3 4451   4.455   1.529  10.988  0.0367 -0.0555  0.0072
  279loPI   PO4 4452   4.200   1.647  10.406 -0.0835  0.3102 -0.1432
  279loPI   GL1 4453   4.186   1.586   9.985 -0.1778  0.0439  0.1873
  279loPI   GL2 4454   3.874   1.818  10.122 -0.0772  0.2583 -0.0456
  279loPI   C1A 4455   4.222   1.649   9.570  0.0319 -0.0895 -0.0643
  279loPI   C2A 4456   4.266   1.817   9.193 -0.0071  0.0410  0.1085
  279loPI   C3A 4457   4.253   1.877   8.853 -0.0427  0.1304 -0.1558
  279loPI   C4A 4458   3.957   1.769   8.445 -0.0872 -0.1099  0.1377
  279loPI   C5A 4459   4.003   1.926   8.051  0.3198  0.0883  0.1099
  279loPI   C6A 4460   3.981   1.876   7.591 -0.0861  0.0322  0.0443
  279loPI   C1B 4461   3.920   2.010   9.721  0.0028 -0.2488 -0.0477
  279loPI   C2B 4462   3.939   2.174   9.263 -0.2596  0.0180 -0.0481
  279loPI   C3B 4463   3.784   2.164   8.818 -0.5895 -0.0060  0.0803
  279loPI   C4B 4464   3.523   2.056   8.430  0.2266 -0.1519 -0.0263
  280loPI    C1 4465  13.898   6.333  10.636  0.0397  0.0578 -0.1401
  280loPI    C2 4466  13.556   6.267  10.832  0.2085 -0.0269  0.1310
  280loPI    C3 4467  13.861   6.447  11.018  0.2896  0.1081 -0.1291
  280loPI   PO4 4468  13.818   6.358  10.407  0.0607 -0.1153  0.1123
  280loPI   GL1 4469  13.999   6.067  10.126 -0.2127  0.3375  0.0880
  280loPI   GL2 4470  14.305   6.148  10.045  0.1179 -0.2659  0.1233
  280loPI   C1A 4471  14.123   5.904   9.642 -0.3126  0.1711  0.0145
  280loPI   C2A 4472  14.012   5.850   9.231  0.0665  0.0715 -0.2663
  280loPI   C3A 4473  13.885   6.003   8.911  0.0809 -0.0934  0.0492
  280loPI   C4A 4474  13.643   5.843   8.506 -0.0395  0.2597  0.0327
  280loPI   C5A 4475  13.277   5.625   8.435 -0.2993  0.1953  0.0853
  280loPI   C6A 4476  13.196   5.352   8.784 -0.1476 -0.1917  0.1010
  280loPI   C1B 4477  14.354   6.367   9.617  0.0438 -0.0431  0.0468
  280loPI   C2B 4478  14.243   6.353   9.263  0.0509  0.1163 -0.1966
  280loPI   C3B 4479  14.359   6.499   8.975 -0.0342  0.1867  0.3260
  280loPI   C4B 4480  14.505   6.586   8.513  0.2509  0.1135 -0.1917
  281loPI    C1 4481   1.658   9.427  10.846 -0.1080  0.1775  0.1095
  281loPI    C2 4482   1.792   9.081  10.995 -0.0442  0.0214 -0.2971
  281loPI    C3 4483   1.533   9.302  11.205  0.1705 -0.1050  0.1126
  281loPI   PO4 4484   1.811   9.410  10.556  0.1424 -0.1027 -0.0174
  281loPI   GL1 4485   2.038   9.530  10.252  0.0712  0.0919 -0.1606
  281loPI   GL2 4486   1.973   9.231  10.131 -0.1296 -0.2581 -0.1443
  281loPI   C1A 4487   2.068   9.672   9.764  0.1213  0.3123  0.0933
  281loPI   C2A 4488   2.191   9.910   9.334  0.0609 -0.3201 -0.3048
  281loPI   C3A 4489   2.012   9.792   8.912  0.0140 -0.0635 -0.1439
  281loPI   C4A 4490   2.076   9.379   8.628  0.0783  0.3031 -0.0600
  281loPI   C5A 4491   2.384   9.456   8.324 -0.0379 -0.1250  0.1394
  281loPI   C6A 4492   2.535   9.746   8.003 -0.0455  0.1015 -0.0190
  281loPI   C1B 4493   1.765   9.292   9.810 -0.0545 -0.0366  0.1033
  281loPI   C2B 4494   1.555   9.383   9.449 -0.0155  0.3893  0.2825
  281loPI   C3B 4495   1.605   9.527   9.053 -0.0934  0.0793  0.0342
  281loPI   C4B 4496   1.621   9.756   8.630 -0.2964 -0.2732  0.1491
  282loPI    C1 4497  15.091  11.448  11.194 -0.1505 -0.0461  0.2959
  282loPI    C2 4498  15.313  11.167  11.373 -0.0920 -0.0605  0.2018
  282loPI    C3 4499  14.931  11.219  11.481 -0.0421 -0.0322  0.3683
  282loPI   PO4 4500  15.227  11.634  11.141 -0.0557 -0.1855 -0.1431
  282loPI   GL1 4501  15.423  11.681  10.715 -0.0117  0.0065  0.0323
  282loPI   GL2 4502  15.233  11.677  10.398  0.1203  0.2204 -0.1848
  282loPI   C1A 4503  15.725  11.817  10.389 -0.2561  0.1335 -0.0573
  282loPI   C2A 4504  15.823  11.755   9.960 -0.0788 -0.0582 -0.2041
  282loPI   C3A 4505  15.908  11.500   9.578 -0.2680 -0.1876  0.2000
  282loPI   C4A 4506  15.847  11.591   9.046 -0.0822 -0.1655 -0.2050
  282loPI   C5A 4507  15.869  11.781   8.572  0.0230 -0.1709  0.1311
  282loPI   C6A 4508  15.767  12.128   8.354 -0.0837 -0.2284  0.1295
  282loPI   C1B 4509  15.322  11.614  10.093 -0.3709  0.2229  0.0188
  282loPI   C2B 4510  15.382  11.611   9.735  0.1000 -0.0368  0.0495
  282loPI   C3B 4511  15.388  11.693   9.352 -0.2761  0.2909  0.1442
  282loPI   C4B 4512  15.427  11.668   8.847  0.0096  0.0192  0.1988
  283loPI    C1 4513  15.473   3.727  11.132 -0.0451 -0.0242 -0.0890
  283loPI    C2 4514  15.790   3.938  11.254  0.0083 -0.0631 -0.1605
  283loPI    C3 4515  15.421   4.065  11.340  0.0456 -0.1071  0.0693
  283loPI   PO4 4516  15.429   3.692  10.821 -0.2987 -0.0029 -0.0756
  283loPI   GL1 4517  15.626   3.662  10.392 -0.0502  0.3265 -0.0246
  283loPI   GL2 4518  15.700   3.321  10.365 -0.0888 -0.0458  0.1336
  283loPI   C1A 4519  15.667   3.738   9.994 -0.3590  0.1358 -0.0628
  283loPI   C2A 4520  15.700   3.699   9.640 -0.1265  0.0152  0.0016
  283loPI   C3A 4521  16.041   3.837   9.442  0.1610  0.0363 -0.2112
  283loPI   C4A 4522  16.288   4.000   9.247  0.0336  0.0004 -0.1197
  283loPI   C5A 4523  16.473   3.941   8.943 -0.1922  0.1266 -0.2405
  283loPI   C6A 4524  16.849   4.150   8.921  0.0687 -0.3332 -0.1897
  283loPI   C1B 4525  15.514   3.275   9.979  0.0771  0.1076  0.2028
  283loPI   C2B 4526  15.516   3.181   9.518  0.2335 -0.1231 -0.1586
  283loPI   C3B 4527  15.393   3.041   9.130  0.2099 -0.0492  0.0785
  283loPI   C4B 4528  15.429   3.202   8.689  0.6683  0.3113  0.0777
  284loPI    C1 4529   7.310   7.089  10.547  0.1746  0.1111  0.0266
  284loPI    C2 4530   7.416   7.061  10.932 -0.0588 -0.0831  0.0795
  284loPI    C3 4531   7.361   6.729  10.716  0.0973  0.0255 -0.1307
  284loPI   PO4 4532   7.476   7.208  10.406 -0.0764  0.0905  0.0948
  284loPI   GL1 4533   7.892   7.242  10.180  0.1722 -0.0592  0.0097
  284loPI   GL2 4534   7.905   6.942  10.010 -0.0183 -0.0610 -0.0331
  284loPI   C1A 4535   7.720   7.338   9.791 -0.0608  0.0152 -0.0852
  284loPI   C2A 4536   7.766   7.345   9.340 -0.0315  0.0694 -0.1855
  284loPI   C3A 4537   7.795   7.401   8.933 -0.0635 -0.2907 -0.1381
  284loPI   C4A 4538   7.353   7.289   8.714 -0.1069 -0.0299  0.1629
  284loPI   C5A 4539   7.155   6.985   8.435 -0.1051  0.1112 -0.0391
  284loPI   C6A 4540   6.739   6.888   8.247 -0.0702  0.0449  0.0055
  284loPI   C1B 4541   8.048   6.930   9.505 -0.2687 -0.0333  0.0769
  284loPI   C2B 4542   8.042   6.931   9.096  0.0239 -0.1312 -0.0328
  284loPI   C3B 4543   8.210   7.164   8.794  0.1207  0.0806  0.0394
  284loPI   C4B 4544   8.692   7.282   8.558  0.1793  0.0814 -0.1284
  285loPI    C1 4545   5.006   2.916  11.001  0.0364  0.0002 -0.1322
  285loPI    C2 4546   4.839   2.652  11.250 -0.1899  0.2118 -0.0559
  285loPI    C3 4547   5.216   2.770  11.308 -0.1847  0.1295  0.0847
  285loPI   PO4 4548   4.984   2.823  10.748 -0.3408  0.3810 -0.1642
  285loPI   GL1 4549   4.819   2.944  10.296  0.0074  0.0911  0.0360
  285loPI   GL2 4550   4.667   3.235  10.184  0.4098 -0.1289  0.2352
  285loPI   C1A 4551   5.010   2.899   9.882  0.1709  0.0406 -0.2357
  285loPI   C2A 4552   5.098   2.748   9.458  0.0844  0.0379  0.1046
  285loPI   C3A 4553   5.053   2.797   9.051 -0.2800 -0.0846  0.0644
  285loPI   C4A 4554   5.215   2.574   8.574  0.1619 -0.0772  0.0305
  285loPI   C5A 4555   5.526   2.113   8.598 -0.2829  0.0854  0.2162
  285loPI   C6A 4556   5.984   1.925   8.545  0.4568  0.2080 -0.3748
  285loPI   C1B 4557   4.555   3.233   9.823 -0.3770 -0.0640 -0.0383
  285loPI   C2B 4558   4.475   3.257   9.496  0.2855 -0.1957 -0.2130
  285loPI   C3B 4559   4.218   3.239   9.158 -0.2064  0.4584  0.3739
  285loPI   C4B 4560   4.265   3.433   8.811 -0.0657  0.1652  0.1209
  286loPI    C1 4561   3.158  12.801  11.092  0.1890  0.1720 -0.1591
  286loPI    C2 4562   3.163  12.940  11.467 -0.0003  0.0185 -0.0979
  286loPI    C3 4563   3.493  12.780  11.308  0.0788  0.0791  0.0049
  286loPI   PO4 4564   3.007  13.105  10.961 -0.1525  0.0749 -0.1859
  286loPI   GL1 4565   2.763  13.189  10.716 -0.2690 -0.1203 -0.2136
  286loPI   GL2 4566   2.475  13.053  10.790 -0.2698 -0.5937 -0.0845
  286loPI   C1A 4567   2.586  13.158  10.275  0.2750  0.1874 -0.0119
  286loPI   C2A 4568   2.563  13.176   9.827  0.1046  0.1591  0.1101
  286loPI   C3A 4569   2.510  13.145   9.433  0.1118  0.2316 -0.2972
  286loPI   C4A 4570   2.390  13.193   9.043 -0.1350  0.2606 -0.0031
  286loPI   C5A 4571   2.117  13.321   8.679  0.3156 -0.0314 -0.3624
  286loPI   C6A 4572   1.981  13.777   8.434  0.1928  0.1021  0.0571
  286loPI   C1B 4573   2.462  12.753  10.529 -0.3508  0.0660 -0.0244
  286loPI   C2B 4574   2.476  12.580  10.139 -0.3589  0.0695 -0.1549
  286loPI   C3B 4575   2.329  12.636   9.755  0.0085  0.3809  0.0823
  286loPI   C4B 4576   2.378  12.651   9.342 -0.2150 -0.0973 -0.0323
  287loPI    C1 4577   1.799   0.630  10.937  0.0130  0.1014  0.3365
  287loPI    C2 4578   1.860   0.994  11.092  0.1127  0.1480  0.1894
  287loPI    C3 4579   1.653   0.721  11.299  0.1041  0.2624  0.3337
  287loPI   PO4 4580   1.713   0.640  10.623 -0.3660 -0.1527  0.1806
  287loPI   GL1 4581   1.760   0.511  10.240  0.0088  0.0577 -0.1376
  287loPI   GL2 4582   2.068   0.603  10.029 -0.1124  0.0490  0.0505
  287loPI   C1A 4583   1.614   0.353   9.918 -0.1112  0.2194 -0.3789
  287loPI   C2A 4584   1.647   0.445   9.470 -0.3351  0.5129  0.1274
  287loPI   C3A 4585   1.512   0.553   9.136  0.1612  0.0155 -0.0875
  287loPI   C4A 4586   1.411   0.603   8.710 -0.0084  0.1165 -0.1529
  287loPI   C5A 4587   1.179   0.783   8.307 -0.1190 -0.1724 -0.2774
  287loPI   C6A 4588   0.978   1.111   8.139  0.1519  0.2449  0.2426
  287loPI   C1B 4589   2.107   0.669   9.623  0.2052  0.0382 -0.0202
  287loPI   C2B 4590   2.041   0.672   9.256 -0.2546  0.0928  0.0057
  287loPI   C3B 4591   1.904   0.599   8.822  0.0238  0.0626 -0.0701
  287loPI   C4B 4592   1.830   0.576   8.416  0.2289 -0.0779 -0.2974
  288loPI    C1 4593   3.335   8.522  11.204 -0.0463 -0.0192  0.1101
  288loPI    C2 4594   3.634   8.714  11.387 -0.1035 -0.0504  0.2377
  288loPI    C3 4595   3.255   8.804  11.477 -0.1338  0.0267  0.0375
  288loPI   PO4 4596   3.338   8.568  10.968  0.2986  0.0053  0.0739
  288loPI   GL1 4597   3.410   8.786  10.591 -0.3568  0.0796 -0.1196
  288loPI   GL2 4598   3.283   8.955  10.409 -0.0237  0.4689 -0.2535
  288loPI   C1A 4599   3.665   8.621  10.106  0.5605  0.1411 -0.1831
  288loPI   C2A 4600   3.664   8.593   9.698  0.0970 -0.1745  0.0654
  288loPI   C3A 4601   3.751   8.620   9.229 -0.0261 -0.3956  0.1267
  288loPI   C4A 4602   3.723   8.683   8.782 -0.0381  0.0987  0.0673
  288loPI   C5A 4603   3.607   8.898   8.427 -0.2574 -0.0073 -0.2662
  288loPI   C6A 4604   3.814   9.250   8.113 -0.3020  0.0429  0.0533
  288loPI   C1B 4605   3.393   9.049   9.934 -0.0598  0.2804  0.2354
  288loPI   C2B 4606   3.257   9.155   9.523  0.2910 -0.1579  0.1120
  288loPI   C3B 4607   3.245   9.153   9.154 -0.0273  0.0011  0.2160
  288loPI   C4B 4608   3.472   9.119   8.883 -0.2780  0.2796  0.0687
  289loPI    C1 4609  10.366   2.886  10.884  0.2070  0.1751  0.2431
  289loPI    C2 4610   9.974   2.962  10.876  0.2450  0.3524 -0.1031
  289loPI    C3 4611  10.147   2.840  11.216 -0.1422  0.0842  0.0045
  289loPI   PO4 4612  10.355   2.712  10.662 -0.1088 -0.0861  0.1384
  289loPI   GL1 4613  10.642   2.705  10.294 -0.0155 -0.0088  0.0613
  289loPI   GL2 4614  10.568   2.963  10.314  0.2439 -0.1112 -0.0286
  289loPI   C1A 4615  10.574   2.372  10.166  0.2439  0.1454  0.0372
  289loPI   C2A 4616  10.466   2.338   9.706  0.1546  0.3173 -0.2408
  289loPI   C3A 4617  10.386   2.262   9.333  0.0512 -0.0669  0.2267
  289loPI   C4A 4618  10.270   2.374   8.999  0.0707  0.2488  0.1663
  289loPI   C5A 4619  10.397   2.505   8.566  0.1778  0.0776 -0.3834
  289loPI   C6A 4620  10.199   2.416   8.168  0.1089  0.1396  0.1697
  289loPI   C1B 4621  10.616   2.828   9.792 -0.0553  0.3176  0.0355
  289loPI   C2B 4622  10.560   2.692   9.428  0.0214 -0.4091 -0.0723
  289loPI   C3B 4623  10.453   2.810   9.045 -0.0065  0.0424 -0.2147
  289loPI   C4B 4624  10.287   2.971   8.689  0.2223  0.1443 -0.0037
  290loPI    C1 4625   0.127   1.079  10.606  0.0664  0.0882  0.0230
  290loPI    C2 4626   0.344   1.075  10.942  0.0059 -0.0820  0.0610
  290loPI    C3 4627   0.521   1.146  10.591  0.1500 -0.3586  0.0749
  290loPI   PO4 4628  -0.055   0.802  10.677  0.0588 -0.0444  0.0544
  290loPI   GL1 4629  -0.005   0.514  10.302 -0.1072  0.2640  0.0566
  290loPI   GL2 4630   0.286   0.466  10.241  0.1769  0.3252 -0.3690
  290loPI   C1A 4631   0.008   0.682   9.838 -0.0601  0.2594  0.3314
  290loPI   C2A 4632  -0.032   0.718   9.382 -0.1043 -0.2094 -0.0906
  290loPI   C3A 4633   0.086   0.592   8.907 -0.1294 -0.0516  0.1113
  290loPI   C4A 4634  -0.138   0.470   8.625 -0.0123  0.0954 -0.1307
  290loPI   C5A 4635  -0.492   0.341   8.428  0.2434 -0.1784 -0.0128
  290loPI   C6A 4636  -0.393  -0.053   8.179 -0.6031 -0.0082  0.0590
  290loPI   C1B 4637   0.192   0.213   9.940  0.6015  0.1830  0.0608
  290loPI   C2B 4638   0.113   0.238   9.527 -0.1660 -0.0817 -0.2126
  290loPI   C3B 4639  -0.147   0.189   9.197  0.1790 -0.1306 -0.0577
  290loPI   C4B 4640  -0.580   0.167   9.053  0.0078  0.1642  0.1372
  291loPI    C1 4641   9.067  11.932  10.797  0.1395 -0.0377  0.1549
  291loPI    C2 4642   9.218  11.629  11.009  0.0088 -0.2239 -0.0142
  291loPI    C3 4643   8.894  11.823  11.140  0.2314  0.0025  0.2144
  291loPI   PO4 4644   9.030  11.780  10.538 -0.2441 -0.1608  0.0266
  291loPI   GL1 4645   9.325  11.724  10.160  0.0074  0.2439  0.2644
  291loPI   GL2 4646   9.328  11.438  10.152  0.0481 -0.2381  0.1162
  291loPI   C1A 4647   9.118  11.759   9.761 -0.0123 -0.0890 -0.2597
  291loPI   C2A 4648   9.122  11.696   9.222  0.1598 -0.0262  0.2603
  291loPI   C3A 4649   9.052  11.412   8.917 -0.2264  0.1236  0.1080
  291loPI   C4A 4650   9.078  11.236   8.501 -0.0730  0.3836 -0.3400
  291loPI   C5A 4651   9.372  11.319   8.147 -0.3961 -0.1193 -0.2062
  291loPI   C6A 4652   9.764  11.485   8.303 -0.1494 -0.0608 -0.1475
  291loPI   C1B 4653   9.455  11.293   9.856  0.0797 -0.0148 -0.2062
  291loPI   C2B 4654   9.383  11.236   9.375  0.0081  0.0409  0.2908
  291loPI   C3B 4655   9.448  11.149   8.924  0.2536 -0.1293  0.1208
  291loPI   C4B 4656   9.554  11.049   8.514  0.2658 -0.2115 -0.1777
  292loPI    C1 4657  14.090   8.922  10.806  0.0188  0.0266 -0.2249
  292loPI    C2 4658  14.423   9.125  10.717 -0.0115  0.1083 -0.1534
  292loPI    C3 4659  14.274   9.138  11.088 -0.1630  0.1717 -0.2155
  292loPI   PO4 4660  13.931   8.958  10.662 -0.1254 -0.1890  0.3344
  292loPI   GL1 4661  13.701   9.009  10.257 -0.1114  0.2323  0.1004
  292loPI   GL2 4662  13.557   9.298  10.204 -0.0842 -0.2310  0.3186
  292loPI   C1A 4663  13.702   8.997   9.769  0.1724  0.0292 -0.0254
  292loPI   C2A 4664  13.659   9.089   9.415  0.0759  0.0243  0.0393
  292loPI   C3A 4665  13.499   9.130   9.071  0.0072  0.1277  0.0579
  292loPI   C4A 4666  13.467   9.262   8.660 -0.0417  0.1437  0.2950
  292loPI   C5A 4667  13.320   9.359   8.225 -0.1078 -0.1826 -0.4292
  292loPI   C6A 4668  13.393   9.664   7.993  0.2163  0.0434  0.1455
  292loPI   C1B 4669  13.518   9.443   9.814 -0.1313  0.0436  0.3777
  292loPI   C2B 4670  13.437   9.547   9.429 -0.0100 -0.0400  0.1252
  292loPI   C3B 4671  13.570   9.650   9.057 -0.2177  0.0794 -0.1842
  292loPI   C4B 4672  13.376   9.793   8.574  0.1103  0.0703 -0.2606
  293loPI    C1 4673   3.768   2.251  10.856  0.0304 -0.0791 -0.0345
  293loPI    C2 4674   3.521   2.338  11.159 -0.0564  0.0253 -0.1342
  293loPI    C3 4675   3.902   2.458  11.171  0.0170 -0.2173  0.0633
  293loPI   PO4 4676   3.606   2.372  10.535 -0.3371  0.0343  0.3448
  293loPI   GL1 4677   3.749   2.288  10.135 -0.2910  0.0392  0.1553
  293loPI   GL2 4678   3.990   2.439  10.110  0.0430 -0.0390  0.0367
  293loPI   C1A 4679   3.597   2.658   9.843 -0.1418 -0.2879 -0.0325
  293loPI   C2A 4680   3.514   2.725   9.508  0.0635 -0.0143 -0.2641
  293loPI   C3A 4681   3.543   2.544   9.048  0.0685  0.3719 -0.0071
  293loPI   C4A 4682   3.619   2.608   8.549 -0.0340  0.0236 -0.0053
  293loPI   C5A 4683   3.821   2.800   8.231  0.3342  0.1026  0.2221
  293loPI   C6A 4684   3.857   3.202   8.080 -0.1106 -0.0063  0.0783
  293loPI   C1B 4685   4.060   2.524   9.653 -0.5526  0.1672  0.1520
  293loPI   C2B 4686   4.077   2.678   9.330  0.3239 -0.2668  0.1454
  293loPI   C3B 4687   3.903   2.927   8.940 -0.1236  0.0309  0.2292
  293loPI   C4B 4688   3.898   3.166   8.632 -0.1061 -0.1802  0.0960
  294loPI    C1 4689   6.752   0.606  11.115 -0.3509 -0.1154  0.1106
  294loPI    C2 4690   7.083   0.720  11.308 -0.1407 -0.1591 -0.2180
  294loPI    C3 4691   6.731   0.726  11.496 -0.0067  0.2142  0.0314
  294loPI   PO4 4692   6.859   0.336  10.898  0.3786 -0.0253 -0.3266
  294loPI   GL1 4693   6.823   0.441  10.463  0.0285  0.2555 -0.0395
  294loPI   GL2 4694   6.805   0.081  10.372 -0.1654  0.0737  0.1191
  294loPI   C1A 4695   6.891   0.709  10.091 -0.0363 -0.0730 -0.0613
  294loPI   C2A 4696   6.883   0.655   9.632  0.0246  0.0985  0.0992
  294loPI   C3A 4697   6.841   0.764   9.133  0.2692  0.2312 -0.1623
  294loPI   C4A 4698   6.991   0.949   8.794  0.2589  0.0097  0.1412
  294loPI   C5A 4699   7.135   1.179   8.458  0.4204 -0.0209  0.4600
  294loPI   C6A 4700   7.454   1.153   8.215 -0.3435 -0.0287  0.1331
  294loPI   C1B 4701   6.925   0.163   9.951  0.1433  0.1005  0.1186
  294loPI   C2B 4702   6.868   0.021   9.504  0.0029  0.1216  0.0787
  294loPI   C3B 4703   6.862   0.241   9.097 -0.0550  0.0614  0.0852
  294loPI   C4B 4704   6.673   0.187   8.670 -0.0933  0.0522  0.0950
  295loPI    C1 4705  17.377  16.858  10.845 -0.0497 -0.0220  0.1510
  295loPI    C2 4706  17.313  16.517  11.045 -0.2507 -0.0695  0.0093
  295loPI    C3 4707  17.077  16.834  11.109 -0.0667  0.0436  0.1382
  295loPI   PO4 4708  17.402  16.808  10.632  0.4716 -0.2449 -0.1337
  295loPI   GL1 4709  17.428  16.735  10.265  0.4406 -0.2566 -0.1540
  295loPI   GL2 4710  17.296  16.419  10.230 -0.0794 -0.0427  0.0798
  295loPI   C1A 4711  17.587  16.558   9.907 -0.2041  0.0162 -0.0331
  295loPI   C2A 4712  17.524  16.447   9.453 -0.1074 -0.1772 -0.3074
  295loPI   C3A 4713  17.578  16.344   8.971 -0.2087 -0.0721  0.0393
  295loPI   C4A 4714  17.423  16.389   8.537  0.0529 -0.1701  0.0901
  295loPI   C5A 4715  17.237  16.359   8.163 -0.2035 -0.2104 -0.2454
  295loPI   C6A 4716  16.773  16.615   8.118 -0.0606 -0.0053  0.2219
  295loPI   C1B 4717  17.411  16.032   9.912 -0.0863 -0.0216  0.2559
  295loPI   C2B 4718  17.305  15.712   9.555 -0.1900  0.0864 -0.2030
  295loPI   C3B 4719  17.155  15.686   9.179  0.1259 -0.0083 -0.0256
  295loPI   C4B 4720  16.956  15.537   8.747  0.0619 -0.1798  0.0301
  296loPI    C1 4721  16.454   2.336  11.224  0.0125  0.0037 -0.1140
  296loPI    C2 4722  16.613   2.017  11.406  0.0110  0.1881  0.2189
  296loPI    C3 4723  16.231   2.115  11.472  0.0104  0.2577  0.1157
  296loPI   PO4 4724  16.558   2.448  10.947 -0.3163 -0.0423 -0.0458
  296loPI   GL1 4725  16.493   2.583  10.553  0.5101 -0.1678 -0.0655
  296loPI   GL2 4726  16.247   2.283  10.616  0.0873 -0.3018 -0.1207
  296loPI   C1A 4727  16.331   2.462  10.127  0.3844  0.4748 -0.2026
  296loPI   C2A 4728  16.304   2.452   9.642  0.2497 -0.0964 -0.0549
  296loPI   C3A 4729  16.246   2.509   9.320 -0.0409 -0.1899 -0.1017
  296loPI   C4A 4730  16.172   2.561   8.886  0.2178 -0.1369 -0.1318
  296loPI   C5A 4731  16.001   2.377   8.492  0.2517  0.1279  0.0329
  296loPI   C6A 4732  15.907   2.080   8.224  0.1345  0.1234  0.2109
  296loPI   C1B 4733  16.185   2.048  10.242  0.1167 -0.1376  0.1772
  296loPI   C2B 4734  16.187   2.024   9.799  0.1374  0.0162 -0.0471
  296loPI   C3B 4735  16.181   2.028   9.503  0.2183 -0.2032  0.0449
  296loPI   C4B 4736  16.146   1.971   9.110  0.0423  0.0748 -0.0061
  297loPI    C1 4737   1.271   3.481  11.031  0.1011 -0.1516 -0.1051
  297loPI    C2 4738   1.473   3.787  11.191 -0.0999 -0.1262  0.1043
  297loPI    C3 4739   1.589   3.412  11.263 -0.1178 -0.1112  0.2135
  297loPI   PO4 4740   1.298   3.545  10.783 -0.1069  0.2774 -0.1012
  297loPI   GL1 4741   0.979   3.542  10.336  0.0053 -0.2578  0.1510
  297loPI   GL2 4742   1.261   3.639  10.185 -0.3346  0.0329  0.1206
  297loPI   C1A 4743   0.744   3.485  10.014  0.1360  0.3681 -0.0121
  297loPI   C2A 4744   0.634   3.180   9.713 -0.2555 -0.0007 -0.0493
  297loPI   C3A 4745   0.590   3.181   9.247 -0.1223 -0.0672 -0.0193
  297loPI   C4A 4746   0.704   3.178   8.798  0.0007  0.3612 -0.1790
  297loPI   C5A 4747   0.500   2.998   8.468  0.0791 -0.0451  0.0191
  297loPI   C6A 4748   0.225   2.579   8.410  0.0387 -0.2260 -0.1894
  297loPI   C1B 4749   1.264   3.643   9.779 -0.0960  0.0250  0.0376
  297loPI   C2B 4750   0.818   3.604   9.513 -0.2874  0.1547  0.2129
  297loPI   C3B 4751   0.812   3.850   9.155 -0.0248 -0.0853  0.0757
  297loPI   C4B 4752   0.922   3.692   8.769  0.1948 -0.0269 -0.0656
  298loPI    C1 4753  12.727   0.076  11.259  0.1460 -0.0161 -0.3230
  298loPI    C2 4754  12.443   0.087  10.978 -0.0891  0.0038 -0.0884
  298loPI    C3 4755  12.349   0.157  11.361  0.1903 -0.2257  0.0260
  298loPI   PO4 4756  12.969   0.140  11.014 -0.2925  0.2520  0.1046
  298loPI   GL1 4757  13.138   0.200  10.625  0.4887  0.0493  0.1492
  298loPI   GL2 4758  13.216  -0.066  10.458  0.0399 -0.0240  0.2428
  298loPI   C1A 4759  13.369   0.393  10.316 -0.0199 -0.1765  0.0239
  298loPI   C2A 4760  13.361   0.435   9.945  0.2003 -0.0106 -0.1087
  298loPI   C3A 4761  13.331   0.781   9.526 -0.0594  0.2022  0.1848
  298loPI   C4A 4762  13.374   0.977   9.115  0.0415  0.1510 -0.1104
  298loPI   C5A 4763  13.747   1.165   8.861  0.1899  0.1758 -0.1138
  298loPI   C6A 4764  14.045   1.260   8.592  0.1431 -0.1402  0.4868
  298loPI   C1B 4765  13.478  -0.052  10.153 -0.1737 -0.0486  0.2874
  298loPI   C2B 4766  13.560  -0.021   9.723 -0.1025 -0.0888 -0.2075
  298loPI   C3B 4767  13.552  -0.069   9.328  0.1199  0.1098 -0.0106
  298loPI   C4B 4768  13.353  -0.032   8.947  0.2092  0.1953 -0.0708
  299loPI    C1 4769  11.987  11.085  10.972  0.0779 -0.0193 -0.0578
  299loPI    C2 4770  12.052  11.432  11.160 -0.1905  0.0612 -0.1093
  299loPI    C3 4771  12.010  11.095  11.372  0.1290  0.0476 -0.0623
  299loPI   PO4 4772  11.825  11.123  10.819 -0.1296 -0.0637  0.2451
  299loPI   GL1 4773  11.987  11.014  10.462  0.0749  0.0438 -0.0005
  299loPI   GL2 4774  12.239  11.146  10.528 -0.0087 -0.2957 -0.1046
  299loPI   C1A 4775  11.828  10.939  10.125  0.2858  0.1169 -0.0092
  299loPI   C2A 4776  11.794  10.975   9.719  0.0914 -0.1851 -0.1012
  299loPI   C3A 4777  11.682  10.958   9.248  0.0447  0.0243 -0.0155
  299loPI   C4A 4778  11.527  10.968   8.812  0.2809 -0.0982 -0.0555
  299loPI   C5A 4779  11.200  10.887   8.476 -0.0959  0.0173  0.0914
  299loPI   C6A 4780  10.776  10.785   8.480 -0.4370  0.2589  0.0986
  299loPI   C1B 4781  12.207  11.306  10.116  0.0198  0.3047 -0.2362
  299loPI   C2B 4782  12.006  11.414   9.725 -0.0695  0.0067 -0.2341
  299loPI   C3B 4783  12.000  11.342   9.287 -0.0144 -0.6030 -0.4320
  299loPI   C4B 4784  11.994  11.038   8.907  0.0799 -0.2120 -0.0085
  300loPI    C1 4785  12.728  17.092  10.867 -0.1524  0.0498  0.1082
  300loPI    C2 4786  13.115  16.991  10.847 -0.2116 -0.1606  0.0006
  300loPI    C3 4787  12.920  16.969  11.196 -0.0717  0.1601  0.1031
  300loPI   PO4 4788  12.662  17.036  10.629  0.1229 -0.1113  0.2035
  300loPI   GL1 4789  12.560  17.077  10.332 -0.1405 -0.3271  0.0984
  300loPI   GL2 4790  12.230  17.122  10.442 -0.0536  0.2718 -0.3466
  300loPI   C1A 4791  12.461  17.067   9.945 -0.2219  0.0819  0.0959
  300loPI   C2A 4792  12.138  17.046   9.599 -0.2326 -0.2427 -0.0030
  300loPI   C3A 4793  12.184  17.083   9.105 -0.1560  0.0009  0.0509
  300loPI   C4A 4794  12.200  17.233   8.636 -0.1565  0.0175 -0.0562
  300loPI   C5A 4795  12.505  17.531   8.486 -0.2066  0.0794 -0.0187
  300loPI   C6A 4796  12.918  17.748   8.619  0.4203  0.0436 -0.1984
  300loPI   C1B 4797  12.047  17.285  10.057 -0.1422 -0.0600 -0.1039
  300loPI   C2B 4798  11.969  17.501   9.599  0.1171  0.0699  0.1214
  300loPI   C3B 4799  11.940  17.540   9.165  0.2010 -0.2218 -0.1657
  300loPI   C4B 4800  11.953  17.687   8.730 -0.1432  0.1540  0.0526
  301loPI    C1 4801   1.571  16.571  11.269 -0.1253 -0.1515  0.0696
  301loPI    C2 4802   1.635  16.200  11.403  0.2394 -0.1129  0.0119
  301loPI    C3 4803   1.918  16.480  11.446 -0.0103  0.1450  0.0029
  301loPI   PO4 4804   1.483  16.625  10.990 -0.0622 -0.0930 -0.0688
  301loPI   GL1 4805   1.619  16.975  10.658  0.1674 -0.1473 -0.2695
  301loPI   GL2 4806   1.265  17.022  10.663 -0.0990 -0.2278  0.0211
  301loPI   C1A 4807   1.690  17.227  10.261  0.1395  0.0602 -0.0152
  301loPI   C2A 4808   1.782  17.244   9.865  0.2183 -0.2580 -0.1622
  301loPI   C3A 4809   2.000  17.107   9.529 -0.0327 -0.3278 -0.3379
  301loPI   C4A 4810   2.066  17.392   9.142  0.0739  0.0846  0.0783
  301loPI   C5A 4811   1.846  17.490   8.730 -0.0568 -0.0340  0.4048
  301loPI   C6A 4812   1.731  17.611   8.323  0.2385  0.5122  0.2758
  301loPI   C1B 4813   1.254  16.923  10.235 -0.2775  0.4024 -0.1113
  301loPI   C2B 4814   1.323  17.015   9.919 -0.2325  0.0154  0.1163
  301loPI   C3B 4815   1.403  17.303   9.535 -0.0174  0.0647 -0.1265
  301loPI   C4B 4816   1.518  17.371   9.139 -0.2248 -0.4078  0.0816
  302loPI    C1 4817   7.692   0.034  11.218  0.0989 -0.0105  0.0421
  302loPI    C2 4818   7.457  -0.287  11.256 -0.1047  0.1284 -0.0298
  302loPI    C3 4819   7.601  -0.106  11.582 -0.2506  0.1536  0.0218
  302loPI   PO4 4820   7.805   0.090  10.949  0.0343 -0.0726  0.1371
  302loPI   GL1 4821   7.930   0.436  10.707 -0.0717 -0.0521 -0.5632
  302loPI   GL2 4822   8.220   0.704  10.523  0.1158 -0.1210  0.1424
  302loPI   C1A 4823   8.062   0.346  10.235  0.4119 -0.1708  0.1228
  302loPI   C2A 4824   8.051   0.420   9.829  0.1942 -0.0466  0.0109
  302loPI   C3A 4825   7.979   0.576   9.398  0.1139  0.1398  0.1125
  302loPI   C4A 4826   7.826   0.565   8.929 -0.1242  0.2235  0.1009
  302loPI   C5A 4827   7.583   0.384   8.604 -0.0811 -0.1679 -0.1827
  302loPI   C6A 4828   7.502   0.120   8.299  0.0322  0.1327  0.0163
  302loPI   C1B 4829   8.454   0.795  10.163  0.1676 -0.0812  0.0885
  302loPI   C2B 4830   8.427   0.828   9.752 -0.1752  0.1025 -0.0549
  302loPI   C3B 4831   8.375   0.808   9.335 -0.2682  0.0932 -0.0394
  302loPI   C4B 4832   8.415   0.874   8.863 -0.0132 -0.1236 -0.0007
  303loPI    C1 4833  10.141   7.176  11.115 -0.0673 -0.0331 -0.2112
  303loPI    C2 4834  10.085   7.566  11.183 -0.2597 -0.1036  0.0505
  303loPI    C3 4835  10.294   7.345  11.443 -0.1171 -0.1682 -0.1171
  303loPI   PO4 4836  10.169   7.140  10.920  0.1749 -0.2504 -0.1225
  303loPI   GL1 4837  10.266   7.087  10.472 -0.0900  0.0416 -0.0541
  303loPI   GL2 4838  10.472   7.376  10.447 -0.4295 -0.2593  0.0112
  303loPI   C1A 4839  10.058   7.282  10.193  0.0402 -0.2698  0.3795
  303loPI   C2A 4840   9.927   7.085   9.845 -0.0029 -0.0509  0.1076
  303loPI   C3A 4841   9.825   6.882   9.410 -0.0437  0.0521 -0.1173
  303loPI   C4A 4842   9.815   6.807   8.937 -0.0512 -0.1220  0.2494
  303loPI   C5A 4843   9.685   6.793   8.521  0.2223 -0.1910  0.1555
  303loPI   C6A 4844   9.535   6.991   8.214  0.3105 -0.1087  0.0684
  303loPI   C1B 4845  10.534   7.458  10.034  0.0748  0.2105 -0.0782
  303loPI   C2B 4846  10.892   7.624   9.757 -0.3470  0.2516  0.3211
  303loPI   C3B 4847  11.051   7.782   9.287  0.0062  0.1607 -0.1318
  303loPI   C4B 4848  11.008   7.838   8.833  0.0291 -0.2391  0.2448
  304loPI    C1 4849   6.875  16.680  11.104  0.0037  0.0755 -0.2892
  304loPI    C2 4850   7.050  16.340  11.222 -0.1875  0.0482 -0.0769
  304loPI    C3 4851   7.154  16.688  11.390 -0.2728  0.0431 -0.0129
  304loPI   PO4 4852   6.899  16.662  10.848  0.3381  0.0013  0.4247
  304loPI   GL1 4853   7.222  16.790  10.494  0.0304 -0.1358  0.1369
  304loPI   GL2 4854   7.011  16.653  10.372 -0.0285 -0.1571 -0.3650
  304loPI   C1A 4855   7.603  16.612  10.289 -0.2600 -0.1328 -0.1890
  304loPI   C2A 4856   7.719  16.542   9.843 -0.2184 -0.1716  0.1769
  304loPI   C3A 4857   7.918  16.448   9.398 -0.2456 -0.1609 -0.1334
  304loPI   C4A 4858   7.832  16.540   8.974 -0.4739  0.2479  0.1857
  304loPI   C5A 4859   7.781  16.288   8.524  0.0808 -0.0321  0.3111
  304loPI   C6A 4860   8.061  16.469   8.165  0.1479 -0.0478 -0.2068
  304loPI   C1B 4861   7.222  16.602   9.987 -0.1459 -0.2564  0.0392
  304loPI   C2B 4862   7.406  16.912   9.812  0.3397 -0.0124 -0.0647
  304loPI   C3B 4863   7.388  17.222   9.457 -0.3512  0.1046  0.2144
  304loPI   C4B 4864   7.221  17.222   9.000  0.1525 -0.0197 -0.2297
  305loPI    C1 4865  15.244  14.574  11.046 -0.3289 -0.0346  0.0921
  305loPI    C2 4866  15.288  14.346  11.372 -0.2036 -0.0539  0.0624
  305loPI    C3 4867  15.107  14.702  11.399 -0.2185 -0.0675  0.1473
  305loPI   PO4 4868  15.134  14.354  10.781 -0.0808 -0.0586 -0.1147
  305loPI   GL1 4869  15.082  14.220  10.382  0.2675  0.2405 -0.1624
  305loPI   GL2 4870  15.088  13.983  10.433 -0.0033  0.2752  0.1104
  305loPI   C1A 4871  14.957  14.347   9.946 -0.2858  0.0052  0.0144
  305loPI   C2A 4872  14.826  14.406   9.506  0.2730  0.2853 -0.0615
  305loPI   C3A 4873  14.881  14.363   9.023 -0.0481  0.0011 -0.0499
  305loPI   C4A 4874  15.005  14.220   8.595  0.1861  0.2035  0.1779
  305loPI   C5A 4875  14.787  13.946   8.363  0.4089 -0.0268  0.0702
  305loPI   C6A 4876  14.449  13.885   8.419  0.1284 -0.1001  0.3259
  305loPI   C1B 4877  14.852  13.850  10.177  0.2028 -0.2639  0.0166
  305loPI   C2B 4878  14.785  13.903   9.692  0.2791  0.2682 -0.0851
  305loPI   C3B 4879  14.902  13.953   9.346 -0.0654  0.1314 -0.0895
  305loPI   C4B 4880  14.744  13.825   8.874 -0.0980 -0.2967  0.0336
  306loPI    C1 4881  17.788  11.362  10.813  0.2761  0.1181 -0.0287
  306loPI    C2 4882  18.104  11.562  10.957  0.1267  0.2029  0.1860
  306loPI    C3 4883  17.974  11.233  11.143  0.1708  0.0905  0.0202
  306loPI   PO4 4884  17.773  11.452  10.551 -0.0655 -0.3145 -0.0705
  306loPI   GL1 4885  17.930  11.221  10.245  0.0796 -0.0188 -0.2799
  306loPI   GL2 4886  18.074  11.097  10.045 -0.0960  0.3669  0.0805
  306loPI   C1A 4887  17.782  11.543   9.849  0.0444 -0.1188 -0.0344
  306loPI   C2A 4888  17.701  11.415   9.443  0.1461  0.3141 -0.0710
  306loPI   C3A 4889  17.912  11.460   9.089 -0.0887  0.2334  0.1276
  306loPI   C4A 4890  18.147  11.556   8.729 -0.1754 -0.2000 -0.1233
  306loPI   C5A 4891  18.043  11.923   8.506 -0.0186  0.4888 -0.5086
  306loPI   C6A 4892  17.699  12.239   8.633 -0.1300  0.1572  0.1846
  306loPI   C1B 4893  18.023  11.066   9.537 -0.0527  0.0830 -0.4734
  306loPI   C2B 4894  18.034  10.977   9.054 -0.0400 -0.0049  0.1255
  306loPI   C3B 4895  17.820  11.143   8.687 -0.1180  0.0071  0.2478
  306loPI   C4B 4896  18.034  11.204   8.294 -0.2592  0.2821  0.0232
  307loPI    C1 4897   5.584   8.351  11.143 -0.2579  0.0646  0.3273
  307loPI    C2 4898   5.612   8.006  11.343 -0.0761 -0.0472  0.1132
  307loPI    C3 4899   5.919   8.133  11.121 -0.2756  0.0729 -0.0982
  307loPI   PO4 4900   5.358   8.312  10.999 -0.2385  0.0056 -0.1721
  307loPI   GL1 4901   5.307   8.447  10.536  0.1424  0.2344  0.0540
  307loPI   GL2 4902   5.072   8.218  10.503  0.2785  0.0765  0.0133
  307loPI   C1A 4903   5.285   8.586  10.109 -0.1764  0.1696 -0.0708
  307loPI   C2A 4904   5.139   8.474   9.753 -0.3095 -0.0232  0.0559
  307loPI   C3A 4905   5.053   8.437   9.306  0.2039  0.0058  0.0269
  307loPI   C4A 4906   4.875   8.565   8.895 -0.0910 -0.1464  0.0358
  307loPI   C5A 4907   4.939   8.669   8.464  0.2232 -0.0584 -0.2835
  307loPI   C6A 4908   5.310   8.783   8.200  0.3017  0.1986 -0.0857
  307loPI   C1B 4909   4.808   8.372  10.138 -0.0981  0.1912  0.2350
  307loPI   C2B 4910   4.634   8.431   9.778 -0.1314  0.2511 -0.0296
  307loPI   C3B 4911   4.560   8.394   9.381 -0.1489  0.0584 -0.2185
  307loPI   C4B 4912   4.571   8.225   9.002 -0.0232  0.1903  0.0341
  308loPI    C1 4913  17.792   6.561  10.679 -0.0956  0.1644 -0.1860
  308loPI    C2 4914  17.495   6.647  10.425 -0.0406  0.2395 -0.2255
  308loPI    C3 4915  17.803   6.898  10.465  0.0178  0.1620 -0.1843
  308loPI   PO4 4916  17.774   6.270  10.585 -0.0021  0.3506  0.2171
  308loPI   GL1 4917  17.634   6.095  10.185  0.1762  0.1669  0.1189
  308loPI   GL2 4918  17.349   6.254  10.094  0.3874 -0.1004  0.1125
  308loPI   C1A 4919  17.761   5.989   9.803  0.0441 -0.2074  0.2460
  308loPI   C2A 4920  17.943   5.821   9.505 -0.0946  0.1088  0.0335
  308loPI   C3A 4921  18.046   5.726   9.157  0.2408 -0.0380  0.2281
  308loPI   C4A 4922  18.118   5.455   8.901 -0.0535 -0.1878 -0.0547
  308loPI   C5A 4923  17.958   5.514   8.503  0.0820 -0.0267  0.1478
  308loPI   C6A 4924  17.711   5.581   8.109 -0.0831 -0.2183 -0.0279
  308loPI   C1B 4925  17.278   6.271   9.691 -0.0482  0.0926  0.0285
  308loPI   C2B 4926  17.648   6.175   9.361 -0.1458 -0.2537 -0.0761
  308loPI   C3B 4927  17.798   6.010   8.897  0.3077 -0.0656 -0.0921
  308loPI   C4B 4928  17.807   6.072   8.432 -0.0653 -0.0749 -0.0462
  309loPI    C1 4929  14.445   2.936  10.932 -0.1152  0.1778  0.1904
  309loPI    C2 4930  14.379   2.691  11.241  0.0381 -0.0666  0.0325
  309loPI    C3 4931  14.728   2.677  11.045 -0.1069 -0.0072 -0.2342
  309loPI   PO4 4932  14.235   3.090  11.015 -0.1830 -0.2851 -0.2507
  309loPI   GL1 4933  14.339   3.457  10.681  0.0798 -0.0982  0.1314
  309loPI   GL2 4934  14.549   3.333  10.656  0.0470  0.1208  0.1583
  309loPI   C1A 4935  14.231   3.739  10.403  0.2057  0.1796 -0.0905
  309loPI   C2A 4936  14.036   3.909   9.993  0.1595  0.0585  0.2231
  309loPI   C3A 4937  14.069   4.000   9.598  0.0564  0.1921 -0.0423
  309loPI   C4A 4938  14.161   3.796   9.191 -0.2484 -0.0312  0.3032
  309loPI   C5A 4939  14.085   3.577   8.806  0.2148 -0.1191  0.2250
  309loPI   C6A 4940  14.082   3.283   8.478 -0.5617  0.1536 -0.3251
  309loPI   C1B 4941  14.696   3.429  10.260  0.0595 -0.0897 -0.0139
  309loPI   C2B 4942  14.660   3.348   9.805 -0.0096  0.0907  0.0922
  309loPI   C3B 4943  14.431   3.379   9.391 -0.0933 -0.1184  0.3089
  309loPI   C4B 4944  14.458   3.312   9.014  0.2349  0.2825  0.2738
  310loPI    C1 4945  10.246  14.071  11.135  0.1372  0.1437  0.0713
  310loPI    C2 4946   9.918  14.235  11.294 -0.0646 -0.1498 -0.0321
  310loPI    C3 4947  10.160  14.013  11.522 -0.1079 -0.1932 -0.0282
  310loPI   PO4 4948  10.152  14.166  10.836 -0.3858  0.1829 -0.0282
  310loPI   GL1 4949  10.207  14.119  10.415  0.2011 -0.0603  0.1152
  310loPI   GL2 4950  10.570  13.883  10.312 -0.0174 -0.0552  0.0169
  310loPI   C1A 4951   9.963  13.869  10.121  0.0090  0.2058  0.2024
  310loPI   C2A 4952   9.988  13.858   9.718 -0.1057  0.0163 -0.2618
  310loPI   C3A 4953  10.041  13.798   9.316  0.1718 -0.4965  0.0068
  310loPI   C4A 4954  10.119  13.654   8.938 -0.1628  0.0910  0.0576
  310loPI   C5A 4955  10.269  13.393   8.607 -0.0597 -0.0469  0.1659
  310loPI   C6A 4956  10.479  12.993   8.525 -0.0182 -0.0403 -0.3569
  310loPI   C1B 4957  10.412  14.043   9.964  0.0737 -0.1650 -0.1511
  310loPI   C2B 4958  10.401  14.078   9.538 -0.1305 -0.2013  0.0248
  310loPI   C3B 4959  10.435  14.019   9.062 -0.0166  0.3326  0.0047
  310loPI   C4B 4960  10.594  13.713   8.760 -0.1779 -0.1787  0.1900
  311loPI    C1 4961   4.351   9.179  10.927 -0.0918 -0.0907 -0.3977
  311loPI    C2 4962   4.377   8.824  10.745  0.0885 -0.2900  0.0035
  311loPI    C3 4963   4.707   9.000  10.886 -0.0352 -0.0913  0.0475
  311loPI   PO4 4964   4.186   9.260  10.763 -0.1532  0.2293 -0.1309
  311loPI   GL1 4965   4.168   9.493  10.323 -0.3531  0.2109  0.5962
  311loPI   GL2 4966   4.186   9.720  10.214  0.0859  0.0909  0.0997
  311loPI   C1A 4967   4.274   9.274   9.984  0.0677 -0.0040  0.4983
  311loPI   C2A 4968   4.284   9.360   9.579  0.0450  0.1308 -0.0044
  311loPI   C3A 4969   4.318   9.418   9.126  0.0038  0.0115 -0.1746
  311loPI   C4A 4970   4.484   9.551   8.668  0.0042  0.1288 -0.0366
  311loPI   C5A 4971   4.758   9.655   8.440 -0.1397  0.0887  0.0153
  311loPI   C6A 4972   4.813  10.123   8.364 -0.2815  0.1716 -0.1711
  311loPI   C1B 4973   4.505   9.753   9.938 -0.0387 -0.2155  0.3652
  311loPI   C2B 4974   4.498   9.806   9.513 -0.1711  0.0450  0.3807
  311loPI   C3B 4975   4.502   9.856   9.057  0.0574 -0.0761  0.0831
  311loPI   C4B 4976   4.369  10.033   8.647  0.0077  0.1914 -0.0403
  312loPI    C1 4977  11.583   3.705  10.946  0.2596  0.0975 -0.1292
  312loPI    C2 4978  11.683   4.067  11.084  0.2036  0.0655 -0.0036
  312loPI    C3 4979  11.884   3.743  11.206  0.1662  0.0392 -0.0114
  312loPI   PO4 4980  11.591   3.725  10.716  0.0346 -0.0379  0.5084
  312loPI   GL1 4981  11.700   3.690  10.360  0.0513 -0.1409 -0.2274
  312loPI   GL2 4982  11.777   3.930  10.182  0.3524 -0.0445 -0.1861
  312loPI   C1A 4983  11.601   3.582   9.909 -0.2174 -0.0710  0.0901
  312loPI   C2A 4984  11.785   3.560   9.550 -0.3121  0.0883 -0.0586
  312loPI   C3A 4985  11.712   3.459   9.172  0.2468  0.1076  0.0885
  312loPI   C4A 4986  11.764   3.529   8.721  0.1516  0.2239  0.1521
  312loPI   C5A 4987  11.724   3.516   8.256 -0.6067  0.4768  0.1839
  312loPI   C6A 4988  11.584   3.694   7.941  0.0444  0.2211 -0.0848
  312loPI   C1B 4989  11.989   4.033   9.815 -0.0970 -0.3359  0.1902
  312loPI   C2B 4990  11.994   3.992   9.373 -0.0207 -0.0399  0.0937
  312loPI   C3B 4991  12.017   3.863   8.970  0.1375  0.1903  0.2010
  312loPI   C4B 4992  12.211   3.683   8.499 -0.1680 -0.3532 -0.1038
  313loPI    C1 4993   3.482   6.244  10.537  0.0577  0.1535  0.0999
  313loPI    C2 4994   3.170   6.112  10.752  0.0109 -0.1569 -0.1513
  313loPI    C3 4995   3.339   6.464  10.839 -0.3393 -0.0360  0.0572
  313loPI   PO4 4996   3.348   6.225  10.279  0.0773  0.0474 -0.2206
  313loPI   GL1 4997   3.358   6.062   9.897 -0.3115 -0.0509 -0.5083
  313loPI   GL2 4998   2.985   6.082   9.963 -0.2591 -0.0668  0.0948
  313loPI   C1A 4999   3.399   6.094   9.418  0.0374 -0.1003  0.3393
  313loPI   C2A 5000   3.379   5.973   8.980 -0.0340 -0.1298  0.1557
  313loPI   C3A 5001   3.067   6.000   8.614 -0.0335  0.0708 -0.1243
  313loPI   C4A 5002   2.837   6.229   8.398 -0.2277 -0.0361 -0.1370
  313loPI   C5A 5003   2.450   6.365   8.231  0.2468 -0.1189 -0.1972
  313loPI   C6A 5004   2.010   6.161   8.115  0.0465  0.1642  0.1783
  313loPI   C1B 5005   2.973   5.868   9.498  0.0751  0.1431 -0.1832
  313loPI   C2B 5006   2.849   5.794   9.090  0.2322 -0.0535 -0.1000
  313loPI   C3B 5007   2.817   5.594   8.644  0.2079  0.0181 -0.2491
  313loPI   C4B 5008   2.981   5.246   8.425  0.0638 -0.0988 -0.0780
  314loPI    C1 5009   4.275  14.859  10.820 -0.0550 -0.1219 -0.0817
  314loPI    C2 5010   4.539  15.158  10.851 -0.1665 -0.0488  0.1969
  314loPI    C3 5011   4.419  14.963  11.179 -0.3341 -0.1904  0.0533
  314loPI   PO4 5012   4.055  14.967  10.722 -0.0133  0.5453  0.0108
  314loPI   GL1 5013   3.821  15.104  10.400  0.0687 -0.0739  0.0237
  314loPI   GL2 5014   4.180  15.156  10.344 -0.0188 -0.1316 -0.2732
  314loPI   C1A 5015   3.694  14.930  10.008 -0.4849  0.0500 -0.2470
  314loPI   C2A 5016   3.714  14.855   9.590  0.1536 -0.0951 -0.2658
  314loPI   C3A 5017   3.897  14.631   9.332  0.1061 -0.1382  0.0848
  314loPI   C4A 5018   3.930  14.431   8.899 -0.2833  0.2261  0.0597
  314loPI   C5A 5019   4.038  14.398   8.472  0.0548  0.1812  0.0742
  314loPI   C6A 5020   4.128  14.569   8.158 -0.1552 -0.0766  0.2113
  314loPI   C1B 5021   4.262  14.918   9.973  0.0163  0.1687  0.0888
  314loPI   C2B 5022   4.221  14.944   9.531  0.4239 -0.0966  0.2148
  314loPI   C3B 5023   4.214  14.919   9.040 -0.1944  0.1028 -0.1908
  314loPI   C4B 5024   4.343  14.731   8.688 -0.0536  0.1398  0.0507
  315loPI    C1 5025  15.452   0.052  10.941  0.0686 -0.0548  0.2589
  315loPI    C2 5026  15.093  -0.125  10.938 -0.0413  0.1662  0.0892
  315loPI    C3 5027  15.343  -0.186  11.244 -0.0800 -0.2705  0.0405
  315loPI   PO4 5028  15.529   0.067  10.762 -0.0455  0.1305  0.1905
  315loPI   GL1 5029  15.565   0.052  10.408  0.1848  0.0548 -0.0817
  315loPI   GL2 5030  15.228  -0.060  10.402 -0.1498  0.0158  0.0605
  315loPI   C1A 5031  15.501   0.326  10.065  0.2338 -0.0900 -0.1978
  315loPI   C2A 5032  15.348   0.402   9.628  0.1421 -0.1413  0.1591
  315loPI   C3A 5033  15.362   0.440   9.220  0.1917  0.0898  0.0796
  315loPI   C4A 5034  15.253   0.672   8.861  0.0563  0.0676 -0.0915
  315loPI   C5A 5035  15.317   0.730   8.439 -0.2723 -0.1526  0.0822
  315loPI   C6A 5036  15.578   1.056   8.149 -0.0341  0.0100  0.2258
  315loPI   C1B 5037  15.172   0.000   9.945  0.1880  0.0211  0.0276
  315loPI   C2B 5038  14.972   0.111   9.541  0.0829 -0.1644  0.1065
  315loPI   C3B 5039  14.964   0.158   9.075  0.1444 -0.0024 -0.0398
  315loPI   C4B 5040  14.811   0.226   8.735  0.1789 -0.3266  0.2328
  316loPI    C1 5041   8.854  16.009  10.806  0.0203 -0.3260 -0.0401
  316loPI    C2 5042   9.181  15.980  11.034  0.0376  0.0784 -0.0075
  316loPI    C3 5043   8.829  16.068  11.201 -0.0310 -0.0531 -0.0821
  316loPI   PO4 5044   8.933  15.765  10.583 -0.3545  0.4866 -0.1119
  316loPI   GL1 5045   8.839  15.642  10.225 -0.4069 -0.3485 -0.0403
  316loPI   GL2 5046   8.980  15.476  10.023 -0.0721  0.0604 -0.0885
  316loPI   C1A 5047   9.028  15.983   9.900  0.0313 -0.1121  0.1917
  316loPI   C2A 5048   9.133  16.082   9.502 -0.1316  0.0641  0.0322
  316loPI   C3A 5049   9.212  16.158   9.050 -0.1313  0.1115  0.3285
  316loPI   C4A 5050   9.327  16.180   8.600 -0.0223  0.2353  0.2478
  316loPI   C5A 5051   9.400  15.793   8.354 -0.0173  0.2590  0.0284
  316loPI   C6A 5052   9.506  15.397   8.477 -0.0548  0.2962  0.2357
  316loPI   C1B 5053   9.063  15.524   9.472  0.0426 -0.0505 -0.0980
  316loPI   C2B 5054   9.092  15.314   9.038 -0.3139  0.0698  0.1933
  316loPI   C3B 5055   8.804  15.411   8.689 -0.0685  0.3746 -0.0404
  316loPI   C4B 5056   8.512  15.266   8.415 -0.3168 -0.3608 -0.0049
  317loPI    C1 5057  14.603   1.649  11.184  0.0414  0.0025 -0.0541
  317loPI    C2 5058  14.507   1.854  11.513  0.2871  0.2119 -0.1098
  317loPI    C3 5059  14.805   1.587  11.523 -0.0483 -0.1682 -0.0310
  317loPI   PO4 5060  14.371   1.603  11.010 -0.2211 -0.1494 -0.3908
  317loPI   GL1 5061  14.346   1.447  10.563  0.2502  0.0681 -0.2382
  317loPI   GL2 5062  14.584   1.291  10.669 -0.1079  0.2501 -0.1712
  317loPI   C1A 5063  14.270   1.369  10.115  0.1191 -0.1858 -0.1510
  317loPI   C2A 5064  14.306   1.457   9.572 -0.0692  0.0617  0.0392
  317loPI   C3A 5065  14.120   1.559   9.213  0.4250 -0.2524  0.1331
  317loPI   C4A 5066  13.951   1.707   8.730  0.0364  0.2511 -0.0303
  317loPI   C5A 5067  13.645   1.581   8.555  0.0405 -0.0826  0.1633
  317loPI   C6A 5068  13.214   1.278   8.718  0.1407 -0.0524  0.0950
  317loPI   C1B 5069  14.746   1.411  10.296 -0.0099 -0.0632  0.0965
  317loPI   C2B 5070  14.678   1.496   9.888  0.1343 -0.3739 -0.0625
  317loPI   C3B 5071  14.697   1.751   9.632 -0.3483 -0.1674 -0.0286
  317loPI   C4B 5072  14.532   1.773   9.201  0.4071  0.2277  0.0632
  318loPI    C1 5073   5.739   8.185  10.649  0.0840 -0.0897  0.0765
  318loPI    C2 5074   5.888   7.816  10.681 -0.0211 -0.1680 -0.2928
  318loPI    C3 5075   5.591   7.890  10.424 -0.2734  0.0935  0.0640
  318loPI   PO4 5076   5.920   8.332  10.641  0.0262  0.1795  0.2515
  318loPI   GL1 5077   6.063   8.632  10.496 -0.2778  0.1933  0.0636
  318loPI   GL2 5078   5.764   8.673  10.311 -0.2019  0.0984  0.1731
  318loPI   C1A 5079   6.129   8.570  10.014 -0.2596  0.0395  0.0406
  318loPI   C2A 5080   6.101   8.503   9.573 -0.2008  0.1357 -0.1497
  318loPI   C3A 5081   6.095   8.329   9.306 -0.0853  0.1098  0.1036
  318loPI   C4A 5082   6.272   8.056   9.043  0.1072 -0.0809 -0.1096
  318loPI   C5A 5083   6.310   8.037   8.614 -0.0111  0.0170 -0.0647
  318loPI   C6A 5084   6.239   7.812   8.355 -0.0792 -0.0569  0.0211
  318loPI   C1B 5085   5.686   8.612   9.789  0.0207 -0.4827  0.2478
  318loPI   C2B 5086   5.612   8.491   9.360 -0.0387  0.2801  0.0249
  318loPI   C3B 5087   5.392   8.577   8.992  0.1919 -0.2069  0.1723
  318loPI   C4B 5088   5.486   8.700   8.701  0.1041  0.2926 -0.1079
  319loPI    C1 5089  14.443  11.376  10.820 -0.0852  0.0198  0.0226
  319loPI    C2 5090  14.562  11.414  11.200 -0.0571 -0.1143  0.0277
  319loPI    C3 5091  14.225  11.216  11.114 -0.4169  0.4696  0.0334
  319loPI   PO4 5092  14.436  11.568  10.630 -0.0513 -0.3930 -0.0917
  319loPI   GL1 5093  14.264  11.669  10.383  0.0692 -0.1452 -0.1534
  319loPI   GL2 5094  14.340  11.983  10.269 -0.0072  0.0185  0.0250
  319loPI   C1A 5095  13.999  11.675  10.064  0.2268 -0.0285  0.0903
  319loPI   C2A 5096  14.008  11.628   9.629 -0.0133  0.0650  0.3113
  319loPI   C3A 5097  14.007  11.590   9.202  0.0028 -0.2254 -0.1477
  319loPI   C4A 5098  13.808  11.624   8.805  0.1363  0.2271  0.1908
  319loPI   C5A 5099  13.878  11.601   8.335  0.1823 -0.0027  0.1540
  319loPI   C6A 5100  14.256  11.728   8.196 -0.3906  0.0034  0.2148
  319loPI   C1B 5101  14.327  11.953   9.814 -0.1829  0.3531  0.2180
  319loPI   C2B 5102  14.314  12.019   9.384  0.0554 -0.0005 -0.0178
  319loPI   C3B 5103  14.480  12.004   8.918 -0.0761  0.1235  0.1304
  319loPI   C4B 5104  14.624  11.945   8.511 -0.0473 -0.2114 -0.0806
  320loPI    C1 5105   2.226  11.732  11.022  0.0437  0.0525 -0.1721
  320loPI    C2 5106   2.514  11.658  11.290 -0.1784  0.0576  0.0716
  320loPI    C3 5107   2.136  11.710  11.411 -0.3405 -0.2699 -0.2723
  320loPI   PO4 5108   2.325  11.611  10.786 -0.0541 -0.0991  0.3170
  320loPI   GL1 5109   2.089  11.476  10.359  0.0610  0.0666 -0.0296
  320loPI   GL2 5110   2.117  11.721  10.288  0.0321  0.1668 -0.0153
  320loPI   C1A 5111   2.120  11.135  10.142 -0.0282 -0.0816 -0.0767
  320loPI   C2A 5112   2.241  10.702  10.108  0.1900 -0.0306  0.1914
  320loPI   C3A 5113   2.493  10.431   9.994 -0.3037  0.0557  0.3457
  320loPI   C4A 5114   2.780  10.351   9.650  0.0823  0.0356 -0.1667
  320loPI   C5A 5115   2.842  10.409   9.278  0.0718 -0.0819 -0.0286
  320loPI   C6A 5116   2.697  10.662   8.937  0.1427 -0.0959  0.0328
  320loPI   C1B 5117   2.059  11.607   9.837  0.1666  0.0282 -0.0171
  320loPI   C2B 5118   1.991  11.434   9.442  0.0972 -0.0977 -0.1060
  320loPI   C3B 5119   2.027  11.120   9.146  0.1070  0.1850 -0.0268
  320loPI   C4B 5120   2.339  10.817   9.205 -0.0490  0.0452  0.0196
  321loPI    C1 5121   4.321   3.935  10.483 -0.0514 -0.0175  0.1122
  321loPI    C2 5122   4.232   3.863  10.867  0.4365 -0.2629  0.1870
  321loPI    C3 5123   4.532   4.111  10.774  0.0637  0.1131 -0.0482
  321loPI   PO4 5124   4.123   3.993  10.396  0.0338  0.0044 -0.2722
  321loPI   GL1 5125   4.026   3.845  10.004 -0.0285  0.2618  0.2117
  321loPI   GL2 5126   4.022   3.477   9.904  0.0041  0.0353  0.1732
  321loPI   C1A 5127   3.956   4.026   9.666  0.0270 -0.1360  0.1275
  321loPI   C2A 5128   4.026   4.064   9.241 -0.1792  0.2224  0.0982
  321loPI   C3A 5129   4.119   4.118   8.783 -0.0323 -0.0964  0.2134
  321loPI   C4A 5130   4.328   4.187   8.389 -0.1746  0.1535 -0.0085
  321loPI   C5A 5131   4.404   4.022   7.969 -0.0686 -0.0530  0.1712
  321loPI   C6A 5132   4.603   4.280   7.675  0.0848  0.1285 -0.1538
  321loPI   C1B 5133   4.042   3.575   9.430  0.1874 -0.0435  0.0685
  321loPI   C2B 5134   3.891   3.719   8.950 -0.3223  0.0007 -0.1878
  321loPI   C3B 5135   3.773   3.602   8.464  0.0962 -0.1832 -0.0099
  321loPI   C4B 5136   3.581   3.831   8.029 -0.2253  0.0566  0.0956
  322loPI    C1 5137   3.012   5.329  10.615  0.1319  0.2094 -0.1115
  322loPI    C2 5138   3.228   5.642  10.739  0.1288  0.0404  0.3388
  322loPI    C3 5139   3.008   5.435  11.001 -0.1242 -0.1448 -0.0122
  322loPI   PO4 5140   3.113   5.263  10.409 -0.2295 -0.2293 -0.0136
  322loPI   GL1 5141   3.411   5.311  10.083 -0.1360  0.0439 -0.0354
  322loPI   GL2 5142   3.400   5.029   9.962  0.1976  0.0100 -0.0128
  322loPI   C1A 5143   3.345   5.601   9.697 -0.0238  0.1458 -0.1065
  322loPI   C2A 5144   3.135   5.439   9.343 -0.0362  0.1948  0.2091
  322loPI   C3A 5145   2.979   5.220   9.013  0.0026  0.1624  0.1208
  322loPI   C4A 5146   2.623   5.115   8.755 -0.0013 -0.0040  0.1295
  322loPI   C5A 5147   2.515   4.911   8.405 -0.3179  0.1474  0.0275
  322loPI   C6A 5148   2.345   4.721   8.035  0.0667 -0.1413  0.1195
  322loPI   C1B 5149   3.176   5.093   9.677  0.0719 -0.0469  0.0907
  322loPI   C2B 5150   2.852   5.084   9.593 -0.1046  0.1530  0.0902
  322loPI   C3B 5151   2.797   4.727   9.681 -0.1224 -0.0717 -0.0369
  322loPI   C4B 5152   2.520   4.427   9.697  0.4214 -0.0247 -0.3213
  323loPI    C1 5153   4.291  12.509  11.056  0.0418 -0.0057  0.1232
  323loPI    C2 5154   4.197  12.821  10.825 -0.2776 -0.2117 -0.0326
  323loPI    C3 5155   4.522  12.835  11.058 -0.2043  0.1747 -0.1510
  323loPI   PO4 5156   4.182  12.307  10.832  0.1908 -0.1161 -0.0082
  323loPI   GL1 5157   3.958  12.302  10.450  0.1603  0.0585  0.1990
  323loPI   GL2 5158   3.895  12.651  10.399 -0.2933  0.0866 -0.0266
  323loPI   C1A 5159   4.093  12.085  10.025 -0.0377  0.2362  0.0894
  323loPI   C2A 5160   4.308  12.144   9.524 -0.0600 -0.0629 -0.1939
  323loPI   C3A 5161   4.378  12.163   9.031 -0.2007 -0.3780 -0.1624
  323loPI   C4A 5162   4.509  12.343   8.722 -0.1211 -0.2137  0.0450
  323loPI   C5A 5163   4.524  12.210   8.480 -0.0372 -0.0950 -0.3573
  323loPI   C6A 5164   4.739  12.183   8.233  0.1364  0.1674 -0.0874
  323loPI   C1B 5165   3.614  12.766  10.040 -0.1293 -0.0417  0.3730
  323loPI   C2B 5166   3.373  12.589   9.670  0.2756  0.1129  0.0199
  323loPI   C3B 5167   3.188  12.470   9.321 -0.1871  0.0359  0.0426
  323loPI   C4B 5168   3.110  12.281   8.917  0.1492 -0.2160 -0.1487
  324loPI    C1 5169   5.911  10.252  10.801  0.2979 -0.0399  0.1293
  324loPI    C2 5170   5.660  10.236  11.112  0.0748  0.1908 -0.0347
  324loPI    C3 5171   6.025  10.075  11.141 -0.1479 -0.3008  0.1505
  324loPI   PO4 5172   5.813  10.145  10.576  0.0288 -0.1285 -0.1917
  324loPI   GL1 5173   5.503  10.143  10.273  0.2442  0.1762  0.1860
  324loPI   GL2 5174   5.160  10.092  10.328 -0.0365 -0.1158 -0.3519
  324loPI   C1A 5175   5.429  10.094   9.899 -0.1111 -0.2331 -0.0023
  324loPI   C2A 5176   5.503  10.129   9.547 -0.1453 -0.1592 -0.2219
  324loPI   C3A 5177   5.633  10.214   9.038  0.0384  0.0861 -0.3090
  324loPI   C4A 5178   5.876   9.983   8.656  0.3285 -0.2928  0.0029
  324loPI   C5A 5179   6.127   9.999   8.232  0.1081 -0.1367 -0.0510
  324loPI   C6A 5180   6.515  10.137   8.052 -0.0736 -0.0819  0.1307
  324loPI   C1B 5181   4.976   9.955   9.906  0.0289  0.2112  0.0663
  324loPI   C2B 5182   5.015  10.067   9.545 -0.1487  0.1725 -0.0953
  324loPI   C3B 5183   5.207   9.973   9.195 -0.1445 -0.0635  0.4523
  324loPI   C4B 5184   5.314   9.959   8.748 -0.1730  0.0744 -0.1357
  325loPI    C1 5185  16.559   9.734  10.687 -0.1419  0.1184  0.2015
  325loPI    C2 5186  16.668   9.555  11.028  0.0412 -0.0893  0.0371
  325loPI    C3 5187  16.946   9.670  10.765 -0.0897  0.2159  0.0267
  325loPI   PO4 5188  16.393   9.571  10.537 -0.0931 -0.0256  0.0212
  325loPI   GL1 5189  16.134   9.283  10.304  0.0500  0.1166  0.2396
  325loPI   GL2 5190  16.179   8.944  10.176 -0.0836  0.1015  0.0895
  325loPI   C1A 5191  16.356   9.432   9.866  0.0929 -0.0103 -0.0158
  325loPI   C2A 5192  16.459   9.572   9.410  0.0385  0.2327 -0.0148
  325loPI   C3A 5193  16.436   9.661   9.021 -0.3625 -0.0592  0.0555
  325loPI   C4A 5194  16.334   9.975   8.741 -0.0135  0.2716 -0.3087
  325loPI   C5A 5195  16.009   9.944   8.463  0.0448  0.0858  0.1231
  325loPI   C6A 5196  15.765   9.545   8.302 -0.0285  0.1784  0.1200
  325loPI   C1B 5197  16.110   8.514   9.952  0.2841  0.2326  0.2586
  325loPI   C2B 5198  15.992   8.371   9.500  0.0783  0.0936  0.1632
  325loPI   C3B 5199  15.912   8.376   9.075 -0.0181  0.2448 -0.1393
  325loPI   C4B 5200  15.844   8.474   8.527  0.0075 -0.0803  0.1950
  326loPI    C1 5201   8.948   1.749  11.175  0.1516 -0.1410  0.0408
  326loPI    C2 5202   9.012   2.050  11.430  0.4890 -0.1335 -0.0486
  326loPI    C3 5203   8.927   1.685  11.570 -0.2224  0.0587  0.0574
  326loPI   PO4 5204   8.791   1.869  11.028  0.2015  0.2548 -0.0025
  326loPI   GL1 5205   8.667   2.004  10.631  0.2072  0.0725  0.0770
  326loPI   GL2 5206   8.346   1.850  10.560  0.0695  0.2597  0.0409
  326loPI   C1A 5207   8.949   1.956  10.221 -0.1910  0.1074 -0.1782
  326loPI   C2A 5208   8.981   1.588   9.937 -0.1402  0.0220 -0.1959
  326loPI   C3A 5209   8.899   1.583   9.572 -0.1334  0.1166 -0.4391
  326loPI   C4A 5210   8.848   1.623   9.171  0.2726  0.2079  0.1113
  326loPI   C5A 5211   8.745   1.531   8.762 -0.2269  0.1375  0.1629
  326loPI   C6A 5212   8.257   1.425   8.592 -0.0967  0.1027 -0.0015
  326loPI   C1B 5213   8.520   1.591  10.208  0.0680  0.1755 -0.4258
  326loPI   C2B 5214   8.525   1.362   9.930  0.0563  0.0299 -0.0652
  326loPI   C3B 5215   8.456   1.259   9.529 -0.1334  0.0271  0.1148
  326loPI   C4B 5216   8.380   1.330   9.098 -0.2423 -0.1180  0.0940
  327loPI    C1 5217   0.863   3.811  10.996  0.0010  0.1537 -0.1584
  327loPI    C2 5218   0.556   3.742  11.243  0.2086 -0.0376  0.0511
  327loPI    C3 5219   0.653   4.117  11.146 -0.0292  0.0281  0.0604
  327loPI   PO4 5220   0.787   3.717  10.746  0.2130 -0.0214  0.0562
  327loPI   GL1 5221   0.527   3.814  10.353  0.1270 -0.0256 -0.0538
  327loPI   GL2 5222   0.377   3.851  10.058  0.1410 -0.1564 -0.0051
  327loPI   C1A 5223   0.559   4.328  10.116  0.4570  0.0555 -0.1918
  327loPI   C2A 5224   0.438   4.635   9.780  0.1326  0.3590  0.0997
  327loPI   C3A 5225   0.410   4.691   9.309  0.0006  0.3887 -0.2753
  327loPI   C4A 5226   0.328   4.903   8.985  0.1718  0.1913 -0.0939
  327loPI   C5A 5227   0.169   5.039   8.519 -0.0325 -0.3257 -0.4358
  327loPI   C6A 5228   0.192   5.122   8.094  0.0346  0.0031 -0.0578
  327loPI   C1B 5229   0.294   3.708   9.645  0.1768  0.0597  0.0576
  327loPI   C2B 5230   0.346   3.658   9.242 -0.1236 -0.1078  0.1501
  327loPI   C3B 5231   0.367   3.471   8.938  0.2791  0.3515  0.1056
  327loPI   C4B 5232   0.257   3.505   8.593 -0.0306  0.1422 -0.0988
  328loPI    C1 5233   3.842   4.438  10.436  0.1299 -0.3875 -0.1292
  328loPI    C2 5234   4.093   4.373  10.741  0.0171 -0.2340 -0.0014
  328loPI    C3 5235   3.747   4.172  10.719 -0.1724  0.0623  0.2068
  328loPI   PO4 5236   3.985   4.461  10.258  0.2371  0.0005  0.1773
  328loPI   GL1 5237   4.421   4.275   9.969  0.5413 -0.0320  0.0187
  328loPI   GL2 5238   4.710   4.245   9.813  0.5150 -0.0749  0.0592
  328loPI   C1A 5239   4.231   4.399   9.543 -0.1829  0.0233 -0.0706
  328loPI   C2A 5240   4.316   4.481   9.163  0.0432 -0.0861 -0.0800
  328loPI   C3A 5241   4.458   4.475   8.764 -0.2670 -0.0233  0.1118
  328loPI   C4A 5242   4.481   4.764   8.356  0.1561 -0.0673  0.0186
  328loPI   C5A 5243   4.299   4.501   8.006 -0.1311  0.1394 -0.0491
  328loPI   C6A 5244   3.930   4.182   8.135 -0.0403 -0.0743 -0.1667
  328loPI   C1B 5245   4.718   4.347   9.408 -0.0960  0.1841 -0.0477
  328loPI   C2B 5246   4.842   4.322   9.050  0.1349 -0.1392 -0.0485
  328loPI   C3B 5247   4.837   4.184   8.588  0.1444  0.1773 -0.0310
  328loPI   C4B 5248   4.767   4.274   8.158 -0.2712  0.3256 -0.0108
  329loPI    C1 5249   5.932  15.351  10.767 -0.2456 -0.0526 -0.0568
  329loPI    C2 5250   6.128  15.638  10.570 -0.2892 -0.1123 -0.1882
  329loPI    C3 5251   6.189  15.588  10.962 -0.0741 -0.1027 -0.2190
  329loPI   PO4 5252   5.973  15.168  10.655 -0.0314  0.3079 -0.1506
  329loPI   GL1 5253   6.162  14.841  10.216 -0.2529 -0.3329  0.0358
  329loPI   GL2 5254   6.259  15.145  10.153 -0.1257  0.2040 -0.1873
  329loPI   C1A 5255   6.065  14.903   9.832 -0.1942  0.1019 -0.1423
  329loPI   C2A 5256   5.992  14.924   9.353  0.0111  0.1045 -0.0947
  329loPI   C3A 5257   6.030  15.001   8.974  0.2045 -0.1216  0.0169
  329loPI   C4A 5258   6.097  15.093   8.556  0.0296 -0.1541  0.0053
  329loPI   C5A 5259   6.148  15.498   8.396  0.0741 -0.1662  0.2341
  329loPI   C6A 5260   6.183  15.865   8.105 -0.2753  0.0443 -0.1813
  329loPI   C1B 5261   6.543  15.066   9.806 -0.3030  0.1597 -0.0751
  329loPI   C2B 5262   6.489  15.085   9.451 -0.3486 -0.3041  0.0776
  329loPI   C3B 5263   6.515  15.188   8.958  0.0644 -0.0255  0.1653
  329loPI   C4B 5264   6.645  15.196   8.537  0.1191  0.0638 -0.1447
  330loPI    C1 5265   9.755  13.771  11.145 -0.0690 -0.1117 -0.0004
  330loPI    C2 5266   9.804  13.591  11.499  0.0233 -0.0079  0.0402
  330loPI    C3 5267   9.574  13.917  11.470  0.0550  0.0122  0.0141
  330loPI   PO4 5268   9.682  13.540  10.980  0.0688 -0.0401 -0.1853
  330loPI   GL1 5269   9.562  13.474  10.553  0.0210  0.0611  0.2337
  330loPI   GL2 5270   9.510  13.219  10.587  0.0085 -0.2202 -0.0744
  330loPI   C1A 5271   9.460  13.628  10.239  0.2095  0.0673 -0.2227
  330loPI   C2A 5272   9.559  13.693   9.858 -0.1178 -0.3504 -0.2200
  330loPI   C3A 5273   9.543  13.567   9.456  0.3869 -0.1622 -0.0095
  330loPI   C4A 5274   9.629  13.570   9.091  0.1351  0.2264 -0.0692
  330loPI   C5A 5275   9.694  13.460   8.705  0.2524 -0.0434 -0.1976
  330loPI   C6A 5276   9.640  13.421   8.306 -0.4003 -0.0807  0.0748
  330loPI   C1B 5277   9.544  13.076  10.136  0.1362  0.5884 -0.0925
  330loPI   C2B 5278   9.578  13.147   9.750 -0.0477  0.1062  0.1465
  330loPI   C3B 5279   9.538  13.084   9.241 -0.1754 -0.2050 -0.0667
  330loPI   C4B 5280   9.461  13.034   8.782  0.0271  0.1966 -0.1549
  331loPI    C1 5281   5.551   0.335  10.843 -0.0841 -0.2828 -0.0317
  331loPI    C2 5282   5.889   0.518  10.954 -0.0750 -0.2785 -0.0665
  331loPI    C3 5283   5.650   0.355  11.230 -0.1003 -0.1842 -0.0326
  331loPI   PO4 5284   5.448   0.512  10.699  0.2167 -0.2722 -0.4036
  331loPI   GL1 5285   5.473   0.665  10.314  0.2966 -0.2327  0.1397
  331loPI   GL2 5286   5.308   0.381  10.298  0.0922 -0.1102 -0.3144
  331loPI   C1A 5287   5.507   0.583   9.913  0.0774  0.0921  0.0358
  331loPI   C2A 5288   5.497   0.709   9.421 -0.2017 -0.1612  0.2071
  331loPI   C3A 5289   5.617   0.985   9.095  0.1991 -0.0071 -0.2251
  331loPI   C4A 5290   5.752   0.991   8.708 -0.1421  0.0012  0.1197
  331loPI   C5A 5291   5.980   0.661   8.514 -0.2547  0.0807 -0.0314
  331loPI   C6A 5292   6.325   0.374   8.239 -0.0963 -0.1157  0.2837
  331loPI   C1B 5293   4.980   0.359   9.937 -0.4217  0.1272 -0.0115
  331loPI   C2B 5294   4.870   0.189   9.527 -0.0135 -0.0300  0.0347
  331loPI   C3B 5295   4.744  -0.036   9.222 -0.2039  0.1697  0.1533
  331loPI   C4B 5296   4.489  -0.073   8.825  0.1839 -0.0887  0.0370
  332loPI    C1 5297  14.790  13.094  11.236 -0.0453 -0.0938 -0.0197
  332loPI    C2 5298  15.079  12.930  11.459 -0.1152 -0.1632  0.0200
  332loPI    C3 5299  15.029  13.326  11.457  0.0806 -0.1381 -0.1077
  332loPI   PO4 5300  14.728  12.912  11.041  0.0726 -0.0893 -0.2219
  332loPI   GL1 5301  14.914  12.862  10.575  0.1093 -0.2764 -0.1479
  332loPI   GL2 5302  14.924  13.107  10.612  0.3628  0.3377  0.0137
  332loPI   C1A 5303  14.830  12.851  10.127  0.0112  0.0340  0.1572
  332loPI   C2A 5304  14.821  12.861   9.794 -0.1802 -0.1361 -0.2282
  332loPI   C3A 5305  14.910  12.916   9.405 -0.0076  0.0024 -0.2812
  332loPI   C4A 5306  15.027  13.066   9.056  0.1392 -0.1112  0.2300
  332loPI   C5A 5307  15.152  13.183   8.637  0.2917 -0.1483  0.0345
  332loPI   C6A 5308  14.916  13.500   8.500 -0.1645 -0.2597 -0.1110
  332loPI   C1B 5309  14.817  13.345  10.241 -0.0011 -0.0331 -0.2735
  332loPI   C2B 5310  14.750  13.340   9.817 -0.0349  0.0604  0.2545
  332loPI   C3B 5311  14.456  13.127   9.439 -0.2519 -0.2236  0.0132
  332loPI   C4B 5312  14.427  12.896   9.062 -0.0794  0.2282 -0.0399
  333loPI    C1 5313   0.045  15.877  10.736 -0.0182  0.0760 -0.0110
  333loPI    C2 5314   0.125  16.132  11.033 -0.0809 -0.0836  0.1451
  333loPI    C3 5315  -0.248  16.101  10.891 -0.0855 -0.1315  0.1674
  333loPI   PO4 5316   0.226  15.960  10.531  0.3900 -0.2575 -0.0157
  333loPI   GL1 5317   0.577  15.956  10.347 -0.2702  0.2788 -0.0153
  333loPI   GL2 5318   0.486  15.746  10.147  0.3110  0.3001  0.0352
  333loPI   C1A 5319   0.764  16.142   9.953  0.1665 -0.0565 -0.1103
  333loPI   C2A 5320   0.829  16.100   9.550 -0.0481 -0.0207  0.1676
  333loPI   C3A 5321   1.091  16.272   9.211  0.2433  0.2164 -0.0646
  333loPI   C4A 5322   1.114  16.577   8.894  0.0610 -0.1894 -0.1558
  333loPI   C5A 5323   0.910  16.852   8.549  0.1198 -0.1422  0.0883
  333loPI   C6A 5324   0.820  17.124   8.218 -0.0337 -0.1350 -0.1502
  333loPI   C1B 5325   0.577  15.704   9.699 -0.1733  0.0629 -0.3180
  333loPI   C2B 5326   0.422  15.499   9.328 -0.0548 -0.0250  0.0516
  333loPI   C3B 5327   0.427  15.291   8.901 -0.3063 -0.2618  0.0398
  333loPI   C4B 5328   0.404  15.375   8.474 -0.5657  0.1459 -0.1192
  334loPI    C1 5329  10.945   1.006  11.062  0.1003 -0.0836  0.0897
  334loPI    C2 5330  11.195   0.754  11.246  0.1606 -0.0598  0.0405
  334loPI    C3 5331  11.037   1.061  11.448  0.1458 -0.0936  0.0804
  334loPI   PO4 5332  11.044   1.037  10.856  0.2299  0.3074 -0.0246
  334loPI   GL1 5333  11.352   1.099  10.384  0.1278 -0.1961 -0.2223
  334loPI   GL2 5334  11.280   0.844  10.416 -0.0316  0.0970 -0.1184
  334loPI   C1A 5335  11.290   1.157   9.877 -0.0979 -0.0856 -0.2290
  334loPI   C2A 5336  11.529   1.167   9.551 -0.0128 -0.1872 -0.1022
  334loPI   C3A 5337  11.604   1.090   9.191 -0.0179  0.2448 -0.1800
  334loPI   C4A 5338  11.410   1.022   8.845  0.4483 -0.3553 -0.1207
  334loPI   C5A 5339  11.137   1.001   8.479  0.3207 -0.0774 -0.0923
  334loPI   C6A 5340  10.820   1.123   8.330 -0.1801  0.3306 -0.2825
  334loPI   C1B 5341  11.067   0.716  10.015  0.0228 -0.1791 -0.3189
  334loPI   C2B 5342  11.160   0.790   9.530  0.0769  0.4001  0.2707
  334loPI   C3B 5343  11.125   1.150   9.324  0.3107 -0.1424 -0.1117
  334loPI   C4B 5344  10.886   1.201   8.918 -0.0440  0.1682  0.2046
  335loPI    C1 5345   1.688  11.916  10.791 -0.0113  0.0710 -0.1174
  335loPI    C2 5346   1.708  11.701  11.128  0.1875  0.1418 -0.0828
  335loPI    C3 5347   1.443  11.999  11.096  0.1366  0.1049 -0.0066
  335loPI   PO4 5348   1.699  11.696  10.579  0.4383  0.2881  0.0146
  335loPI   GL1 5349   1.383  11.710  10.253  0.1073 -0.1525 -0.1211
  335loPI   GL2 5350   1.154  11.927  10.206 -0.0154 -0.0460 -0.1843
  335loPI   C1A 5351   1.457  11.562   9.819  0.0191 -0.1366 -0.0120
  335loPI   C2A 5352   1.481  11.530   9.448  0.1169 -0.1225 -0.4619
  335loPI   C3A 5353   1.678  11.655   9.047 -0.4195  0.2471  0.3086
  335loPI   C4A 5354   1.862  11.406   8.721  0.1081 -0.1071  0.2295
  335loPI   C5A 5355   2.285  11.354   8.481  0.3612 -0.0296 -0.3308
  335loPI   C6A 5356   2.458  11.265   8.057  0.0086  0.2699  0.1644
  335loPI   C1B 5357   1.131  11.991   9.842 -0.0846  0.2171 -0.1805
  335loPI   C2B 5358   1.136  12.017   9.372 -0.2096  0.2255 -0.0837
  335loPI   C3B 5359   1.399  12.035   9.063 -0.2761  0.1777  0.0151
  335loPI   C4B 5360   1.595  12.103   8.573 -0.1958 -0.3375 -0.0416
  336loPI    C1 5361   3.109   3.274  10.810  0.0752  0.0818 -0.1001
  336loPI    C2 5362   3.077   3.016  11.114 -0.1456 -0.0001 -0.1906
  336loPI    C3 5363   3.310   3.339  11.149 -0.2658  0.0572  0.1112
  336loPI   PO4 5364   3.078   3.153  10.577  0.0431 -0.0432  0.0361
  336loPI   GL1 5365   3.049   3.138  10.130  0.3866 -0.4143 -0.2505
  336loPI   GL2 5366   3.334   3.237  10.134 -0.0674 -0.0447  0.0807
  336loPI   C1A 5367   3.089   2.742   9.787  0.1390  0.0058  0.1079
  336loPI   C2A 5368   3.111   2.547   9.345 -0.0098 -0.1101 -0.3100
  336loPI   C3A 5369   2.910   2.209   9.058 -0.4317  0.3881  0.1404
  336loPI   C4A 5370   2.683   1.865   8.868  0.0357  0.0854 -0.0083
  336loPI   C5A 5371   2.344   1.586   8.716  0.0357 -0.0594 -0.0467
  336loPI   C6A 5372   2.355   1.310   8.390 -0.3413  0.2882 -0.0964
  336loPI   C1B 5373   3.276   3.179   9.695  0.0616  0.3556  0.0869
  336loPI   C2B 5374   3.104   3.091   9.358 -0.2188  0.1217  0.1585
  336loPI   C3B 5375   2.917   3.248   9.002 -0.2651  0.1833 -0.1907
  336loPI   C4B 5376   2.877   3.089   8.520  0.0195  0.1119  0.2643
  337loPI    C1 5377  13.949  16.855  11.101 -0.0494  0.0431  0.2042
  337loPI    C2 5378  13.646  16.855  10.840  0.1868  0.0319 -0.0753
  337loPI    C3 5379  13.803  17.201  10.964  0.0878  0.0368  0.0386
  337loPI   PO4 5380  14.118  16.629  10.992 -0.1543  0.0571  0.0515
  337loPI   GL1 5381  14.243  16.631  10.538  0.1303  0.1712  0.3194
  337loPI   GL2 5382  13.932  16.655  10.450  0.4215 -0.1159 -0.0396
  337loPI   C1A 5383  14.498  16.436  10.250 -0.0583 -0.1273 -0.1019
  337loPI   C2A 5384  14.467  16.428   9.862 -0.3911 -0.0198 -0.0874
  337loPI   C3A 5385  14.211  16.396   9.441  0.1597  0.2651 -0.0335
  337loPI   C4A 5386  13.991  16.416   9.056  0.2672 -0.0717 -0.1089
  337loPI   C5A 5387  13.923  16.501   8.705 -0.0928 -0.0251  0.1938
  337loPI   C6A 5388  13.609  16.442   8.421 -0.0178 -0.0494  0.0673
  337loPI   C1B 5389  13.926  16.571  10.027 -0.0356  0.1792  0.0844
  337loPI   C2B 5390  13.765  16.645   9.578 -0.0372  0.2106  0.1650
  337loPI   C3B 5391  13.674  16.830   9.171 -0.0268  0.2709 -0.1140
  337loPI   C4B 5392  13.402  16.864   8.843  0.0616  0.1044 -0.0070
  338loPI    C1 5393  16.651   1.396  11.490 -0.1386  0.0384 -0.2318
  338loPI    C2 5394  16.915   1.142  11.330 -0.1792 -0.2105  0.0857
  338loPI    C3 5395  16.976   1.288  11.698 -0.1649  0.2319 -0.0865
  338loPI   PO4 5396  16.548   1.500  11.192 -0.0726 -0.0468  0.1078
  338loPI   GL1 5397  16.527   1.520  10.676  0.0223  0.0099 -0.3782
  338loPI   GL2 5398  16.189   1.652  10.522 -0.0813 -0.0529 -0.4632
  338loPI   C1A 5399  16.603   1.620  10.217  0.0137  0.1170  0.0080
  338loPI   C2A 5400  16.634   1.630   9.872  0.3181  0.3646 -0.4313
  338loPI   C3A 5401  16.645   1.770   9.499  0.3079  0.1648  0.1772
  338loPI   C4A 5402  16.549   1.650   9.080 -0.2375  0.2987 -0.1329
  338loPI   C5A 5403  16.562   1.891   8.656 -0.1400  0.0622  0.1177
  338loPI   C6A 5404  16.292   1.794   8.325  0.0763  0.1638 -0.0031
  338loPI   C1B 5405  16.103   1.576  10.017  0.0782 -0.0494 -0.0390
  338loPI   C2B 5406  15.956   1.381   9.824  0.1807 -0.1348 -0.5139
  338loPI   C3B 5407  15.674   1.306   9.882  0.1612 -0.0504  0.0821
  338loPI   C4B 5408  15.852   1.247  10.264 -0.0980  0.1415  0.0015
  339POPI    C1 5409   4.983   0.244  10.806  0.0256  0.0310  0.0812
  339POPI    C2 5410   5.171   0.332  11.148  0.1228  0.0724  0.0175
  339POPI    C3 5411   4.982   0.619  10.944 -0.2459 -0.0191  0.2218
  339POPI   PO4 5412   5.082   0.070  10.693 -0.0698 -0.1324 -0.0743
  339POPI   GL1 5413   4.954  -0.027  10.273  0.0082  0.0360  0.1915
  339POPI   GL2 5414   5.223  -0.085  10.133  0.1863  0.3348  0.0005
  339POPI   C1A 5415   4.869  -0.163   9.825 -0.0133  0.1124 -0.1568
  339POPI   D2A 5416   4.964  -0.397   9.455  0.0898  0.1120  0.2281
  339POPI   C3A 5417   4.682  -0.650   9.221  0.1738  0.1088 -0.1616
  339POPI   C4A 5418   4.480  -0.654   8.896 -0.1433 -0.0521 -0.1367
  339POPI   C1B 5419   5.346   0.034   9.782  0.1118  0.3546 -0.1576
  339POPI   C2B 5420   5.277   0.076   9.307 -0.1518 -0.0333 -0.1098
  339POPI   C3B 5421   5.246   0.044   8.874  0.5878  0.1478  0.1591
  339POPI   C4B 5422   5.266  -0.050   8.414 -0.0791 -0.1015  0.1364
  340POPI    C1 5423  16.964  15.125  10.798 -0.1005  0.0430 -0.1230
  340POPI    C2 5424  17.229  15.395  10.929  0.0261 -0.1471  0.0172
  340POPI    C3 5425  16.878  15.352  11.116 -0.1137  0.1156 -0.1782
  340POPI   PO4 5426  16.880  15.065  10.552  0.1029  0.0861 -0.0139
  340POPI   GL1 5427  16.845  14.859  10.189  0.1422 -0.2347  0.3798
  340POPI   GL2 5428  17.199  14.867  10.182 -0.0149  0.0992 -0.0874
  340POPI   C1A 5429  16.751  14.708   9.752  0.0910  0.0498 -0.1481
  340POPI   D2A 5430  16.682  14.729   9.289  0.1535  0.0572 -0.1430
  340POPI   C3A 5431  16.639  14.897   8.914  0.1917  0.3169  0.2524
  340POPI   C4A 5432  16.675  15.136   8.546 -0.1779 -0.0077 -0.1929
  340POPI   C1B 5433  17.149  15.119   9.894 -0.1849 -0.0819 -0.0775
  340POPI   C2B 5434  16.956  15.106   9.483 -0.4337  0.1232  0.2450
  340POPI   C3B 5435  17.226  15.143   9.037 -0.2685 -0.0079 -0.2867
  340POPI   C4B 5436  17.329  15.199   8.644 -0.1081 -0.1462 -0.1532
  341POPI    C1 5437  11.628   9.251  11.011 -0.2965  0.0579 -0.1811
  341POPI    C2 5438  11.312   9.042  11.139 -0.1826  0.0393  0.0762
  341POPI    C3 5439  11.674   8.974  11.295 -0.0170 -0.0598 -0.3369
  341POPI   PO4 5440  11.436   9.422  10.689  0.0376  0.0746  0.2333
  341POPI   GL1 5441  11.531   9.251  10.270 -0.1418 -0.3610  0.1130
  341POPI   GL2 5442  11.436   9.400  10.041  0.0089 -0.1046  0.3997
  341POPI   C1A 5443  11.912   9.406  10.014  0.0773  0.3827  0.0037
  341POPI   D2A 5444  11.961   9.504   9.618  0.0476  0.4879  0.0883
  341POPI   C3A 5445  12.090   9.364   9.256  0.0643 -0.1455  0.0490
  341POPI   C4A 5446  11.923   9.168   8.878  0.0438 -0.0326  0.2037
  341POPI   C1B 5447  11.507   9.369   9.606  0.1031 -0.3129 -0.2632
  341POPI   C2B 5448  11.610   9.378   9.196  0.2610 -0.0730  0.1014
  341POPI   C3B 5449  11.426   9.257   8.825  0.0881 -0.3145 -0.0555
  341POPI   C4B 5450  11.327   9.118   8.439  0.0516 -0.1140  0.1444
  342POPI    C1 5451  11.872   8.330  10.908 -0.1664 -0.0733  0.0068
  342POPI    C2 5452  12.042   8.056  10.670 -0.1755  0.1230 -0.2305
  342POPI    C3 5453  12.216   8.157  11.015 -0.2070 -0.2278 -0.1080
  342POPI   PO4 5454  11.722   8.403  10.675 -0.0391  0.2325 -0.2272
  342POPI   GL1 5455  11.565   8.171  10.302  0.0447  0.2066  0.4805
  342POPI   GL2 5456  11.890   8.280  10.222  0.1398  0.3213  0.3131
  342POPI   C1A 5457  11.578   8.167   9.825 -0.1654 -0.1625 -0.2218
  342POPI   D2A 5458  11.450   8.132   9.447  0.2289  0.0510  0.1479
  342POPI   C3A 5459  11.359   8.272   8.989 -0.1615 -0.1297 -0.0257
  342POPI   C4A 5460  11.300   8.184   8.579  0.2984 -0.2999 -0.0842
  342POPI   C1B 5461  12.013   8.449   9.759  0.1422  0.0373 -0.4450
  342POPI   C2B 5462  11.895   8.447   9.440  0.0466  0.3050 -0.0768
  342POPI   C3B 5463  11.852   8.283   9.119  0.1315  0.3305 -0.1337
  342POPI   C4B 5464  11.888   8.211   8.798  0.0225 -0.0651  0.0028
  343POPI    C1 5465  11.091  15.706  10.984 -0.1292 -0.4644  0.0729
  343POPI    C2 5466  11.407  15.649  11.222  0.0730  0.0239 -0.0643
  343POPI    C3 5467  11.073  15.814  11.369  0.1827  0.2855 -0.1051
  343POPI   PO4 5468  11.182  15.800  10.755 -0.3385  0.0080 -0.1204
  343POPI   GL1 5469  11.354  15.744  10.351 -0.1517 -0.1603  0.0671
  343POPI   GL2 5470  11.528  15.957  10.408 -0.1406 -0.2878  0.1124
  343POPI   C1A 5471  11.226  15.758   9.864 -0.2677 -0.1459  0.1196
  343POPI   D2A 5472  10.960  15.734   9.458  0.0905 -0.2006 -0.1169
  343POPI   C3A 5473  11.080  15.604   9.065 -0.0990 -0.0210  0.0541
  343POPI   C4A 5474  11.128  15.672   8.667  0.1347 -0.0368  0.2578
  343POPI   C1B 5475  11.772  15.830  10.047  0.4780 -0.0761 -0.1412
  343POPI   C2B 5476  11.712  15.864   9.548 -0.1258  0.1458 -0.1590
  343POPI   C3B 5477  11.374  15.966   9.240  0.3022 -0.0036  0.0954
  343POPI   C4B 5478  11.166  16.173   8.810 -0.0012 -0.1674  0.0178
  344POPI    C1 5479   7.787   8.049  10.858  0.1451 -0.0818 -0.0779
  344POPI    C2 5480   7.866   8.287  11.170  0.2074 -0.1116 -0.0708
  344POPI    C3 5481   7.618   7.976  11.213 -0.0227  0.0619 -0.1268
  344POPI   PO4 5482   7.840   8.179  10.615  0.2788  0.0452  0.0542
  344POPI   GL1 5483   8.052   8.075  10.253 -0.1703  0.3456  0.0446
  344POPI   GL2 5484   8.170   7.761  10.096  0.0485  0.0632 -0.2843
  344POPI   C1A 5485   8.017   8.248   9.871 -0.3533  0.1957  0.2390
  344POPI   D2A 5486   7.923   8.260   9.517 -0.1422  0.0527 -0.0036
  344POPI   C3A 5487   8.088   8.387   9.174  0.0716 -0.1962  0.2868
  344POPI   C4A 5488   8.073   8.526   8.726 -0.2223  0.1529 -0.0318
  344POPI   C1B 5489   8.339   7.887   9.731  0.0609 -0.0465 -0.0048
  344POPI   C2B 5490   8.401   8.015   9.308  0.4396  0.1233 -0.0252
  344POPI   C3B 5491   8.570   8.165   8.786 -0.0577  0.1190 -0.1017
  344POPI   C4B 5492   8.678   8.190   8.352 -0.2295  0.2634  0.0263
  345POPI    C1 5493   2.332   3.662  10.744 -0.2112  0.2849 -0.0736
  345POPI    C2 5494   2.164   3.982  10.915  0.1869  0.4706 -0.0213
  345POPI    C3 5495   2.513   3.842  11.052 -0.0128 -0.0270 -0.0038
  345POPI   PO4 5496   2.243   3.708  10.489 -0.1746  0.1175 -0.2694
  345POPI   GL1 5497   2.109   3.893  10.087 -0.0520 -0.0294 -0.4609
  345POPI   GL2 5498   2.175   4.314  10.079 -0.1630 -0.0402 -0.0196
  345POPI   C1A 5499   1.989   3.688   9.736  0.1877  0.0512  0.0614
  345POPI   D2A 5500   1.943   3.710   9.363 -0.0449 -0.3421  0.0217
  345POPI   C3A 5501   1.774   3.919   8.948 -0.1696 -0.2066 -0.0286
  345POPI   C4A 5502   1.816   4.296   8.618 -0.0059 -0.6185  0.1119
  345POPI   C1B 5503   2.006   4.218   9.566  0.1475  0.2215  0.0741
  345POPI   C2B 5504   1.838   4.280   9.234  0.1190 -0.1322 -0.0795
  345POPI   C3B 5505   1.392   4.339   9.263 -0.0427 -0.0811  0.0316
  345POPI   C4B 5506   1.259   4.594   8.936 -0.1732  0.0732  0.1461
  346POPI    C1 5507  15.933   5.410  10.478  0.1372 -0.3644 -0.2089
  346POPI    C2 5508  16.202   5.390  10.773  0.0402  0.0111 -0.0893
  346POPI    C3 5509  15.842   5.224  10.820  0.0907 -0.0943 -0.0713
  346POPI   PO4 5510  15.939   5.667  10.447 -0.0208  0.3711  0.1373
  346POPI   GL1 5511  15.798   6.018  10.238 -0.3506  0.0987 -0.0339
  346POPI   GL2 5512  15.446   5.798  10.250 -0.1638  0.0966 -0.0188
  346POPI   C1A 5513  15.759   6.288   9.869 -0.1209  0.0704  0.1386
  346POPI   D2A 5514  15.902   6.490   9.542 -0.0433  0.2345 -0.2813
  346POPI   C3A 5515  15.780   6.280   9.153  0.0568 -0.3399 -0.2221
  346POPI   C4A 5516  15.469   6.186   8.871  0.0254 -0.1775 -0.1800
  346POPI   C1B 5517  15.627   5.747   9.854 -0.0359  0.0275 -0.1676
  346POPI   C2B 5518  15.647   5.613   9.460 -0.2072 -0.2580  0.0471
  346POPI   C3B 5519  15.729   5.363   9.109  0.1198  0.0430 -0.0603
  346POPI   C4B 5520  15.819   5.122   8.812  0.4963 -0.0585  0.1339
  347POPI    C1 5521   9.703   0.238  10.922 -0.2580 -0.0531  0.1968
  347POPI    C2 5522   9.373   0.149  10.713 -0.2463  0.1094  0.1073
  347POPI    C3 5523   9.420   0.007  11.084 -0.2662 -0.1839 -0.0002
  347POPI   PO4 5524   9.780   0.451  10.849  0.1289  0.0175 -0.0041
  347POPI   GL1 5525  10.018   0.418  10.349  0.3043  0.1863  0.0609
  347POPI   GL2 5526   9.806   0.177  10.427 -0.0453 -0.2088 -0.1136
  347POPI   C1A 5527   9.795   0.549  10.016  0.2343 -0.1209  0.0081
  347POPI   D2A 5528   9.729   0.403   9.642  0.0661 -0.4291  0.1872
  347POPI   C3A 5529   9.700   0.566   9.312  0.0538 -0.2110  0.1941
  347POPI   C4A 5530   9.631   0.605   8.970  0.4833 -0.0984  0.4466
  347POPI   C1B 5531   9.408   0.221  10.210 -0.1972  0.2347 -0.0075
  347POPI   C2B 5532   9.278   0.237   9.769 -0.0945 -0.2075  0.0355
  347POPI   C3B 5533   9.283   0.185   9.306  0.2492  0.1534  0.0619
  347POPI   C4B 5534   9.249   0.232   8.886  0.4285 -0.2244  0.4423
  348POPI    C1 5535   1.058  15.481  11.141 -0.1874  0.0425 -0.3530
  348POPI    C2 5536   1.032  15.881  11.142 -0.0575  0.0522 -0.1690
  348POPI    C3 5537   0.913  15.672  11.462  0.1127 -0.0392 -0.1643
  348POPI   PO4 5538   0.898  15.420  10.892 -0.0906 -0.0161 -0.1386
  348POPI   GL1 5539   0.814  15.526  10.533  0.2688  0.1119  0.2238
  348POPI   GL2 5540   0.986  15.902  10.606  0.0805 -0.1031 -0.0546
  348POPI   C1A 5541   0.923  15.399  10.165  0.1204 -0.3853  0.0687
  348POPI   D2A 5542   1.367  15.243   9.969  0.1956  0.6383  0.2105
  348POPI   C3A 5543   1.387  15.323   9.559 -0.0742 -0.2519  0.1549
  348POPI   C4A 5544   1.429  15.200   9.166  0.1535 -0.1368 -0.2672
  348POPI   C1B 5545   1.177  15.824  10.225 -0.0306  0.0517 -0.0202
  348POPI   C2B 5546   1.110  15.737   9.824  0.0881  0.1764  0.2688
  348POPI   C3B 5547   1.156  15.758   9.433  0.2434 -0.0799  0.0568
  348POPI   C4B 5548   1.316  15.774   8.973 -0.1411 -0.1048 -0.1374
  349POPI    C1 5549   3.335  12.194  11.386 -0.1025 -0.0028 -0.0457
  349POPI    C2 5550   3.259  12.455  11.679 -0.1111 -0.0970  0.0364
  349POPI    C3 5551   3.520  12.157  11.738 -0.1318 -0.1312 -0.0431
  349POPI   PO4 5552   3.377  12.345  11.137  0.2419  0.4171 -0.1259
  349POPI   GL1 5553   3.338  12.476  10.704 -0.3072 -0.3682 -0.0024
  349POPI   GL2 5554   3.371  12.271  10.587  0.1424  0.1499 -0.0632
  349POPI   C1A 5555   3.311  12.789  10.417  0.0498  0.3412 -0.1009
  349POPI   D2A 5556   3.009  12.898  10.104  0.0027  0.1728 -0.0109
  349POPI   C3A 5557   2.906  12.874   9.630 -0.3949 -0.1419  0.1106
  349POPI   C4A 5558   2.822  12.834   9.095 -0.0542 -0.0606  0.0980
  349POPI   C1B 5559   3.499  12.312  10.228 -0.1308  0.1916  0.1488
  349POPI   C2B 5560   3.667  12.228   9.844  0.0779 -0.0462  0.1195
  349POPI   C3B 5561   3.777  12.178   9.440  0.0687  0.1934  0.0796
  349POPI   C4B 5562   3.970  11.880   9.148 -0.1701 -0.2882  0.0377
  350POPI    C1 5563   6.505  12.964  10.836  0.1949 -0.2930 -0.1129
  350POPI    C2 5564   6.796  13.060  10.579  0.3844 -0.1183  0.1620
  350POPI    C3 5565   6.882  13.000  10.965  0.0370  0.0615  0.2714
  350POPI   PO4 5566   6.374  12.773  10.693  0.0820  0.1008  0.0310
  350POPI   GL1 5567   6.347  12.456  10.364 -0.0445  0.0806 -0.0198
  350POPI   GL2 5568   6.087  12.647  10.293  0.3959 -0.0184 -0.0024
  350POPI   C1A 5569   6.107  12.200   9.998  0.2576 -0.4591  0.1391
  350POPI   D2A 5570   6.089  12.025   9.616  0.0965 -0.0073 -0.0070
  350POPI   C3A 5571   6.428  11.973   9.330  0.5517 -0.3029 -0.0544
  350POPI   C4A 5572   6.485  11.820   8.992  0.1899  0.0684  0.0532
  350POPI   C1B 5573   5.990  12.907   9.902 -0.1327 -0.1895  0.0167
  350POPI   C2B 5574   6.254  13.190   9.715 -0.1876 -0.1193  0.2588
  350POPI   C3B 5575   6.697  13.188   9.582  0.2341 -0.0341  0.1076
  350POPI   C4B 5576   6.944  13.270   9.218 -0.0873  0.2938 -0.2124
  351POPI    C1 5577   9.499  10.325  10.963 -0.0449 -0.0828 -0.0260
  351POPI    C2 5578   9.658   9.966  10.882 -0.0349 -0.1349  0.2177
  351POPI    C3 5579   9.392  10.005  11.179 -0.0558  0.0554  0.1752
  351POPI   PO4 5580   9.522  10.379  10.671  0.4338 -0.0122 -0.0217
  351POPI   GL1 5581   9.551  10.565  10.309 -0.1739 -0.2511  0.2368
  351POPI   GL2 5582   9.805  10.726  10.399 -0.0503  0.0366 -0.0883
  351POPI   C1A 5583   9.787  10.490   9.882 -0.2446 -0.1036 -0.0964
  351POPI   D2A 5584   9.847  10.341   9.508  0.1490  0.1627  0.1295
  351POPI   C3A 5585   9.546  10.253   9.202  0.0939 -0.0419  0.0164
  351POPI   C4A 5586   9.593  10.268   8.775 -0.0214 -0.1508 -0.0372
  351POPI   C1B 5587   9.789  10.983   9.988 -0.3365  0.1648  0.0168
  351POPI   C2B 5588   9.827  11.137   9.569 -0.0049  0.2863  0.1185
  351POPI   C3B 5589   9.978  11.126   9.119 -0.2042  0.0063  0.0086
  351POPI   C4B 5590   9.934  11.296   8.752  0.0067  0.1853 -0.0934
  352POPI    C1 5591   7.106  14.744  10.877 -0.1493 -0.0650  0.0910
  352POPI    C2 5592   6.751  14.902  10.970 -0.1015 -0.0775  0.2982
  352POPI    C3 5593   7.076  15.000  11.182  0.0755  0.1647 -0.0750
  352POPI   PO4 5594   7.126  14.767  10.684  0.1859  0.2030 -0.1551
  352POPI   GL1 5595   7.351  14.839  10.369  0.1104  0.2119 -0.1035
  352POPI   GL2 5596   7.395  15.170  10.360 -0.1906 -0.0099  0.1473
  352POPI   C1A 5597   7.389  14.553  10.069  0.2608 -0.0595  0.2258
  352POPI   D2A 5598   7.573  14.169   9.902  0.1318 -0.3783 -0.2180
  352POPI   C3A 5599   7.608  14.096   9.432 -0.1785  0.0915  0.1559
  352POPI   C4A 5600   7.527  13.673   9.172 -0.1612 -0.0350  0.0998
  352POPI   C1B 5601   7.423  15.006   9.892 -0.2195  0.1641 -0.0905
  352POPI   C2B 5602   7.472  14.970   9.468  0.0290  0.2351  0.0877
  352POPI   C3B 5603   7.451  14.919   9.095  0.0046  0.2788  0.0163
  352POPI   C4B 5604   7.366  14.965   8.699  0.1952  0.0928  0.0067
  353POPI    C1 5605   4.544   5.788  10.441 -0.0565 -0.2426 -0.1475
  353POPI    C2 5606   4.158   5.789  10.336 -0.1099  0.1119  0.0368
  353POPI    C3 5607   4.260   5.772  10.722  0.0597  0.0446 -0.0099
  353POPI   PO4 5608   4.629   5.808  10.176 -0.0431  0.1635  0.0565
  353POPI   GL1 5609   4.803   6.063   9.921 -0.4125  0.1425 -0.0733
  353POPI   GL2 5610   4.779   6.389  10.025  0.0868 -0.0263  0.1588
  353POPI   C1A 5611   4.764   5.797   9.570 -0.0193 -0.0024  0.0579
  353POPI   D2A 5612   4.648   5.785   9.239  0.2812 -0.2052  0.1674
  353POPI   C3A 5613   4.343   5.984   8.969  0.0644 -0.0013 -0.2080
  353POPI   C4A 5614   4.330   5.847   8.562  0.1405 -0.0739  0.0955
  353POPI   C1B 5615   4.772   6.330   9.500 -0.0513 -0.0393  0.2084
  353POPI   C2B 5616   4.775   6.220   9.109  0.2830  0.0190 -0.1130
  353POPI   C3B 5617   4.614   6.352   8.711  0.0765  0.1298  0.1992
  353POPI   C4B 5618   4.887   6.579   8.379 -0.0842  0.1543  0.0357
  354POPI    C1 5619  12.994   1.203  10.974 -0.0099  0.0573 -0.0599
  354POPI    C2 5620  13.105   0.987  11.292  0.2181 -0.0667 -0.2210
  354POPI    C3 5621  12.993   1.368  11.339 -0.0117 -0.1633  0.0413
  354POPI   PO4 5622  12.813   0.986  10.824  0.0103 -0.0691 -0.0555
  354POPI   GL1 5623  12.947   0.864  10.431 -0.0028 -0.1300  0.0042
  354POPI   GL2 5624  12.907   0.610  10.283  0.0523 -0.0574  0.0790
  354POPI   C1A 5625  13.293   0.982  10.059  0.0277  0.1717  0.0254
  354POPI   D2A 5626  13.570   1.096   9.781  0.0322  0.0181 -0.0175
  354POPI   C3A 5627  13.371   1.358   9.486  0.1878  0.2685  0.0272
  354POPI   C4A 5628  13.127   1.517   9.152  0.0114 -0.1946  0.2198
  354POPI   C1B 5629  12.917   0.731   9.822  0.1057  0.1023 -0.2087
  354POPI   C2B 5630  12.868   0.596   9.355 -0.1543 -0.1534  0.3075
  354POPI   C3B 5631  12.846   0.738   8.887  0.1485 -0.1646  0.0346
  354POPI   C4B 5632  13.123   0.788   8.538  0.2383  0.0159 -0.0936
  355POPI    C1 5633   5.907  13.728  10.814  0.0250  0.0726  0.1093
  355POPI    C2 5634   6.167  13.727  11.118  0.1663  0.2357 -0.0088
  355POPI    C3 5635   5.860  13.983  11.118  0.1383  0.2023  0.0190
  355POPI   PO4 5636   6.037  13.825  10.616  0.3666 -0.2888 -0.2015
  355POPI   GL1 5637   6.067  13.756  10.193 -0.2259  0.0692 -0.1451
  355POPI   GL2 5638   5.802  13.816   9.926  0.2598 -0.1230  0.1856
  355POPI   C1A 5639   6.289  13.762   9.818 -0.0356 -0.1193  0.2108
  355POPI   D2A 5640   6.378  13.861   9.357  0.0975 -0.1202  0.0017
  355POPI   C3A 5641   6.687  13.655   9.295  0.0789  0.0105  0.0117
  355POPI   C4A 5642   6.860  13.627   9.563 -0.1683 -0.2353  0.1568
  355POPI   C1B 5643   5.912  13.837   9.487  0.3913  0.0533 -0.0694
  355POPI   C2B 5644   5.832  13.798   9.098 -0.0510  0.2059 -0.1274
  355POPI   C3B 5645   5.979  14.006   8.720  0.2354  0.0714  0.1408
  355POPI   C4B 5646   6.116  14.263   8.450  0.2394  0.0374  0.3621
  356POPI    C1 5647   3.183  16.388  11.396  0.0488 -0.1784  0.2424
  356POPI    C2 5648   3.435  16.692  11.330 -0.0892 -0.1017  0.0584
  356POPI    C3 5649   3.105  16.749  11.549 -0.1240 -0.1142  0.0095
  356POPI   PO4 5650   3.258  16.230  11.169 -0.0037 -0.1791  0.0437
  356POPI   GL1 5651   3.183  16.223  10.677  0.0627  0.1448 -0.4262
  356POPI   GL2 5652   3.295  15.983  10.453  0.2181 -0.3682 -0.1360
  356POPI   C1A 5653   3.111  16.530  10.368  0.2451  0.0479  0.5037
  356POPI   D2A 5654   2.782  16.724  10.088  0.0231  0.1056 -0.0422
  356POPI   C3A 5655   2.817  16.912   9.672 -0.4676 -0.1808 -0.1086
  356POPI   C4A 5656   2.890  16.745   9.272  0.0733  0.0353  0.2324
  356POPI   C1B 5657   3.304  16.016  10.038 -0.0956  0.2181  0.1181
  356POPI   C2B 5658   3.240  15.916   9.657 -0.0528 -0.5342 -0.0266
  356POPI   C3B 5659   3.136  16.055   9.285  0.0648 -0.1618 -0.3767
  356POPI   C4B 5660   2.723  16.103   9.032  0.0097  0.1266 -0.1306
  357POPI    C1 5661  12.914   7.124  11.123 -0.2139 -0.1525 -0.0758
  357POPI    C2 5662  13.155   6.929  11.376 -0.0963 -0.2869 -0.2879
  357POPI    C3 5663  12.777   7.008  11.480 -0.0753 -0.4205 -0.1068
  357POPI   PO4 5664  13.070   7.029  10.834 -0.1229  0.1445  0.0783
  357POPI   GL1 5665  12.912   7.120  10.407  0.0852  0.4632  0.0029
  357POPI   GL2 5666  12.889   6.866  10.406  0.1266 -0.3467  0.0649
  357POPI   C1A 5667  12.745   7.230   9.954  0.1452 -0.0709 -0.2846
  357POPI   D2A 5668  12.909   7.437   9.642 -0.1425  0.0383  0.1200
  357POPI   C3A 5669  12.724   7.279   9.332  0.0090 -0.2502  0.1844
  357POPI   C4A 5670  12.711   7.132   8.941 -0.0847  0.2472 -0.1124
  357POPI   C1B 5671  12.936   6.634  10.054  0.0148 -0.0677 -0.1010
  357POPI   C2B 5672  13.254   6.469   9.677 -0.2754 -0.0887 -0.0588
  357POPI   C3B 5673  13.290   6.485   9.246 -0.3400  0.3622  0.2197
  357POPI   C4B 5674  13.398   6.198   8.921 -0.0366 -0.1222 -0.0323
  358POPI    C1 5675   2.538   7.881  10.921 -0.1608  0.1325 -0.2155
  358POPI    C2 5676   2.485   7.544  11.131 -0.0056  0.1226 -0.1913
  358POPI    C3 5677   2.187   7.809  11.099 -0.1871 -0.0976 -0.3560
  358POPI   PO4 5678   2.584   7.888  10.649  0.2226 -0.1645  0.3082
  358POPI   GL1 5679   2.698   7.789  10.203  0.1248  0.0358 -0.2432
  358POPI   GL2 5680   2.627   7.507  10.170  0.0213 -0.1631  0.3561
  358POPI   C1A 5681   2.684   8.014   9.960 -0.1116 -0.0489 -0.0352
  358POPI   D2A 5682   2.627   8.047   9.540 -0.1150  0.3624  0.0903
  358POPI   C3A 5683   2.839   7.950   9.158 -0.2945 -0.2056 -0.2635
  358POPI   C4A 5684   3.096   8.089   8.857 -0.2581 -0.1466  0.0859
  358POPI   C1B 5685   2.750   7.554   9.717 -0.2739 -0.2230 -0.1801
  358POPI   C2B 5686   2.804   7.487   9.417 -0.2711  0.0976 -0.0154
  358POPI   C3B 5687   2.868   7.297   9.022 -0.0006  0.3509 -0.0038
  358POPI   C4B 5688   3.039   7.059   8.751  0.0713  0.4407 -0.0991
  359POPI    C1 5689   1.873  14.435  11.200  0.1156  0.2233  0.3953
  359POPI    C2 5690   1.497  14.324  11.278  0.0656  0.0337 -0.0771
  359POPI    C3 5691   1.801  14.142  11.462 -0.0552 -0.1937 -0.0986
  359POPI   PO4 5692   1.881  14.413  10.921 -0.0933 -0.1372  0.3320
  359POPI   GL1 5693   1.626  14.342  10.550 -0.0472  0.4437  0.1484
  359POPI   GL2 5694   1.629  14.019  10.472 -0.2543 -0.0545 -0.1757
  359POPI   C1A 5695   1.549  14.418  10.048  0.0350  0.1544  0.0332
  359POPI   D2A 5696   1.452  14.544   9.615  0.0766 -0.0852  0.1389
  359POPI   C3A 5697   1.669  14.852   9.528 -0.3336  0.3404  0.0356
  359POPI   C4A 5698   1.897  14.958   9.172  0.1025 -0.2997 -0.3497
  359POPI   C1B 5699   1.941  14.098  10.091 -0.0562 -0.0698  0.1697
  359POPI   C2B 5700   2.214  14.085   9.756  0.0298 -0.0049 -0.2493
  359POPI   C3B 5701   2.431  14.094   9.344  0.1978 -0.3567 -0.2425
  359POPI   C4B 5702   2.641  14.193   9.101 -0.0173  0.1623  0.1427
  360POPI    C1 5703   0.046  17.465  11.003 -0.0203 -0.1556  0.1127
  360POPI    C2 5704   0.152  17.824  11.145  0.0147 -0.1626  0.1045
  360POPI    C3 5705  -0.135  17.614  11.327 -0.0281 -0.1164  0.0904
  360POPI   PO4 5706   0.089  17.544  10.734 -0.0793  0.0471  0.0122
  360POPI   GL1 5707  -0.079  17.787  10.449  0.0041  0.0546  0.0397
  360POPI   GL2 5708  -0.374  17.732  10.329  0.0576 -0.0282 -0.4253
  360POPI   C1A 5709   0.013  17.639  10.044  0.0354  0.2535 -0.2162
  360POPI   D2A 5710   0.105  17.572   9.635  0.1327 -0.3052  0.0303
  360POPI   C3A 5711   0.070  17.427   9.232 -0.1147  0.3171 -0.2191
  360POPI   C4A 5712  -0.048  17.269   8.786 -0.2132  0.2156 -0.1962
  360POPI   C1B 5713  -0.397  17.939  10.009  0.2126  0.1383  0.2327
  360POPI   C2B 5714  -0.441  17.918   9.582 -0.0559  0.3187  0.1433
  360POPI   C3B 5715  -0.338  17.642   9.348 -0.0268  0.1656  0.3428
  360POPI   C4B 5716  -0.464  17.438   9.041 -0.1781 -0.0298  0.0782
  361POPI    C1 5717  17.273  16.018  10.526 -0.0189  0.0120  0.1118
  361POPI    C2 5718  17.095  16.137  10.864 -0.0174  0.1909  0.0511
  361POPI    C3 5719  16.909  16.184  10.513  0.1119  0.2983 -0.0041
  361POPI   PO4 5720  17.376  15.736  10.614  0.0513 -0.1347 -0.1629
  361POPI   GL1 5721  17.423  15.366  10.376 -0.1086  0.1319  0.0235
  361POPI   GL2 5722  17.090  15.527  10.295 -0.3357  0.0201  0.2931
  361POPI   C1A 5723  17.502  15.486   9.933 -0.0001  0.0773 -0.0496
  361POPI   D2A 5724  17.874  15.375   9.684 -0.2347 -0.1093  0.2665
  361POPI   C3A 5725  17.869  15.272   9.153 -0.2841  0.0512 -0.0773
  361POPI   C4A 5726  17.816  15.213   8.626 -0.0579  0.0960 -0.0568
  361POPI   C1B 5727  16.977  15.716   9.904  0.0880 -0.2847  0.0191
  361POPI   C2B 5728  16.791  15.651   9.469  0.1114 -0.0869 -0.1982
  361POPI   C3B 5729  16.670  15.435   9.137 -0.1325  0.0024  0.0497
  361POPI   C4B 5730  16.267  15.408   8.927 -0.0016 -0.0429 -0.1420
  362POPI    C1 5731  16.243   8.205  10.871  0.1553 -0.1377  0.0635
  362POPI    C2 5732  16.216   7.986  11.205 -0.0570 -0.0577  0.1001
  362POPI    C3 5733  16.271   8.382  11.228  0.0085 -0.0629  0.0386
  362POPI   PO4 5734  15.972   8.236  10.684 -0.1854  0.0426 -0.2995
  362POPI   GL1 5735  15.804   8.056  10.392 -0.0331 -0.0177  0.3968
  362POPI   GL2 5736  16.271   8.151  10.311  0.2663  0.1257  0.0241
  362POPI   C1A 5737  15.709   8.241   9.937 -0.2810  0.2584  0.0611
  362POPI   D2A 5738  15.534   8.645   9.899  0.2804  0.1220 -0.1203
  362POPI   C3A 5739  15.810   8.877   9.702 -0.1438  0.1191 -0.2097
  362POPI   C4A 5740  16.160   9.025   9.648 -0.0726  0.0818 -0.5000
  362POPI   C1B 5741  16.194   7.897   9.903 -0.0333  0.1505  0.4387
  362POPI   C2B 5742  16.214   7.792   9.435 -0.0988  0.1778 -0.0302
  362POPI   C3B 5743  16.416   7.706   9.012 -0.0412 -0.2367  0.0367
  362POPI   C4B 5744  16.640   7.743   8.603  0.0701 -0.0850  0.2655
  363POPI    C1 5745   5.468  12.183  10.944 -0.0948  0.0242 -0.1803
  363POPI    C2 5746   5.356  11.898  11.203 -0.0312  0.1260 -0.0395
  363POPI    C3 5747   5.235  12.276  11.256 -0.0780  0.1342 -0.2003
  363POPI   PO4 5748   5.573  11.974  10.712  0.0042 -0.0495  0.2497
  363POPI   GL1 5749   5.327  12.032  10.333  0.1837  0.2322 -0.2284
  363POPI   GL2 5750   5.595  12.287  10.269  0.0168  0.3320 -0.0795
  363POPI   C1A 5751   5.236  12.110   9.953 -0.1742 -0.1969 -0.0712
  363POPI   D2A 5752   5.067  12.100   9.517  0.3289  0.1782  0.1200
  363POPI   C3A 5753   5.351  12.151   9.098 -0.1536 -0.0908  0.0190
  363POPI   C4A 5754   5.639  12.241   8.751  0.2213  0.0441 -0.2489
  363POPI   C1B 5755   5.685  12.477  10.025 -0.1061 -0.0242  0.1746
  363POPI   C2B 5756   5.666  12.638   9.689 -0.1356  0.0983  0.3504
  363POPI   C3B 5757   5.886  12.891   9.385  0.2184  0.0841  0.3159
  363POPI   C4B 5758   6.358  13.027   9.216 -0.1140  0.0719  0.0473
  364POPI    C1 5759  12.039  16.657  11.386  0.0200 -0.1464 -0.0340
  364POPI    C2 5760  12.326  16.412  11.252 -0.0155 -0.1743 -0.0593
  364POPI    C3 5761  12.408  16.797  11.322  0.0416 -0.1943 -0.0155
  364POPI   PO4 5762  11.886  16.594  11.142  0.2900  0.0362 -0.4334
  364POPI   GL1 5763  11.842  16.560  10.682  0.4569 -0.1685  0.1034
  364POPI   GL2 5764  11.788  16.867  10.701  0.0541 -0.0181 -0.0741
  364POPI   C1A 5765  11.703  16.496  10.197  0.0377  0.4472 -0.3158
  364POPI   D2A 5766  11.589  16.280   9.878  0.2165  0.0756 -0.1084
  364POPI   C3A 5767  11.667  16.332   9.391  0.3411  0.1353  0.0460
  364POPI   C4A 5768  11.561  16.441   8.943  0.2300 -0.1965 -0.0643
  364POPI   C1B 5769  11.736  16.999  10.293  0.1213  0.1804  0.1392
  364POPI   C2B 5770  11.659  17.053   9.869 -0.1954  0.1346 -0.2730
  364POPI   C3B 5771  11.665  17.011   9.354  0.0343  0.0249  0.0099
  364POPI   C4B 5772  11.562  16.949   8.904 -0.1327  0.4939  0.0362
  365POPI    C1 5773  12.743   6.048  11.151  0.0865  0.0101  0.1884
  365POPI    C2 5774  13.135   6.040  11.226  0.1283 -0.0318 -0.0286
  365POPI    C3 5775  12.877   6.108  11.523  0.3089  0.1846  0.0826
  365POPI   PO4 5776  12.698   6.188  10.911  0.1153  0.3985 -0.2381
  365POPI   GL1 5777  12.809   6.346  10.492  0.0501 -0.0180 -0.2323
  365POPI   GL2 5778  12.582   6.375  10.280 -0.0360 -0.3792 -0.0906
  365POPI   C1A 5779  13.124   6.161  10.119  0.0930 -0.2931 -0.2944
  365POPI   D2A 5780  13.484   6.166  10.075 -0.1350 -0.0630  0.2534
  365POPI   C3A 5781  13.756   6.383   9.741 -0.2104 -0.0471 -0.0582
  365POPI   C4A 5782  13.740   6.305   9.281  0.0082 -0.1661 -0.0614
  365POPI   C1B 5783  12.598   6.358   9.837 -0.2447  0.1955  0.2627
  365POPI   C2B 5784  12.727   6.354   9.427 -0.0279 -0.0818  0.1235
  365POPI   C3B 5785  12.921   6.212   9.013 -0.0841  0.1111  0.0991
  365POPI   C4B 5786  13.037   6.267   8.537 -0.1445  0.0860  0.1662
  366POPI    C1 5787  15.279   4.172  10.876 -0.1284  0.1117  0.0889
  366POPI    C2 5788  15.379   4.529  11.028  0.0164  0.0724  0.0875
  366POPI    C3 5789  15.665   4.273  10.913 -0.0842 -0.0876  0.1891
  366POPI   PO4 5790  14.916   4.190  10.788 -0.0814 -0.1579 -0.0197
  366POPI   GL1 5791  14.573   4.240  10.496  0.1771  0.0421 -0.4595
  366POPI   GL2 5792  14.685   3.869  10.457  0.3732  0.1192 -0.2493
  366POPI   C1A 5793  14.875   4.251  10.158  0.2437  0.1591  0.1217
  366POPI   D2A 5794  14.963   4.165   9.812 -0.3529  0.2066  0.0630
  366POPI   C3A 5795  15.003   4.147   9.381  0.0516  0.2970 -0.0144
  366POPI   C4A 5796  14.979   4.265   8.987 -0.1684  0.1755 -0.0999
  366POPI   C1B 5797  14.537   3.878  10.009  0.0848 -0.0961 -0.0137
  366POPI   C2B 5798  14.519   3.822   9.624  0.1378  0.0238  0.0730
  366POPI   C3B 5799  14.714   3.788   9.240  0.1854  0.0274 -0.0577
  366POPI   C4B 5800  14.615   3.839   8.820 -0.4147 -0.1392  0.0519
  367POPI    C1 5801  12.691  13.612  10.995  0.1074  0.0540 -0.0315
  367POPI    C2 5802  12.815  13.936  11.193 -0.0747 -0.0581  0.2726
  367POPI    C3 5803  13.061  13.625  11.145  0.1180  0.1400 -0.0642
  367POPI   PO4 5804  12.628  13.745  10.686  0.2476  0.1865 -0.2440
  367POPI   GL1 5805  12.388  13.790  10.362 -0.0343 -0.0127 -0.1693
  367POPI   GL2 5806  12.565  14.186  10.313  0.0583  0.1582  0.1168
  367POPI   C1A 5807  12.319  13.977   9.932  0.2862 -0.0914  0.1365
  367POPI   D2A 5808  12.329  14.122   9.471 -0.1540  0.0946  0.3669
  367POPI   C3A 5809  12.619  14.127   9.099  0.0844 -0.1152 -0.3036
  367POPI   C4A 5810  12.647  13.955   8.698  0.1169 -0.1539 -0.2697
  367POPI   C1B 5811  12.713  14.317   9.975 -0.1414  0.0214 -0.0805
  367POPI   C2B 5812  12.819  14.274   9.549 -0.1225  0.0475  0.0114
  367POPI   C3B 5813  13.094  14.355   9.306 -0.0527 -0.0965 -0.2836
  367POPI   C4B 5814  13.043  14.319   8.838 -0.0272 -0.0628 -0.3103
  368POPI    C1 5815   6.102   7.301  10.910 -0.1909 -0.0629 -0.1853
  368POPI    C2 5816   6.319   6.966  10.937 -0.1396 -0.0218 -0.0844
  368POPI    C3 5817   6.007   7.022  11.180  0.0242  0.1297  0.0951
  368POPI   PO4 5818   6.109   7.389  10.673  0.0078  0.2478 -0.1673
  368POPI   GL1 5819   6.385   7.522  10.271 -0.3061  0.2126 -0.0971
  368POPI   GL2 5820   6.333   7.730  10.425 -0.1297 -0.1432  0.4143
  368POPI   C1A 5821   6.225   7.555   9.861  0.0788 -0.0893  0.0514
  368POPI   D2A 5822   6.212   7.805   9.552  0.1753  0.1162 -0.0106
  368POPI   C3A 5823   5.880   8.093   9.723 -0.1179 -0.1369  0.0130
  368POPI   C4A 5824   5.737   8.228  10.046  0.0536 -0.0763 -0.2452
  368POPI   C1B 5825   6.155   7.960  10.108  0.2937  0.2351 -0.3918
  368POPI   C2B 5826   6.397   8.180   9.787 -0.3309  0.0501  0.0347
  368POPI   C3B 5827   6.615   8.159   9.394 -0.0043 -0.1360  0.3647
  368POPI   C4B 5828   7.020   8.059   9.250  0.2996  0.0760  0.1434
  369POPI    C1 5829   3.262   7.043  10.905 -0.0889  0.1177 -0.0552
  369POPI    C2 5830   2.906   7.140  11.062 -0.0530  0.0291  0.0826
  369POPI    C3 5831   3.237   7.163  11.286 -0.0081 -0.1511  0.0369
  369POPI   PO4 5832   3.219   7.171  10.537  0.3531  0.0607 -0.0887
  369POPI   GL1 5833   3.379   7.450  10.188  0.1757 -0.0865 -0.0282
  369POPI   GL2 5834   3.467   7.115  10.048  0.1012  0.1300 -0.0507
  369POPI   C1A 5835   3.221   7.409   9.710  0.0059 -0.1121 -0.3428
  369POPI   D2A 5836   3.396   7.239   9.277  0.1561  0.0539 -0.3350
  369POPI   C3A 5837   3.411   6.919   9.034  0.1153  0.0060 -0.2000
  369POPI   C4A 5838   3.454   6.942   8.542 -0.1147  0.0911 -0.0168
  369POPI   C1B 5839   3.673   7.091   9.650  0.3718  0.3439 -0.0545
  369POPI   C2B 5840   3.824   7.060   9.244 -0.1628  0.3077 -0.1734
  369POPI   C3B 5841   3.854   6.874   8.831 -0.0719  0.3336 -0.1911
  369POPI   C4B 5842   4.005   6.979   8.410  0.3406  0.0075 -0.1963
  370POPI    C1 5843   1.054  14.131  11.105 -0.1051 -0.0407  0.1108
  370POPI    C2 5844   1.287  13.854  11.275 -0.1225 -0.2293 -0.1672
  370POPI    C3 5845   1.008  14.041  11.492  0.1248 -0.1746  0.1087
  370POPI   PO4 5846   1.218  14.157  10.856  0.1500  0.1951  0.2735
  370POPI   GL1 5847   1.158  14.135  10.424  0.1801  0.0209  0.1331
  370POPI   GL2 5848   1.085  14.489  10.507 -0.1333 -0.2475 -0.0699
  370POPI   C1A 5849   1.082  14.235   9.897 -0.0666 -0.1844 -0.1728
  370POPI   D2A 5850   1.001  14.392   9.524 -0.0814 -0.0783  0.0267
  370POPI   C3A 5851   1.223  14.422   9.164  0.0835 -0.0642 -0.0450
  370POPI   C4A 5852   1.614  14.558   9.062 -0.3022 -0.1435 -0.3405
  370POPI   C1B 5853   1.137  14.712  10.161  0.1408 -0.0715 -0.2915
  370POPI   C2B 5854   1.070  14.824   9.737  0.0530  0.0737 -0.2561
  370POPI   C3B 5855   1.107  14.874   9.373  0.1537 -0.0472 -0.1714
  370POPI   C4B 5856   1.273  14.877   8.894 -0.4750  0.0196 -0.1132
  371POPI    C1 5857   9.997   6.067  10.964 -0.0517  0.2641 -0.0280
  371POPI    C2 5858   9.680   5.970  11.188  0.0761  0.0643  0.0693
  371POPI    C3 5859  10.048   5.865  11.306  0.1577  0.0836 -0.1631
  371POPI   PO4 5860   9.847   6.267  10.813 -0.6393 -0.0208  0.2025
  371POPI   GL1 5861   9.489   6.380  10.500 -0.2011 -0.0991 -0.1478
  371POPI   GL2 5862   9.277   6.431  10.582  0.0322  0.1536  0.0025
  371POPI   C1A 5863   9.622   6.479  10.173  0.0010 -0.0466  0.1058
  371POPI   D2A 5864   9.602   6.601   9.807 -0.2672  0.1108 -0.0830
  371POPI   C3A 5865   9.370   6.470   9.531 -0.0442 -0.1373 -0.1557
  371POPI   C4A 5866   9.461   6.508   9.135 -0.3600 -0.3953  0.3745
  371POPI   C1B 5867   9.194   6.706  10.162  0.1372 -0.0654 -0.1778
  371POPI   C2B 5868   9.019   6.713   9.745 -0.0629  0.1139 -0.0386
  371POPI   C3B 5869   8.915   6.567   9.288  0.2143 -0.1822  0.0001
  371POPI   C4B 5870   8.863   6.365   8.828 -0.1693  0.0031  0.0157
  372POPI    C1 5871  12.946   4.743  10.882  0.1753 -0.0611 -0.0883
  372POPI    C2 5872  13.189   4.451  11.009  0.0853 -0.0974  0.0014
  372POPI    C3 5873  12.943   4.634  11.267  0.0468 -0.0325 -0.0807
  372POPI   PO4 5874  12.759   4.676  10.683 -0.0065 -0.0493  0.2431
  372POPI   GL1 5875  12.783   4.695  10.253  0.3871  0.0947  0.2391
  372POPI   GL2 5876  13.087   4.631  10.081 -0.1933 -0.1277 -0.0702
  372POPI   C1A 5877  12.682   4.561   9.814  0.1171 -0.3500 -0.0096
  372POPI   D2A 5878  12.940   4.458   9.548 -0.2198 -0.1095  0.0701
  372POPI   C3A 5879  12.969   4.316   9.217  0.0795  0.0736  0.2571
  372POPI   C4A 5880  13.004   3.983   8.819 -0.2631 -0.1484  0.2130
  372POPI   C1B 5881  13.409   4.599   9.666 -0.0592 -0.1108 -0.3151
  372POPI   C2B 5882  13.426   4.390   9.412  0.3914 -0.1006 -0.0924
  372POPI   C3B 5883  13.440   4.241   8.987  0.1151 -0.3233 -0.0001
  372POPI   C4B 5884  13.625   3.976   8.762  0.3542  0.0211  0.0035
  373POPI    C1 5885   0.422   3.196  11.061 -0.1514  0.1421  0.1970
  373POPI    C2 5886   0.814   3.277  11.054 -0.1274  0.0313  0.2447
  373POPI    C3 5887   0.624   3.238  11.404 -0.1274 -0.1700  0.2238
  373POPI   PO4 5888   0.417   2.971  10.846 -0.1585 -0.0624  0.1021
  373POPI   GL1 5889   0.214   2.996  10.428 -0.2150  0.0286 -0.1185
  373POPI   GL2 5890  -0.167   2.950  10.375  0.0018  0.3087 -0.2258
  373POPI   C1A 5891   0.348   2.789   9.980  0.2394  0.1497  0.2230
  373POPI   D2A 5892   0.305   2.796   9.549  0.1006 -0.2800  0.0849
  373POPI   C3A 5893   0.347   2.694   9.199 -0.1563 -0.1691  0.2852
  373POPI   C4A 5894   0.506   2.671   8.871 -0.3371 -0.0507  0.0450
  373POPI   C1B 5895  -0.283   2.961   9.936  0.1469  0.1040 -0.0300
  373POPI   C2B 5896  -0.536   3.048   9.565  0.1780 -0.0583  0.0366
  373POPI   C3B 5897  -0.530   3.170   9.087  0.4039 -0.1155 -0.2789
  373POPI   C4B 5898  -0.308   3.269   8.648  0.3523  0.2188  0.2587
  374POPI    C1 5899  17.141  11.367  11.060  0.0517  0.1396  0.0332
  374POPI    C2 5900  16.804  11.534  11.196 -0.1693 -0.1301 -0.1712
  374POPI    C3 5901  16.850  11.136  11.206  0.1668 -0.0932 -0.0988
  374POPI   PO4 5902  17.165  11.457  10.794 -0.1258  0.1319  0.3044
  374POPI   GL1 5903  16.994  11.619  10.386  0.0958 -0.0924 -0.0304
  374POPI   GL2 5904  16.726  11.565  10.425 -0.2252 -0.2002 -0.1817
  374POPI   C1A 5905  17.075  11.228  10.110  0.0258  0.0491 -0.4633
  374POPI   D2A 5906  17.270  11.186   9.661  0.4239 -0.1326 -0.0880
  374POPI   C3A 5907  17.003  11.241   9.259  0.0736  0.2370  0.3996
  374POPI   C4A 5908  16.899  11.492   8.975  0.0361 -0.0150  0.2180
  374POPI   C1B 5909  16.599  11.690  10.071  0.0063 -0.0762 -0.2741
  374POPI   C2B 5910  16.355  11.711   9.734 -0.1408 -0.5453 -0.2670
  374POPI   C3B 5911  16.366  11.693   9.345  0.2439  0.0690 -0.3693
  374POPI   C4B 5912  16.343  11.726   8.929  0.0117  0.1916  0.1569
  375POPI    C1 5913   6.681   2.917  10.769 -0.0861 -0.1116 -0.0192
  375POPI    C2 5914   6.668   2.576  10.978 -0.0531 -0.0657  0.0581
  375POPI    C3 5915   6.582   2.924  11.157  0.0654 -0.0154  0.0185
  375POPI   PO4 5916   6.801   2.816  10.493  0.0390 -0.1472 -0.0063
  375POPI   GL1 5917   6.547   2.673  10.111  0.2329 -0.1031  0.2602
  375POPI   GL2 5918   6.669   2.306  10.085  0.3372 -0.0427  0.1534
  375POPI   C1A 5919   6.668   2.923   9.725  0.1880 -0.3994 -0.0142
  375POPI   D2A 5920   6.828   3.184   9.494  0.3006 -0.2457  0.0311
  375POPI   C3A 5921   6.815   3.137   9.076 -0.1348 -0.3205  0.1042
  375POPI   C4A 5922   6.692   3.440   8.642  0.3225  0.0080  0.1691
  375POPI   C1B 5923   6.718   2.419   9.679  0.1674 -0.1530 -0.0380
  375POPI   C2B 5924   6.686   2.623   9.301 -0.2125 -0.1845  0.0420
  375POPI   C3B 5925   6.585   2.616   8.793  0.1837  0.4560 -0.2084
  375POPI   C4B 5926   6.547   2.691   8.417  0.2639  0.4841 -0.3410
  376POPI    C1 5927   2.424  16.713  11.308 -0.2960  0.2028 -0.2416
  376POPI    C2 5928   2.248  17.068  11.361  0.0729  0.3191  0.2921
  376POPI    C3 5929   2.644  17.047  11.304  0.0018  0.0129 -0.1413
  376POPI   PO4 5930   2.348  16.546  11.025  0.1740 -0.0356  0.1340
  376POPI   GL1 5931   2.564  16.471  10.556  0.2402  0.1446 -0.0849
  376POPI   GL2 5932   2.215  16.311  10.510 -0.2245 -0.1111 -0.0592
  376POPI   C1A 5933   2.651  16.095  10.571 -0.2355 -0.0620 -0.0294
  376POPI   D2A 5934   2.885  15.769  10.331  0.1916  0.0468 -0.2966
  376POPI   C3A 5935   2.862  15.673   9.901  0.1654 -0.0705 -0.3657
  376POPI   C4A 5936   2.733  15.826   9.556  0.1671 -0.2211 -0.2031
  376POPI   C1B 5937   2.187  16.777  10.392  0.3941  0.1720  0.0876
  376POPI   C2B 5938   2.232  16.904  10.003 -0.0662 -0.0932  0.1655
  376POPI   C3B 5939   2.378  16.829   9.592  0.0068 -0.3812 -0.0394
  376POPI   C4B 5940   2.418  16.975   9.089  0.0056 -0.0998 -0.2114
  377POPI    C1 5941  17.526   7.405  10.216  0.1261 -0.1328  0.2533
  377POPI    C2 5942  17.721   7.454  10.562  0.1331  0.2248  0.2020
  377POPI    C3 5943  17.509   7.756  10.407  0.0111  0.0212 -0.0343
  377POPI   PO4 5944  17.456   7.187  10.211  0.1966 -0.0399 -0.1765
  377POPI   GL1 5945  17.371   6.890   9.905  0.0870 -0.2440 -0.0183
  377POPI   GL2 5946  17.500   6.724   9.773  0.0220  0.2691 -0.0006
  377POPI   C1A 5947  17.272   7.098   9.430  0.0110  0.1305  0.1902
  377POPI   D2A 5948  17.141   7.064   8.970 -0.0946  0.0873 -0.1303
  377POPI   C3A 5949  17.169   6.774   8.791 -0.2511  0.3154  0.2057
  377POPI   C4A 5950  17.168   6.403   8.486 -0.1079  0.1627 -0.0901
  377POPI   C1B 5951  17.428   6.619   9.324 -0.0629  0.0955 -0.3800
  377POPI   C2B 5952  17.541   6.461   8.914 -0.0189 -0.1629  0.2246
  377POPI   C3B 5953  17.597   6.661   8.472  0.0981 -0.0906 -0.1302
  377POPI   C4B 5954  17.584   6.937   8.137  0.2889  0.0312  0.1441
  378POPI    C1 5955   2.156   0.182  10.993  0.0738  0.0019 -0.1501
  378POPI    C2 5956   2.243   0.545  11.135 -0.0623 -0.0374  0.0382
  378POPI    C3 5957   1.964   0.322  11.315 -0.0843 -0.1763 -0.1649
  378POPI   PO4 5958   2.434   0.077  10.832 -0.3680  0.2112  0.2068
  378POPI   GL1 5959   2.541  -0.179  10.583 -0.0562  0.3063 -0.1441
  378POPI   GL2 5960   2.465  -0.511  10.517  0.2169 -0.3668 -0.2880
  378POPI   C1A 5961   2.636  -0.129  10.118 -0.1479  0.3667  0.3091
  378POPI   D2A 5962   2.629  -0.037   9.680  0.0875 -0.3159 -0.0362
  378POPI   C3A 5963   2.494  -0.157   9.273  0.0561  0.2339  0.0802
  378POPI   C4A 5964   2.270  -0.066   8.858  0.4742  0.0887  0.1415
  378POPI   C1B 5965   2.718  -0.629  10.097  0.4597  0.0569 -0.2956
  378POPI   C2B 5966   2.971  -0.452   9.787  0.2882 -0.0451 -0.1350
  378POPI   C3B 5967   3.064  -0.094   9.494 -0.3223 -0.3330  0.1736
  378POPI   C4B 5968   2.847   0.193   9.167  0.0420  0.0877  0.0987
  379POPI    C1 5969   9.518   1.873  11.191  0.1808  0.1821  0.0799
  379POPI    C2 5970   9.823   1.694  11.380  0.1156 -0.1576 -0.1274
  379POPI    C3 5971   9.482   1.768  11.575  0.2366 -0.0153  0.0328
  379POPI   PO4 5972   9.612   1.758  10.874 -0.0041 -0.1706 -0.0973
  379POPI   GL1 5973   9.507   1.664  10.537  0.1687 -0.0852 -0.1083
  379POPI   GL2 5974   9.148   1.672  10.593 -0.1565 -0.2179 -0.1906
  379POPI   C1A 5975   9.414   1.464  10.119 -0.2931 -0.2161  0.0441
  379POPI   D2A 5976   9.429   0.950  10.030 -0.0664  0.1737 -0.0300
  379POPI   C3A 5977   9.365   0.736   9.707 -0.1635 -0.2960  0.0543
  379POPI   C4A 5978   9.222   0.793   9.263  0.0186  0.1455 -0.4231
  379POPI   C1B 5979   8.894   1.301  10.390  0.2066 -0.1291  0.0439
  379POPI   C2B 5980   8.930   1.064  10.106 -0.2592 -0.1349  0.2028
  379POPI   C3B 5981   8.898   1.023   9.606 -0.2057  0.2995 -0.0946
  379POPI   C4B 5982   8.830   1.124   9.203 -0.0232 -0.4521 -0.0581
  380POPI    C1 5983   1.548  15.672  11.027  0.2389  0.0753  0.1189
  380POPI    C2 5984   1.442  15.748  11.406  0.2392  0.0245  0.1293
  380POPI    C3 5985   1.617  15.401  11.313 -0.2180 -0.1782 -0.0010
  380POPI   PO4 5986   1.740  15.834  10.926  0.1016  0.1005  0.0530
  380POPI   GL1 5987   1.845  16.004  10.525 -0.2654  0.0619 -0.2880
  380POPI   GL2 5988   1.583  16.021  10.451 -0.4691  0.0481  0.2052
  380POPI   C1A 5989   1.966  15.984  10.117  0.3702  0.2252 -0.2504
  380POPI   D2A 5990   1.969  16.010   9.725 -0.0188 -0.1443 -0.0451
  380POPI   C3A 5991   2.223  16.336   9.709 -0.1706 -0.3616 -0.1384
  380POPI   C4A 5992   2.371  16.437  10.078  0.0940  0.0103  0.2594
  380POPI   C1B 5993   1.485  16.118   9.988  0.2643 -0.1839  0.0072
  380POPI   C2B 5994   1.547  16.190   9.577  0.0990  0.0042  0.1901
  380POPI   C3B 5995   1.558  16.271   9.141  0.0464 -0.1937 -0.0195
  380POPI   C4B 5996   1.640  16.467   8.751 -0.0435 -0.0770 -0.2043
  381POPI    C1 5997  14.271   6.037  10.523 -0.0408  0.0229 -0.0580
  381POPI    C2 5998  14.313   6.189  10.891 -0.1475  0.4684 -0.2236
  381POPI    C3 5999  14.637   6.090  10.677 -0.0874  0.1220  0.0198
  381POPI   PO4 6000  14.068   5.752  10.500  0.0451  0.1259 -0.0944
  381POPI   GL1 6001  14.129   5.494  10.085  0.3299  0.0823 -0.2811
  381POPI   GL2 6002  14.363   5.618   9.938 -0.0081 -0.0859  0.1006
  381POPI   C1A 6003  13.955   5.361   9.727  0.1677  0.4051  0.3386
  381POPI   D2A 6004  13.885   5.392   9.281  0.2635 -0.1194  0.0863
  381POPI   C3A 6005  13.700   5.190   8.898  0.0982 -0.2042 -0.2257
  381POPI   C4A 6006  13.684   5.277   8.425 -0.0975 -0.0870 -0.1869
  381POPI   C1B 6007  14.365   5.530   9.482  0.0730  0.1575  0.0561
  381POPI   C2B 6008  14.311   5.546   9.013  0.2896  0.0140  0.0260
  381POPI   C3B 6009  14.035   5.563   8.717 -0.1902 -0.5614 -0.0912
  381POPI   C4B 6010  14.063   5.712   8.286 -0.1351 -0.1846 -0.2897
  382POPI    C1 6011  10.300   1.621  11.068 -0.1571  0.1680  0.0081
  382POPI    C2 6012  10.053   1.925  10.987 -0.3094  0.0712  0.1046
  382POPI    C3 6013  10.312   1.953  11.290  0.0452  0.3108 -0.2109
  382POPI   PO4 6014  10.387   1.515  10.861 -0.2445  0.3825 -0.0714
  382POPI   GL1 6015  10.122   1.370  10.492 -0.0638  0.0350  0.2025
  382POPI   GL2 6016  10.032   1.725  10.536 -0.0144  0.1757 -0.2300
  382POPI   C1A 6017   9.891   1.134  10.141  0.2099 -0.3032 -0.1888
  382POPI   D2A 6018   9.742   1.171   9.734 -0.1410  0.2798  0.0353
  382POPI   C3A 6019   9.352   1.364   9.555  0.0247  0.1912 -0.2077
  382POPI   C4A 6020   9.276   1.425   9.110  0.0038 -0.1084 -0.0565
  382POPI   C1B 6021   9.979   1.633  10.131 -0.1078 -0.1315 -0.2677
  382POPI   C2B 6022   9.819   1.708   9.730 -0.3358 -0.0933  0.0819
  382POPI   C3B 6023   9.814   1.678   9.169  0.1791 -0.0191 -0.0079
  382POPI   C4B 6024   9.806   1.620   8.673  0.1416  0.0850 -0.0477
  383POPI    C1 6025   4.548   6.475  10.557  0.1542  0.0357  0.0344
  383POPI    C2 6026   4.493   6.199  10.840 -0.4204 -0.0671 -0.1629
  383POPI    C3 6027   4.465   6.587  10.932 -0.1026 -0.0824  0.0150
  383POPI   PO4 6028   4.387   6.315  10.362 -0.0052 -0.3378 -0.0658
  383POPI   GL1 6029   4.306   6.208   9.995 -0.1092  0.1216  0.1239
  383POPI   GL2 6030   4.243   6.531   9.881 -0.2051 -0.0022 -0.3363
  383POPI   C1A 6031   4.349   6.071   9.539  0.0159 -0.0676  0.2005
  383POPI   D2A 6032   4.327   6.395   9.276  0.0882 -0.0912 -0.1805
  383POPI   C3A 6033   4.120   6.421   8.905 -0.0579 -0.1293  0.3181
  383POPI   C4A 6034   4.025   6.401   8.470  0.0274 -0.0806 -0.0114
  383POPI   C1B 6035   4.083   6.770   9.554  0.1767 -0.1178  0.0727
  383POPI   C2B 6036   4.275   6.917   9.074  0.0064 -0.0952 -0.5111
  383POPI   C3B 6037   4.377   6.829   8.676 -0.0244 -0.1403 -0.0435
  383POPI   C4B 6038   4.497   6.816   8.165 -0.3265  0.0192 -0.2651
  384POPI    C1 6039   2.852   6.760  10.728 -0.0492 -0.0091  0.0163
  384POPI    C2 6040   2.601   6.730  11.038  0.1057 -0.0429  0.1399
  384POPI    C3 6041   2.798   6.407  10.908  0.0165 -0.0357 -0.0158
  384POPI   PO4 6042   2.785   6.897  10.558 -0.0954  0.3368  0.2563
  384POPI   GL1 6043   2.821   6.892  10.225 -0.0163  0.2957 -0.1872
  384POPI   GL2 6044   2.991   7.161  10.131  0.1107 -0.0516  0.2306
  384POPI   C1A 6045   2.578   7.118   9.880  0.2362  0.0955  0.0218
  384POPI   D2A 6046   2.294   7.146   9.499  0.1913  0.1845 -0.0110
  384POPI   C3A 6047   2.279   7.230   9.083  0.1750  0.0376 -0.2854
  384POPI   C4A 6048   2.363   7.323   8.617 -0.0573  0.1047  0.2940
  384POPI   C1B 6049   3.036   6.980   9.656  0.0528  0.1026  0.1053
  384POPI   C2B 6050   2.769   6.924   9.374  0.0364 -0.2266 -0.2775
  384POPI   C3B 6051   2.546   6.874   8.887  0.0879 -0.0275  0.2771
  384POPI   C4B 6052   2.645   6.604   8.674  0.0572 -0.3122  0.0712
  385POPI    C1 6053   2.755  10.807  10.972 -0.0271  0.0179  0.0145
  385POPI    C2 6054   2.355  10.806  10.984 -0.0273  0.0336  0.0105
  385POPI    C3 6055   2.555  10.460  10.993 -0.0365  0.0313  0.1593
  385POPI   PO4 6056   2.885  10.880  10.795 -0.1031  0.0688 -0.0694
  385POPI   GL1 6057   2.897  10.954  10.420 -0.0069  0.0481 -0.0504
  385POPI   GL2 6058   3.111  11.099  10.236  0.0288  0.3324  0.1249
  385POPI   C1A 6059   2.733  10.838  10.110 -0.1815  0.1061 -0.0290
  385POPI   D2A 6060   2.507  10.794   9.705 -0.1820  0.0120  0.1744
  385POPI   C3A 6061   2.137  10.993   9.628  0.0425 -0.0274  0.1069
  385POPI   C4A 6062   1.771  11.204   9.788  0.1089  0.1974  0.1147
  385POPI   C1B 6063   3.012  11.020   9.678 -0.1454 -0.0967 -0.2772
  385POPI   C2B 6064   3.028  10.928   9.202 -0.3663 -0.0068 -0.1102
  385POPI   C3B 6065   3.082  10.988   8.672 -0.0398  0.1579  0.1686
  385POPI   C4B 6066   3.038  10.693   8.398  0.0228 -0.1987 -0.0258
  386POPI    C1 6067  10.795  13.020  10.748  0.1823  0.1351  0.1964
  386POPI    C2 6068  10.431  12.916  10.620  0.2636  0.0464  0.0347
  386POPI    C3 6069  10.474  13.096  10.974  0.0727 -0.0331  0.0998
  386POPI   PO4 6070  10.929  12.817  10.747  0.3912  0.0890  0.1255
  386POPI   GL1 6071  11.166  12.604  10.461 -0.1847  0.0272  0.1321
  386POPI   GL2 6072  11.296  12.327  10.348  0.2066 -0.0102 -0.0422
  386POPI   C1A 6073  11.453  12.819  10.230  0.0732 -0.0228 -0.2927
  386POPI   D2A 6074  11.526  12.979   9.828  0.1854 -0.0014  0.1292
  386POPI   C3A 6075  11.513  12.884   9.461  0.2108  0.2840 -0.0396
  386POPI   C4A 6076  11.319  12.683   9.179 -0.2043  0.3237  0.0847
  386POPI   C1B 6077  11.392  12.378   9.944  0.2987  0.0177 -0.0393
  386POPI   C2B 6078  11.400  12.372   9.545  0.0761 -0.0262  0.1200
  386POPI   C3B 6079  11.631  12.273   9.160  0.0876  0.1488  0.0561
  386POPI   C4B 6080  11.843  12.395   8.767 -0.0991 -0.0455 -0.0238
  387POPI    C1 6081   9.440   9.079  11.090 -0.0324  0.0980 -0.0352
  387POPI    C2 6082   9.283   8.761  11.275  0.0655  0.0191 -0.0866
  387POPI    C3 6083   9.278   9.119  11.453  0.1770 -0.0598  0.0777
  387POPI   PO4 6084   9.458   8.963  10.852 -0.0141 -0.0509  0.1602
  387POPI   GL1 6085   9.564   8.824  10.461  0.0072 -0.0583 -0.0014
  387POPI   GL2 6086   9.838   8.550  10.422  0.0291 -0.2768  0.0889
  387POPI   C1A 6087   9.379   9.003  10.046  0.2503  0.3808  0.2620
  387POPI   D2A 6088   9.441   9.119   9.702  0.1933  0.1023  0.1613
  387POPI   C3A 6089   9.343   9.323   9.414  0.1760  0.2156 -0.0044
  387POPI   C4A 6090   9.320   9.450   8.986 -0.1511 -0.2655 -0.0329
  387POPI   C1B 6091   9.843   8.407  10.059  0.0059  0.2935  0.3877
  387POPI   C2B 6092   9.972   8.096   9.747  0.0430 -0.3288  0.0009
  387POPI   C3B 6093   9.793   7.854   9.522  0.2571  0.1447 -0.0617
  387POPI   C4B 6094   9.874   7.784   9.116 -0.3314  0.0075 -0.0877
  388POPI    C1 6095   8.743  14.244  10.906  0.0580  0.4393 -0.1503
  388POPI    C2 6096   8.955  14.521  11.102  0.0525  0.1318  0.3043
  388POPI    C3 6097   8.713  14.274  11.304  0.0417 -0.1932 -0.0931
  388POPI   PO4 6098   8.860  14.216  10.708 -0.3499 -0.0447 -0.0484
  388POPI   GL1 6099   8.991  13.900  10.402  0.2035 -0.0081 -0.0103
  388POPI   GL2 6100   8.643  13.929  10.292 -0.4125 -0.1927 -0.2256
  388POPI   C1A 6101   9.036  13.962  10.003  0.0654 -0.1734  0.1092
  388POPI   D2A 6102   9.182  13.835   9.660  0.2815 -0.0640 -0.0094
  388POPI   C3A 6103   9.044  13.814   9.267 -0.4114  0.1356  0.3278
  388POPI   C4A 6104   9.168  13.571   8.929 -0.0829  0.1078 -0.0487
  388POPI   C1B 6105   8.605  13.768   9.888  0.0465 -0.1288 -0.0334
  388POPI   C2B 6106   8.347  13.515   9.712 -0.2131  0.1028  0.1367
  388POPI   C3B 6107   7.963  13.590   9.456  0.0166  0.1129  0.1531
  388POPI   C4B 6108   7.903  13.325   9.146 -0.1985  0.1348  0.0687
  389POPI    C1 6109   3.474  15.747  10.946 -0.1041 -0.1633 -0.1701
  389POPI    C2 6110   3.606  15.469  11.203 -0.0391 -0.0873 -0.1207
  389POPI    C3 6111   3.481  15.825  11.338 -0.0794 -0.0756 -0.1878
  389POPI   PO4 6112   3.625  15.756  10.744 -0.1560 -0.1854 -0.2377
  389POPI   GL1 6113   3.737  15.627  10.385  0.2227 -0.2493  0.0007
  389POPI   GL2 6114   3.362  15.436  10.437 -0.0138  0.1876 -0.2148
  389POPI   C1A 6115   3.803  15.390  10.045 -0.0548  0.4070  0.1715
  389POPI   D2A 6116   3.923  15.392   9.601 -0.0028  0.0722  0.0918
  389POPI   C3A 6117   4.252  15.397   9.266  0.2416  0.3978  0.3221
  389POPI   C4A 6118   4.651  15.326   9.030 -0.3713  0.0922 -0.0527
  389POPI   C1B 6119   3.295  15.465  10.081 -0.2004  0.0793  0.2064
  389POPI   C2B 6120   3.263  15.413   9.661 -0.0868 -0.0449  0.3390
  389POPI   C3B 6121   2.976  15.510   9.217  0.1162  0.0856  0.1186
  389POPI   C4B 6122   2.684  15.593   8.924 -0.3350 -0.0594  0.2456
  390POPI    C1 6123  10.490   9.061  10.910  0.0428 -0.0364  0.1339
  390POPI    C2 6124  10.467   9.010  11.306 -0.1877  0.0400  0.1317
  390POPI    C3 6125  10.323   9.344  11.138 -0.0669  0.0199 -0.0139
  390POPI   PO4 6126  10.414   8.876  10.755 -0.1186  0.1040  0.0056
  390POPI   GL1 6127  10.339   8.829  10.351 -0.3248  0.2049 -0.3199
  390POPI   GL2 6128  10.164   9.019  10.272  0.0103  0.1877 -0.0772
  390POPI   C1A 6129  10.277   8.632   9.908 -0.0803  0.0266 -0.2078
  390POPI   D2A 6130  10.448   8.457   9.555  0.0402  0.2118  0.4364
  390POPI   C3A 6131  10.318   8.465   9.133 -0.3264 -0.0014 -0.1338
  390POPI   C4A 6132   9.996   8.249   8.970  0.0204  0.0473  0.0963
  390POPI   C1B 6133   9.865   9.016  10.038 -0.1584  0.1739 -0.0793
  390POPI   C2B 6134   9.768   8.762   9.710 -0.2485  0.3515  0.1025
  390POPI   C3B 6135   9.917   8.659   9.283 -0.2395  0.0064  0.0656
  390POPI   C4B 6136   9.787   8.605   8.734 -0.1617  0.0486 -0.2189
  391POPI    C1 6137  12.754   3.478  10.927 -0.1505 -0.3537 -0.0688
  391POPI    C2 6138  13.140   3.543  11.010 -0.1905  0.0304 -0.1677
  391POPI    C3 6139  13.035   3.232  10.782  0.0770  0.0252 -0.2881
  391POPI   PO4 6140  12.626   3.726  10.825  0.0589  0.0282  0.0656
  391POPI   GL1 6141  12.705   3.696  10.420  0.2318 -0.1347  0.0887
  391POPI   GL2 6142  12.787   3.681  10.180  0.2777 -0.1801 -0.1218
  391POPI   C1A 6143  13.137   3.395  10.262  0.2805  0.1346  0.1274
  391POPI   D2A 6144  13.192   3.386   9.904  0.5790  0.0934 -0.1986
  391POPI   C3A 6145  13.293   3.410   9.523 -0.2600 -0.4725 -0.1684
  391POPI   C4A 6146  13.154   3.247   9.064 -0.2640 -0.0814  0.0442
  391POPI   C1B 6147  12.765   3.569   9.813 -0.1827  0.0910  0.0227
  391POPI   C2B 6148  12.827   3.527   9.382 -0.4428 -0.3387 -0.1236
  391POPI   C3B 6149  12.803   3.538   8.947 -0.1049  0.3844  0.1364
  391POPI   C4B 6150  12.692   3.326   8.612  0.0089 -0.2961 -0.0361
  392POPI    C1 6151  13.241  10.247  10.979 -0.3455 -0.1736  0.0756
  392POPI    C2 6152  13.006  10.375  11.276 -0.1674  0.2374  0.0460
  392POPI    C3 6153  13.366  10.220  11.358 -0.2700  0.0058  0.0648
  392POPI   PO4 6154  13.051  10.095  10.806  0.2229  0.2485 -0.0003
  392POPI   GL1 6155  12.877  10.212  10.406 -0.1381  0.0478  0.0087
  392POPI   GL2 6156  12.822  10.346  10.128 -0.2657  0.2672 -0.2595
  392POPI   C1A 6157  13.170   9.978  10.101 -0.2101  0.1204 -0.1511
  392POPI   D2A 6158  13.483   9.972   9.854 -0.0379 -0.0035 -0.2784
  392POPI   C3A 6159  13.355  10.032   9.454 -0.1055  0.3039 -0.0024
  392POPI   C4A 6160  13.032  10.058   9.024 -0.0333 -0.0682 -0.0304
  392POPI   C1B 6161  12.852  10.746   9.919 -0.2494 -0.1007  0.2615
  392POPI   C2B 6162  12.915  11.036   9.661  0.1131  0.0693 -0.0718
  392POPI   C3B 6163  13.084  11.253   9.302  0.0790  0.0126 -0.0024
  392POPI   C4B 6164  12.997  11.385   8.798  0.1477  0.1802 -0.0951
  393POPI    C1 6165  11.089   4.355  10.501  0.0158 -0.1068 -0.0541
  393POPI    C2 6166  11.448   4.204  10.592  0.0771  0.0482 -0.0360
  393POPI    C3 6167  11.377   4.594  10.642 -0.1186  0.0043  0.0339
  393POPI   PO4 6168  11.008   4.334  10.286 -0.4184 -0.0217  0.0037
  393POPI   GL1 6169  11.055   4.330   9.874 -0.1642 -0.3818 -0.0256
  393POPI   GL2 6170  11.207   4.021   9.951  0.1322  0.1359 -0.1924
  393POPI   C1A 6171  11.017   4.199   9.422 -0.1128 -0.0736 -0.1626
  393POPI   D2A 6172  11.039   4.207   9.125  0.1474  0.1555 -0.2770
  393POPI   C3A 6173  10.705   4.265   8.785  0.2915  0.0445 -0.0077
  393POPI   C4A 6174  10.503   4.374   8.374 -0.1150 -0.2383 -0.1155
  393POPI   C1B 6175  11.509   3.981   9.648 -0.0279  0.1916 -0.1027
  393POPI   C2B 6176  11.509   3.984   9.246 -0.3320  0.0396 -0.1339
  393POPI   C3B 6177  11.392   3.941   8.873 -0.0766  0.2845  0.0681
  393POPI   C4B 6178  11.304   3.867   8.383 -0.1022  0.1678 -0.4632
  394POPI    C1 6179  14.265   9.611  10.819 -0.1003  0.0962 -0.0582
  394POPI    C2 6180  14.188   9.892  11.094 -0.3703 -0.0327  0.0013
  394POPI    C3 6181  13.986   9.547  11.098 -0.2837 -0.0897 -0.2804
  394POPI   PO4 6182  14.226   9.746  10.580  0.2409  0.2559 -0.0248
  394POPI   GL1 6183  14.585   9.575  10.427 -0.1804  0.0670 -0.2383
  394POPI   GL2 6184  14.624   9.230  10.255 -0.3055  0.1223  0.0326
  394POPI   C1A 6185  14.576   9.620   9.976 -0.1000 -0.2747  0.1698
  394POPI   D2A 6186  14.483   9.647   9.577 -0.2013 -0.0386  0.1765
  394POPI   C3A 6187  14.539   9.656   9.128  0.0561  0.2193 -0.4217
  394POPI   C4A 6188  14.993   9.641   8.900 -0.0014 -0.3932  0.1906
  394POPI   C1B 6189  14.725   9.156   9.782  0.2544  0.0575  0.2137
  394POPI   C2B 6190  14.798   9.153   9.447  0.1217  0.0100 -0.0331
  394POPI   C3B 6191  14.780   9.203   9.010 -0.0919 -0.3195  0.4026
  394POPI   C4B 6192  14.712   9.310   8.630  0.0743 -0.2138  0.2421
  395POPI    C1 6193   8.198  15.042  10.950 -0.1847  0.3663  0.0144
  395POPI    C2 6194   8.407  15.343  11.112 -0.2501  0.3081  0.2100
  395POPI    C3 6195   8.160  15.126  11.340 -0.1752  0.0821  0.0784
  395POPI   PO4 6196   8.237  15.125  10.701  0.1942  0.2332  0.0682
  395POPI   GL1 6197   8.352  15.180  10.301 -0.2171  0.1328  0.0321
  395POPI   GL2 6198   8.676  15.094  10.361 -0.3596 -0.3932  0.3930
  395POPI   C1A 6199   8.509  15.396   9.941  0.0677 -0.2212 -0.1985
  395POPI   D2A 6200   8.681  15.267   9.565  0.1133  0.0528 -0.0879
  395POPI   C3A 6201   8.521  15.157   9.286  0.2108 -0.0512 -0.1408
  395POPI   C4A 6202   8.457  15.012   8.856  0.1815  0.2064  0.1743
  395POPI   C1B 6203   8.635  14.876   9.954  0.1182 -0.1006 -0.1066
  395POPI   C2B 6204   8.620  14.722   9.575  0.2409  0.1286 -0.4224
  395POPI   C3B 6205   8.359  14.668   9.276 -0.0024  0.0335 -0.2479
  395POPI   C4B 6206   8.275  14.488   8.844  0.0443  0.0417  0.6003
  396POPI    C1 6207  15.020   9.686  10.710 -0.2628 -0.0700 -0.0787
  396POPI    C2 6208  14.960   9.657  11.104 -0.1328  0.3422 -0.0237
  396POPI    C3 6209  14.872   9.348  10.865 -0.1109  0.0487  0.3379
  396POPI   PO4 6210  15.292   9.806  10.651 -0.2367 -0.1354  0.0642
  396POPI   GL1 6211  15.281  10.255  10.386  0.1618 -0.2321  0.0947
  396POPI   GL2 6212  15.000  10.528  10.311 -0.0691 -0.0138  0.0274
  396POPI   C1A 6213  15.427   9.974  10.056  0.0134 -0.0056  0.2284
  396POPI   D2A 6214  15.335   9.921   9.611  0.0862  0.1607  0.2565
  396POPI   C3A 6215  15.384   9.873   9.159 -0.0663  0.0946 -0.4936
  396POPI   C4A 6216  15.602   9.574   8.773 -0.2471 -0.1517  0.1470
  396POPI   C1B 6217  15.001  10.798  10.006 -0.3244  0.0721  0.0669
  396POPI   C2B 6218  15.085  10.866   9.585 -0.1482 -0.3795  0.0287
  396POPI   C3B 6219  15.100  10.859   9.135 -0.3749 -0.2825 -0.3612
  396POPI   C4B 6220  15.161  11.044   8.609  0.0810  0.0363 -0.0460
  397POPI    C1 6221  16.412  12.257  11.266  0.3416  0.0478  0.0707
  397POPI    C2 6222  16.703  11.998  11.358  0.1149 -0.2014  0.1021
  397POPI    C3 6223  16.320  11.888  11.392  0.0145  0.1329  0.0904
  397POPI   PO4 6224  16.543  12.351  10.917  0.0354 -0.1802 -0.0552
  397POPI   GL1 6225  16.313  12.359  10.529  0.2944  0.1180 -0.0733
  397POPI   GL2 6226  16.426  12.145  10.428  0.1229  0.2404  0.0936
  397POPI   C1A 6227  16.173  12.608  10.067 -0.0809 -0.1135  0.2221
  397POPI   D2A 6228  16.286  12.516   9.715  0.0362  0.1289 -0.2188
  397POPI   C3A 6229  16.344  12.405   9.404  0.0469 -0.2387  0.2017
  397POPI   C4A 6230  16.432  12.341   8.902 -0.1496  0.0276 -0.1880
  397POPI   C1B 6231  16.212  12.092  10.061 -0.0712 -0.2801 -0.3330
  397POPI   C2B 6232  15.963  12.162   9.772  0.0841 -0.1842 -0.0401
  397POPI   C3B 6233  15.944  11.992   9.372 -0.1881  0.3095 -0.0812
  397POPI   C4B 6234  15.989  12.112   8.965  0.0724  0.2696  0.0411
  398POPI    C1 6235   7.526  10.795  11.018  0.0218  0.2373 -0.1583
  398POPI    C2 6236   7.912  10.843  11.114 -0.0160  0.0825  0.0780
  398POPI    C3 6237   7.627  10.904  11.389 -0.1734  0.3676 -0.1416
  398POPI   PO4 6238   7.534  10.949  10.769  0.2090  0.1782 -0.2909
  398POPI   GL1 6239   7.444  11.164  10.361  0.3595 -0.1048 -0.0325
  398POPI   GL2 6240   7.766  11.025  10.287  0.0998  0.1394  0.2126
  398POPI   C1A 6241   7.410  11.278   9.942 -0.0341 -0.1072 -0.1688
  398POPI   D2A 6242   7.315  11.585   9.596 -0.0647 -0.1656  0.0431
  398POPI   C3A 6243   7.227  11.389   9.213 -0.1328 -0.1022 -0.0517
  398POPI   C4A 6244   7.220  11.235   8.698  0.1983  0.1554 -0.1646
  398POPI   C1B 6245   7.880  10.992   9.989 -0.2087  0.1828 -0.0584
  398POPI   C2B 6246   8.002  10.987   9.563  0.1922 -0.1376  0.2262
  398POPI   C3B 6247   7.826  10.714   9.098 -0.0905  0.1218  0.2455
  398POPI   C4B 6248   7.931  10.441   8.668 -0.3570 -0.1155 -0.1530
  399POPI    C1 6249  15.436  17.216  11.001  0.2279  0.1722  0.0073
  399POPI    C2 6250  15.703  17.352  11.267  0.3338  0.0517 -0.0363
  399POPI    C3 6251  15.378  17.154  11.392  0.3511  0.0511  0.0071
  399POPI   PO4 6252  15.505  17.427  10.759 -0.1868 -0.1822 -0.0544
  399POPI   GL1 6253  15.541  17.373  10.381 -0.0198  0.2002  0.0226
  399POPI   GL2 6254  15.760  17.243  10.289  0.0470 -0.1733 -0.2381
  399POPI   C1A 6255  15.291  17.343   9.966 -0.1407 -0.0742 -0.1959
  399POPI   D2A 6256  14.912  17.489   9.760 -0.3841  0.0742 -0.0397
  399POPI   C3A 6257  14.879  17.476   9.372 -0.1199  0.1012 -0.0602
  399POPI   C4A 6258  14.769  17.513   9.037 -0.1218 -0.0851  0.2097
  399POPI   C1B 6259  15.681  17.123   9.831 -0.0962 -0.0958  0.2262
  399POPI   C2B 6260  15.688  17.198   9.378 -0.0546 -0.0009  0.0339
  399POPI   C3B 6261  15.791  17.420   8.975 -0.2178  0.2540  0.0041
  399POPI   C4B 6262  15.852  17.664   8.674 -0.1244  0.1706 -0.0011
  400POPI    C1 6263  15.909   9.876  10.785 -0.1172 -0.0829  0.3175
  400POPI    C2 6264  16.053   9.516  10.885  0.1539  0.0010  0.2385
  400POPI    C3 6265  16.209   9.846  11.047  0.0996  0.0984  0.0954
  400POPI   PO4 6266  15.909   9.953  10.524 -0.1885 -0.1186  0.0111
  400POPI   GL1 6267  15.927  10.226  10.170  0.1235  0.1796  0.3269
  400POPI   GL2 6268  16.211  10.333  10.094 -0.1366 -0.0726 -0.0330
  400POPI   C1A 6269  15.790  10.101   9.751  0.1355 -0.0152 -0.3125
  400POPI   D2A 6270  15.712  10.236   9.385 -0.1700 -0.0078  0.0889
  400POPI   C3A 6271  16.025  10.418   9.179 -0.2923 -0.1209 -0.0532
  400POPI   C4A 6272  16.416  10.332   9.087  0.0832 -0.0617  0.0699
  400POPI   C1B 6273  16.108  10.424   9.677  0.3597  0.2514 -0.0794
  400POPI   C2B 6274  16.161  10.802   9.446 -0.1147  0.3173  0.0949
  400POPI   C3B 6275  15.987  11.091   9.087  0.1701  0.2437 -0.0321
  400POPI   C4B 6276  16.202  11.295   8.771 -0.0983 -0.2480 -0.5273
  401POPI    C1 6277   5.266  16.034  10.932 -0.3632 -0.1613  0.0778
  401POPI    C2 6278   5.205  16.352  11.167 -0.1437 -0.0791  0.0265
  401POPI    C3 6279   4.926  16.066  11.140 -0.3383  0.1027  0.0815
  401POPI   PO4 6280   5.414  16.124  10.693  0.1840 -0.1763 -0.2884
  401POPI   GL1 6281   5.232  16.015  10.345  0.3275 -0.1609  0.0770
  401POPI   GL2 6282   5.082  15.747  10.582 -0.1604  0.1345 -0.1634
  401POPI   C1A 6283   5.131  16.157   9.907 -0.0828  0.1612 -0.0651
  401POPI   D2A 6284   5.230  15.990   9.496  0.0995  0.0073  0.1255
  401POPI   C3A 6285   4.975  16.049   9.152  0.2239  0.0750  0.3823
  401POPI   C4A 6286   4.960  15.990   8.722 -0.1595 -0.1811  0.1582
  401POPI   C1B 6287   4.872  15.754  10.157 -0.1587  0.0015 -0.0631
  401POPI   C2B 6288   5.077  15.631   9.806  0.2422 -0.1265  0.0731
  401POPI   C3B 6289   5.035  15.476   9.364 -0.2928  0.0219 -0.2282
  401POPI   C4B 6290   5.217  15.567   8.978 -0.1174 -0.2438  0.2244
  402POPI    C1 6291  16.339  17.300  10.725  0.0760  0.0677 -0.0363
  402POPI    C2 6292  15.982  17.190  10.868 -0.0235 -0.1071 -0.4071
  402POPI    C3 6293  16.234  17.399  11.099 -0.3371 -0.0362 -0.1202
  402POPI   PO4 6294  16.256  17.366  10.465 -0.2931  0.0456  0.1605
  402POPI   GL1 6295  16.260  17.283  10.029  0.2497  0.1948  0.0784
  402POPI   GL2 6296  16.180  16.986  10.005  0.0022  0.0411  0.2263
  402POPI   C1A 6297  16.038  17.463   9.664  0.0576  0.1327  0.0288
  402POPI   D2A 6298  16.257  17.308   9.228 -0.1487  0.0640 -0.0630
  402POPI   C3A 6299  16.620  17.381   8.999 -0.0511  0.1704 -0.1005
  402POPI   C4A 6300  16.930  17.628   9.031 -0.1661 -0.2235  0.1050
  402POPI   C1B 6301  16.051  16.874   9.585 -0.3725  0.0623  0.1271
  402POPI   C2B 6302  16.067  16.835   9.112  0.1377  0.1533 -0.1674
  402POPI   C3B 6303  16.220  17.157   8.719 -0.0434  0.1702 -0.1883
  402POPI   C4B 6304  16.339  17.516   8.581 -0.1201 -0.5571  0.0728
  403POPI    C1 6305   2.532   5.199  10.457 -0.0040  0.1554  0.0159
  403POPI    C2 6306   2.140   5.122  10.431  0.0540 -0.1470  0.0063
  403POPI    C3 6307   2.292   5.278  10.767 -0.0805  0.0151 -0.0070
  403POPI   PO4 6308   2.600   5.369  10.296 -0.0426  0.2129 -0.1558
  403POPI   GL1 6309   2.412   5.640   9.979 -0.2005 -0.0962 -0.1300
  403POPI   GL2 6310   2.079   5.465  10.022  0.0095  0.0532 -0.0077
  403POPI   C1A 6311   2.565   5.567   9.578  0.1270 -0.2447 -0.0374
  403POPI   D2A 6312   2.564   5.335   9.215  0.1739  0.4168  0.1331
  403POPI   C3A 6313   2.540   4.862   9.273  0.1657  0.3156 -0.0972
  403POPI   C4A 6314   2.139   4.646   9.276  0.1006 -0.0059  0.1671
  403POPI   C1B 6315   2.069   5.573   9.578  0.0253 -0.1022  0.4403
  403POPI   C2B 6316   1.947   5.754   9.154 -0.0827 -0.0940 -0.0760
  403POPI   C3B 6317   1.996   5.861   8.737 -0.3126  0.1671 -0.0440
  403POPI   C4B 6318   1.808   5.757   8.344 -0.1092  0.4373 -0.3582
  404POPI    C1 6319   4.447  15.676  11.115  0.0445 -0.0234  0.1435
  404POPI    C2 6320   4.666  15.778  11.434 -0.1107  0.0050  0.2420
  404POPI    C3 6321   4.572  15.395  11.370  0.0136 -0.0137  0.1692
  404POPI   PO4 6322   4.574  15.821  10.834 -0.1693 -0.2292  0.3122
  404POPI   GL1 6323   4.529  15.877  10.475  0.0170 -0.0034 -0.0094
  404POPI   GL2 6324   4.445  16.097  10.378 -0.0921  0.0982  0.3408
  404POPI   C1A 6325   4.366  15.660  10.090 -0.4423 -0.0136  0.1360
  404POPI   D2A 6326   4.353  15.383   9.862 -0.3247 -0.0512 -0.1357
  404POPI   C3A 6327   4.652  15.239   9.586  0.0297  0.0116  0.1069
  404POPI   C4A 6328   4.632  14.790   9.337 -0.0693  0.1609  0.0052
  404POPI   C1B 6329   4.640  16.064   9.968 -0.0762 -0.2428  0.3793
  404POPI   C2B 6330   4.550  15.792   9.600 -0.0976  0.0046 -0.1558
  404POPI   C3B 6331   4.520  15.822   9.159 -0.2136  0.0837  0.0882
  404POPI   C4B 6332   4.402  15.747   8.729 -0.0069 -0.0356  0.0972
  405POPI    C1 6333  15.690  11.430  11.186  0.0270 -0.0383  0.0158
  405POPI    C2 6334  15.990  11.471  11.448 -0.0114  0.0194  0.0510
  405POPI    C3 6335  15.616  11.562  11.557 -0.0239  0.0677 -0.0317
  405POPI   PO4 6336  15.820  11.413  10.896 -0.2454 -0.0251 -0.1232
  405POPI   GL1 6337  15.644  11.304  10.449 -0.1793  0.0668  0.0187
  405POPI   GL2 6338  15.349  11.044  10.403  0.0377 -0.4387 -0.0094
  405POPI   C1A 6339  15.843  11.299  10.065  0.0343  0.1760  0.0035
  405POPI   D2A 6340  16.209  11.306  10.010 -0.1398 -0.0871  0.0994
  405POPI   C3A 6341  16.282  11.224   9.662  0.0872  0.2119  0.1322
  405POPI   C4A 6342  16.432  11.181   9.248 -0.0787  0.1390 -0.2048
  405POPI   C1B 6343  15.449  11.072   9.995 -0.2079  0.0400 -0.2515
  405POPI   C2B 6344  15.508  11.186   9.542  0.2641  0.0742 -0.1730
  405POPI   C3B 6345  15.479  11.253   9.109 -0.0237  0.1421  0.1152
  405POPI   C4B 6346  15.667  11.258   8.661 -0.1269  0.0305 -0.0635
  406POPI    C1 6347   7.323   5.908  10.321 -0.0066  0.2360  0.0264
  406POPI    C2 6348   7.212   5.876  10.703 -0.1925  0.0273 -0.0433
  406POPI    C3 6349   7.344   6.226  10.563  0.2442  0.0126  0.3066
  406POPI   PO4 6350   7.495   5.647  10.319 -0.1820  0.3295  0.0450
  406POPI   GL1 6351   7.457   5.442   9.846  0.1226 -0.3335 -0.0484
  406POPI   GL2 6352   7.548   5.184   9.666  0.0042 -0.0760  0.0017
  406POPI   C1A 6353   7.250   5.639   9.420 -0.1311 -0.1164  0.0973
  406POPI   D2A 6354   7.226   6.020   9.204 -0.0125 -0.0920  0.2835
  406POPI   C3A 6355   6.867   6.349   9.184 -0.1117 -0.1646 -0.0098
  406POPI   C4A 6356   6.599   6.627   9.127 -0.4627  0.2311  0.1225
  406POPI   C1B 6357   7.416   5.124   9.230 -0.0367  0.0478 -0.4439
  406POPI   C2B 6358   7.443   5.265   8.890  0.2364  0.4041  0.2057
  406POPI   C3B 6359   7.164   5.666   8.760 -0.0076  0.1108  0.3759
  406POPI   C4B 6360   7.280   6.106   8.673 -0.2626 -0.1242  0.0261
  407POPI    C1 6361  14.237   2.317  11.545 -0.3132 -0.4364 -0.1197
  407POPI    C2 6362  14.049   2.265  11.895  0.1181 -0.0015  0.1913
  407POPI    C3 6363  14.440   2.183  11.863  0.1213  0.1258 -0.1422
  407POPI   PO4 6364  14.035   2.336  11.351 -0.0530 -0.1289 -0.1185
  407POPI   GL1 6365  14.033   2.581  10.929  0.1136  0.0343 -0.0630
  407POPI   GL2 6366  13.841   2.803  10.859 -0.0081 -0.0687  0.1756
  407POPI   C1A 6367  13.701   2.278  10.722  0.1428  0.0325 -0.0641
  407POPI   D2A 6368  13.300   2.206  10.460 -0.2500  0.2164  0.0437
  407POPI   C3A 6369  13.346   2.128  10.019 -0.1227 -0.0483  0.2732
  407POPI   C4A 6370  13.471   2.567   9.832 -0.0528 -0.2359 -0.1073
  407POPI   C1B 6371  13.868   2.721  10.408 -0.0319 -0.1318  0.1398
  407POPI   C2B 6372  13.889   2.759   9.901 -0.0049  0.4373  0.0093
  407POPI   C3B 6373  14.024   2.527   9.486  0.0807 -0.0794 -0.0671
  407POPI   C4B 6374  13.884   2.524   9.074 -0.0167  0.1012  0.2579
  408POPI    C1 6375  15.771  10.942  11.006 -0.2462 -0.0245 -0.0657
  408POPI    C2 6376  15.956  10.657  11.217 -0.3654  0.0083  0.0846
  408POPI    C3 6377  16.140  11.006  11.147 -0.2495 -0.0758 -0.0341
  408POPI   PO4 6378  15.705  10.794  10.735 -0.0062  0.0769 -0.4158
  408POPI   GL1 6379  15.825  10.812  10.339  0.0341  0.0713  0.0454
  408POPI   GL2 6380  16.207  10.813  10.246 -0.0155 -0.2589  0.0965
  408POPI   C1A 6381  15.465  10.589  10.097 -0.0481 -0.1096 -0.0981
  408POPI   D2A 6382  15.261  10.382   9.807  0.0450 -0.0264 -0.0885
  408POPI   C3A 6383  15.243  10.368   9.385  0.0156  0.0525  0.0586
  408POPI   C4A 6384  15.218  10.321   8.997  0.1860 -0.2307 -0.1530
  408POPI   C1B 6385  16.000  10.866   9.905  0.1773  0.1654  0.0749
  408POPI   C2B 6386  15.677  10.652   9.637 -0.0636  0.1759 -0.1886
  408POPI   C3B 6387  15.596  10.716   9.245  0.0191  0.0814  0.1260
  408POPI   C4B 6388  15.701  10.753   8.775 -0.1645 -0.1260  0.1751
  409POPI    C1 6389   0.801  12.283  10.659  0.0233 -0.0511 -0.1333
  409POPI    C2 6390   0.580  12.049  10.897 -0.1218  0.1504 -0.0675
  409POPI    C3 6391   0.970  12.098  10.971 -0.0374 -0.2549 -0.2198
  409POPI   PO4 6392   0.789  12.197  10.459 -0.1209  0.0122  0.1520
  409POPI   GL1 6393   0.762  12.378  10.126 -0.0799  0.0488 -0.1584
  409POPI   GL2 6394   0.509  12.275   9.947  0.2181 -0.1529  0.1403
  409POPI   C1A 6395   0.847  12.339   9.620 -0.0826 -0.0327 -0.0057
  409POPI   D2A 6396   0.818  12.362   9.177 -0.0295 -0.1848 -0.0652
  409POPI   C3A 6397   1.038  12.246   8.786 -0.1236 -0.1355  0.3928
  409POPI   C4A 6398   1.121  11.887   8.492 -0.0315 -0.3238  0.2293
  409POPI   C1B 6399   0.196  11.946   9.739 -0.1430  0.0157  0.3700
  409POPI   C2B 6400   0.029  11.882   9.317 -0.1228 -0.0312 -0.1817
  409POPI   C3B 6401  -0.103  11.887   8.933  0.1575 -0.2292  0.1564
  409POPI   C4B 6402  -0.179  11.585   8.582 -0.2678  0.0409 -0.1668
  410POPI    C1 6403  15.287   7.639  10.697  0.0063 -0.0911 -0.1538
  410POPI    C2 6404  15.048   7.450  10.437  0.0100 -0.3928  0.0569
  410POPI    C3 6405  15.224   7.245  10.732  0.0997 -0.0755  0.2285
  410POPI   PO4 6406  15.401   7.794  10.609 -0.0226 -0.0594  0.1852
  410POPI   GL1 6407  15.314   8.124  10.279 -0.1062 -0.2173  0.1273
  410POPI   GL2 6408  15.202   7.819  10.099 -0.2679  0.2634 -0.0453
  410POPI   C1A 6409  15.164   8.328   9.984  0.2427  0.2121  0.1611
  410POPI   D2A 6410  15.295   8.270   9.629  0.1969  0.2198  0.0348
  410POPI   C3A 6411  15.240   8.331   9.232 -0.0223  0.2299  0.1358
  410POPI   C4A 6412  15.080   8.150   8.735 -0.0819  0.2221  0.1224
  410POPI   C1B 6413  14.984   7.844   9.703  0.0166 -0.0247  0.3673
  410POPI   C2B 6414  15.085   7.868   9.230  0.1711  0.1877  0.2812
  410POPI   C3B 6415  15.025   7.671   8.822  0.0108 -0.1649  0.2342
  410POPI   C4B 6416  14.946   7.707   8.379  0.0147 -0.0387  0.1640
  411POPI    C1 6417   2.014   1.826  10.716 -0.1873  0.0142  0.2963
  411POPI    C2 6418   1.931   1.512  10.950  0.0818 -0.3791 -0.1181
  411POPI    C3 6419   2.293   1.683  10.966 -0.1133  0.0220  0.2186
  411POPI   PO4 6420   1.769   1.785  10.519 -0.0080 -0.2334  0.0265
  411POPI   GL1 6421   1.727   1.838  10.107  0.3475 -0.2076 -0.0665
  411POPI   GL2 6422   2.135   1.856  10.190 -0.1866 -0.1907 -0.2151
  411POPI   C1A 6423   1.458   1.912   9.915 -0.1667 -0.0136 -0.1743
  411POPI   D2A 6424   1.183   1.829   9.694 -0.0640  0.0590 -0.1130
  411POPI   C3A 6425   1.227   1.892   9.272 -0.0865 -0.2766 -0.1020
  411POPI   C4A 6426   1.460   1.954   8.855  0.4241 -0.0325  0.2375
  411POPI   C1B 6427   2.128   1.836   9.737  0.1345  0.0157  0.0734
  411POPI   C2B 6428   2.086   1.826   9.368  0.0601  0.0232  0.1285
  411POPI   C3B 6429   2.031   1.877   8.918 -0.0060 -0.2046 -0.0179
  411POPI   C4B 6430   1.841   1.990   8.448 -0.0534  0.0667  0.0273
  412POPI    C1 6431   0.081   6.487  10.126  0.0335 -0.1752  0.0598
  412POPI    C2 6432   0.376   6.527  10.393 -0.0015  0.1960  0.0476
  412POPI    C3 6433   0.305   6.171  10.226  0.2692  0.0459  0.2444
  412POPI   PO4 6434   0.101   6.741   9.995 -0.0641 -0.1956 -0.2022
  412POPI   GL1 6435   0.191   6.789   9.633  0.0764 -0.1965  0.5832
  412POPI   GL2 6436   0.433   6.907   9.495 -0.0166 -0.0501  0.0748
  412POPI   C1A 6437   0.132   6.606   9.208 -0.0066 -0.3344 -0.1689
  412POPI   D2A 6438   0.133   6.490   8.783 -0.3775 -0.2218  0.2248
  412POPI   C3A 6439   0.218   6.769   8.525 -0.1332 -0.2785  0.4092
  412POPI   C4A 6440   0.137   7.278   8.441  0.0818  0.2023  0.0570
  412POPI   C1B 6441   0.472   6.945   8.994  0.2474 -0.1698 -0.0912
  412POPI   C2B 6442   0.683   7.094   8.653  0.1899  0.0280  0.1241
  412POPI   C3B 6443   0.906   6.986   8.291 -0.1119  0.3079 -0.0474
  412POPI   C4B 6444   1.447   6.909   8.321  0.2252  0.3601  0.0123
  413POPI    C1 6445  10.053  10.372  10.973 -0.1948 -0.1719 -0.3018
  413POPI    C2 6446   9.945  10.130  11.273  0.1497 -0.1847 -0.1841
  413POPI    C3 6447  10.321  10.263  11.249  0.0484  0.0650 -0.4409
  413POPI   PO4 6448  10.019  10.276  10.704  0.1531 -0.2295  0.1525
  413POPI   GL1 6449  10.063  10.329  10.224 -0.0178 -0.3287 -0.0304
  413POPI   GL2 6450   9.692  10.132  10.183 -0.1350  0.1262  0.3680
  413POPI   C1A 6451  10.156  10.075   9.933  0.0261  0.0017 -0.2995
  413POPI   D2A 6452   9.901   9.840   9.771 -0.2963  0.4191 -0.0212
  413POPI   C3A 6453   9.771   9.748   9.360  0.2196 -0.0052 -0.0760
  413POPI   C4A 6454   9.708   9.726   8.959  0.2460  0.0764  0.1815
  413POPI   C1B 6455   9.456  10.174   9.825 -0.0257  0.1073 -0.2750
  413POPI   C2B 6456   9.120  10.309   9.546 -0.3703 -0.0489 -0.3807
  413POPI   C3B 6457   9.135  10.453   9.114 -0.3177  0.1270 -0.2493
  413POPI   C4B 6458   9.127  10.785   8.738 -0.2268  0.1056 -0.2005
  414POPI    C1 6459   6.285   6.457  10.880 -0.0917 -0.0151  0.0832
  414POPI    C2 6460   6.594   6.558  11.114 -0.0210  0.1003 -0.0588
  414POPI    C3 6461   6.468   6.179  11.102  0.0250  0.0793  0.1067
  414POPI   PO4 6462   6.356   6.574  10.605 -0.0837 -0.0456  0.0313
  414POPI   GL1 6463   6.410   6.420  10.092 -0.3457 -0.0910  0.1030
  414POPI   GL2 6464   6.640   6.565  10.049  0.2858  0.0282  0.0869
  414POPI   C1A 6465   6.265   6.639   9.734  0.0886 -0.1700  0.1157
  414POPI   D2A 6466   6.153   6.721   9.335 -0.1878  0.1464 -0.1225
  414POPI   C3A 6467   6.032   6.919   8.996 -0.1777 -0.3638  0.2055
  414POPI   C4A 6468   6.230   6.993   8.620 -0.1805 -0.3134  0.1179
  414POPI   C1B 6469   6.862   6.810   9.808 -0.4245  0.1481  0.3201
  414POPI   C2B 6470   7.076   6.871   9.430 -0.0220  0.0270 -0.0608
  414POPI   C3B 6471   7.009   6.873   8.968 -0.0074 -0.0853 -0.3464
  414POPI   C4B 6472   6.900   6.544   8.743 -0.0795 -0.1146  0.1215
  415POPI    C1 6473  17.166   7.405  10.532  0.0326  0.1230  0.1633
  415POPI    C2 6474  17.001   7.145  10.788  0.2429 -0.0558  0.1198
  415POPI    C3 6475  17.388   7.114  10.692  0.2067  0.1144 -0.0891
  415POPI   PO4 6476  16.946   7.408  10.361 -0.0040 -0.0154 -0.4270
  415POPI   GL1 6477  16.829   7.183  10.060  0.0926 -0.1420 -0.0183
  415POPI   GL2 6478  17.117   7.307   9.855 -0.1033 -0.1891  0.1178
  415POPI   C1A 6479  16.442   6.956   9.943 -0.1951 -0.1348  0.1993
  415POPI   D2A 6480  16.145   6.938   9.582  0.0476  0.1068 -0.2644
  415POPI   C3A 6481  16.114   6.736   9.218 -0.0582 -0.0046  0.0379
  415POPI   C4A 6482  16.233   6.721   8.751 -0.0771  0.0643  0.1009
  415POPI   C1B 6483  16.851   7.344   9.568 -0.1583  0.0644 -0.1238
  415POPI   C2B 6484  16.806   7.365   9.131  0.2515  0.2762 -0.0314
  415POPI   C3B 6485  16.820   7.268   8.666  0.0396 -0.1422  0.1569
  415POPI   C4B 6486  16.911   7.507   8.283 -0.3242  0.3494 -0.0318
  416POPI    C1 6487  17.010  10.305  10.701  0.1100 -0.1946  0.0001
  416POPI    C2 6488  17.163  10.225  11.062  0.2068  0.2084  0.0531
  416POPI    C3 6489  16.863  10.487  11.026  0.2217  0.1975 -0.1629
  416POPI   PO4 6490  16.949  10.147  10.590 -0.2029  0.2991  0.2355
  416POPI   GL1 6491  16.762   9.837  10.230  0.0399  0.1840 -0.1039
  416POPI   GL2 6492  16.461   9.891  10.163  0.1751  0.0562  0.1992
  416POPI   C1A 6493  16.805   9.711   9.760 -0.0335  0.1849  0.2149
  416POPI   D2A 6494  16.705   9.948   9.392  0.2891 -0.1219  0.0079
  416POPI   C3A 6495  16.838  10.148   9.058  0.1495  0.1438  0.1605
  416POPI   C4A 6496  16.751  10.468   8.685 -0.0167  0.1391 -0.1779
  416POPI   C1B 6497  16.349   9.989   9.771 -0.2125  0.0566 -0.0424
  416POPI   C2B 6498  16.210   9.980   9.369  0.2504 -0.2928  0.0748
  416POPI   C3B 6499  15.918   9.877   9.028 -0.2316 -0.2408  0.2153
  416POPI   C4B 6500  15.675  10.191   8.846 -0.0761 -0.3395 -0.0894
  417POPI    C1 6501  10.000  13.008  10.995  0.3194  0.1520  0.1898
  417POPI    C2 6502   9.739  13.118  11.278 -0.1023 -0.2917 -0.0125
  417POPI    C3 6503   9.971  12.797  11.333  0.0150 -0.2154 -0.0578
  417POPI   PO4 6504  10.017  13.167  10.761  0.2042 -0.1374 -0.0907
  417POPI   GL1 6505   9.963  12.998  10.392 -0.0081 -0.1714  0.2276
  417POPI   GL2 6506  10.037  13.399  10.358 -0.3301 -0.0104  0.0774
  417POPI   C1A 6507  10.334  12.904  10.143 -0.0881 -0.0773  0.2721
  417POPI   D2A 6508  10.497  13.019   9.759 -0.2061  0.3118 -0.1609
  417POPI   C3A 6509  10.403  12.958   9.398 -0.3622  0.0242  0.3494
  417POPI   C4A 6510  10.300  12.889   8.986  0.0620  0.0614  0.0209
  417POPI   C1B 6511  10.014  13.274   9.874  0.2483 -0.1677 -0.1196
  417POPI   C2B 6512   9.957  13.312   9.433 -0.0582 -0.0218 -0.0484
  417POPI   C3B 6513   9.977  13.237   9.057 -0.0385 -0.1605  0.2697
  417POPI   C4B 6514   9.955  13.033   8.655  0.1884 -0.1233  0.0187
  418POPI    C1 6515  14.246   7.229  10.776 -0.2073 -0.2534  0.0224
  418POPI    C2 6516  13.847   7.250  10.799 -0.2115  0.3017 -0.3503
  418POPI    C3 6517  14.074   7.439  11.069 -0.1968  0.0746 -0.2009
  418POPI   PO4 6518  14.304   7.219  10.533  0.1149  0.0113 -0.2903
  418POPI   GL1 6519  14.385   7.099  10.146 -0.0252 -0.0385  0.0795
  418POPI   GL2 6520  14.255   7.296   9.851  0.1484  0.0042  0.0865
  418POPI   C1A 6521  14.577   6.907   9.756 -0.0693 -0.1006 -0.5098
  418POPI   D2A 6522  14.502   6.824   9.389 -0.2210  0.0495  0.1357
  418POPI   C3A 6523  14.756   6.914   8.973  0.0889  0.0409  0.2497
  418POPI   C4A 6524  14.932   7.040   8.568 -0.0932  0.0597 -0.2286
  418POPI   C1B 6525  14.306   7.334   9.439 -0.1081 -0.1968 -0.2226
  418POPI   C2B 6526  14.250   7.155   8.919 -0.1247 -0.1754 -0.1501
  418POPI   C3B 6527  14.277   7.034   8.548  0.0218  0.1093  0.1519
  418POPI   C4B 6528  14.286   7.195   8.157  0.0629 -0.1482  0.0991
  419POPI    C1 6529   6.183   3.428  10.792 -0.0476 -0.0188  0.0988
  419POPI    C2 6530   6.131   3.520  10.406  0.0171  0.0094  0.0966
  419POPI    C3 6531   6.027   3.782  10.690  0.4095  0.1853  0.0837
  419POPI   PO4 6532   6.270   3.230  10.791  0.2342 -0.1035  0.2321
  419POPI   GL1 6533   6.320   3.058  10.386 -0.1878  0.1382 -0.0495
  419POPI   GL2 6534   6.491   3.187  10.140  0.0685 -0.1447 -0.1685
  419POPI   C1A 6535   6.028   2.859  10.057  0.2051 -0.1000 -0.0749
  419POPI   D2A 6536   6.129   2.502  10.015 -0.3534 -0.1781 -0.0778
  419POPI   C3A 6537   6.257   2.544   9.640 -0.2985  0.3536  0.1633
  419POPI   C4A 6538   6.250   2.987   9.519 -0.0287  0.2888 -0.1235
  419POPI   C1B 6539   6.785   3.419   9.914 -0.3412  0.0514 -0.0691
  419POPI   C2B 6540   6.769   3.682   9.599  0.1403 -0.1753 -0.0602
  419POPI   C3B 6541   6.826   3.629   9.112 -0.1320 -0.2686 -0.0095
  419POPI   C4B 6542   6.982   3.847   8.782 -0.0143 -0.0910 -0.3374
  420POPI    C1 6543   7.490   1.021  11.181  0.2238 -0.4082  0.0926
  420POPI    C2 6544   7.690   1.285  11.405 -0.4146  0.1256  0.0674
  420POPI    C3 6545   7.632   0.912  11.538  0.0047  0.1597  0.3661
  420POPI   PO4 6546   7.328   1.201  10.972 -0.0318  0.1909 -0.1684
  420POPI   GL1 6547   7.174   1.363  10.503 -0.1916 -0.1273 -0.0465
  420POPI   GL2 6548   7.434   1.361  10.525 -0.2860  0.0962  0.4020
  420POPI   C1A 6549   6.802   1.167  10.338  0.0180 -0.0644  0.1373
  420POPI   D2A 6550   6.441   1.165  10.272  0.1330 -0.0139 -0.0115
  420POPI   C3A 6551   6.191   1.402   9.917  0.3322  0.4148 -0.0885
  420POPI   C4A 6552   6.280   1.420   9.477  0.3339 -0.2965 -0.2606
  420POPI   C1B 6553   7.656   1.298  10.116 -0.1026  0.0883  0.1920
  420POPI   C2B 6554   7.670   1.289   9.637  0.0142 -0.0180  0.3373
  420POPI   C3B 6555   7.543   1.266   9.363  0.0441  0.0230 -0.2611
  420POPI   C4B 6556   7.143   1.198   9.197 -0.0485 -0.1191 -0.0570
  421POPI    C1 6557   7.147  12.050  10.974  0.0897 -0.0057  0.0977
  421POPI    C2 6558   7.403  11.773  11.106  0.1286  0.0262  0.0889
  421POPI    C3 6559   7.344  12.108  11.317  0.0583 -0.0026  0.1153
  421POPI   PO4 6560   7.092  11.911  10.729 -0.0527  0.1036 -0.2679
  421POPI   GL1 6561   7.170  11.668  10.352 -0.3295 -0.1858  0.3457
  421POPI   GL2 6562   6.938  11.312  10.431 -0.1771 -0.1175  0.0110
  421POPI   C1A 6563   7.551  11.816  10.098 -0.0862 -0.0076 -0.1889
  421POPI   D2A 6564   7.683  11.879   9.679 -0.2183  0.0619  0.0602
  421POPI   C3A 6565   7.672  11.808   9.196  0.1648  0.2746 -0.1312
  421POPI   C4A 6566   7.793  11.665   8.701 -0.1463 -0.2195  0.0044
  421POPI   C1B 6567   6.869  11.321   9.971 -0.2010  0.1579 -0.1969
  421POPI   C2B 6568   6.737  11.314   9.476 -0.0321  0.2213  0.1186
  421POPI   C3B 6569   6.598  11.261   9.069 -0.2244  0.3456 -0.0823
  421POPI   C4B 6570   6.649  11.346   8.602 -0.2388  0.0710 -0.0740
  422POPI    C1 6571  17.099   0.060  10.721 -0.1331 -0.0455 -0.1634
  422POPI    C2 6572  16.990   0.129  11.100  0.0634 -0.0741 -0.1005
  422POPI    C3 6573  17.064   0.436  10.854 -0.1671 -0.0544 -0.1474
  422POPI   PO4 6574  16.976  -0.145  10.604  0.1198  0.2545  0.0530
  422POPI   GL1 6575  16.584  -0.167  10.374 -0.3105 -0.1318  0.2783
  422POPI   GL2 6576  16.736  -0.430  10.255  0.1648 -0.4415  0.2001
  422POPI   C1A 6577  16.487  -0.024  10.012  0.0530  0.0601  0.1439
  422POPI   D2A 6578  16.258   0.095   9.631  0.0810  0.0371  0.2695
  422POPI   C3A 6579  15.973  -0.050   9.346 -0.0954 -0.3217  0.1523
  422POPI   C4A 6580  15.703   0.113   8.997 -0.0776  0.0257 -0.2457
  422POPI   C1B 6581  16.763  -0.403   9.887 -0.1704 -0.3135 -0.2727
  422POPI   C2B 6582  16.583  -0.312   9.471 -0.1480  0.1265 -0.2155
  422POPI   C3B 6583  16.453  -0.023   9.143  0.2551 -0.0092  0.1483
  422POPI   C4B 6584  16.179   0.092   8.858 -0.1267  0.2155 -0.2502
  423DPPI    C1 6585   1.808   2.698  10.688 -0.1070 -0.1598 -0.0084
  423DPPI    C2 6586   1.655   2.588  11.041 -0.1200 -0.4123 -0.0905
  423DPPI    C3 6587   2.016   2.456  10.929  0.0240 -0.0757 -0.0360
  423DPPI   PO4 6588   1.604   2.647  10.533 -0.0728 -0.3536 -0.0929
  423DPPI   GL1 6589   1.571   2.779  10.133 -0.3045 -0.1797 -0.1812
  423DPPI   GL2 6590   1.953   2.804  10.122  0.0369 -0.2405  0.3356
  423DPPI   C1A 6591   1.441   2.766   9.772 -0.0349 -0.3228 -0.2843
  423DPPI   C2A 6592   1.429   2.820   9.327  0.2369  0.2777  0.0043
  423DPPI   C3A 6593   1.449   2.812   8.796  0.0282 -0.0467  0.0964
  423DPPI   C4A 6594   1.584   3.050   8.477  0.1423  0.0509 -0.0502
  423DPPI   C1B 6595   1.953   2.749   9.743  0.0198 -0.0116  0.2025
  423DPPI   C2B 6596   2.077   2.751   9.383 -0.0882 -0.0946  0.0529
  423DPPI   C3B 6597   1.959   2.748   9.075  0.2630  0.1948 -0.1022
  423DPPI   C4B 6598   2.068   2.828   8.784  0.0293  0.2548  0.0280
  424DPPI    C1 6599   6.809   6.083  10.327 -0.0662  0.0924 -0.0934
  424DPPI    C2 6600   6.795   6.265  10.683  0.0717 -0.0529 -0.0127
  424DPPI    C3 6601   6.720   5.873  10.656 -0.2116  0.0110 -0.1837
  424DPPI   PO4 6602   6.913   6.171  10.168 -0.1849  0.2889 -0.4147
  424DPPI   GL1 6603   7.160   6.317  10.001  0.2837 -0.0068  0.1869
  424DPPI   GL2 6604   7.184   6.643  10.188 -0.2447  0.2721 -0.0613
  424DPPI   C1A 6605   7.269   6.406   9.551 -0.0033  0.0576 -0.1651
  424DPPI   C2A 6606   7.358   6.514   9.013 -0.1920 -0.3522 -0.3473
  424DPPI   C3A 6607   7.403   6.609   8.610 -0.0245  0.0475  0.2183
  424DPPI   C4A 6608   7.212   6.477   8.285  0.0135 -0.0592  0.0020
  424DPPI   C1B 6609   7.381   6.867   9.829  0.2386  0.0074  0.0409
  424DPPI   C2B 6610   7.587   6.940   9.480  0.1632 -0.0328 -0.2045
  424DPPI   C3B 6611   7.585   6.934   8.991  0.4086  0.0083  0.0799
  424DPPI   C4B 6612   7.808   6.836   8.665  0.0697 -0.2351  0.2461
  425DPPI    C1 6613   6.053   1.416  11.028  0.0436 -0.1267 -0.1694
  425DPPI    C2 6614   6.330   1.259  11.270 -0.0185 -0.0229 -0.0299
  425DPPI    C3 6615   6.026   1.469  11.423 -0.0311  0.0865 -0.2020
  425DPPI   PO4 6616   5.996   1.180  10.915 -0.4381  0.0152  0.1652
  425DPPI   GL1 6617   5.862   0.887  10.526 -0.1850 -0.3523  0.2483
  425DPPI   GL2 6618   6.141   0.814  10.594 -0.0297  0.0247 -0.0877
  425DPPI   C1A 6619   5.920   1.038  10.187  0.0232 -0.3154  0.1861
  425DPPI   C2A 6620   5.703   1.106   9.865  0.1862 -0.1555  0.0578
  425DPPI   C3A 6621   5.775   1.228   9.500 -0.2425  0.0152  0.2286
  425DPPI   C4A 6622   5.613   1.446   9.152 -0.0985 -0.0819 -0.2639
  425DPPI   C1B 6623   6.328   0.682  10.213 -0.1744 -0.3438  0.0880
  425DPPI   C2B 6624   6.438   0.857   9.872 -0.1652  0.1393 -0.2581
  425DPPI   C3B 6625   6.565   1.041   9.501  0.3353 -0.1486 -0.0721
  425DPPI   C4B 6626   6.577   1.214   9.096  0.2813  0.4678  0.0094
  426DPPI    C1 6627  17.825   4.938  11.041 -0.1481  0.0430 -0.0123
  426DPPI    C2 6628  17.451   5.072  10.989 -0.2070 -0.1159 -0.0042
  426DPPI    C3 6629  17.658   5.177  11.315 -0.1791  0.1176 -0.0958
  426DPPI   PO4 6630  17.900   4.968  10.743  0.1048  0.4766  0.3046
  426DPPI   GL1 6631  17.574   5.030  10.413  0.0358 -0.1378  0.1873
  426DPPI   GL2 6632  17.624   5.359  10.383  0.2294 -0.1908 -0.0506
  426DPPI   C1A 6633  17.869   4.955  10.077  0.2228 -0.2033  0.0514
  426DPPI   C2A 6634  17.834   5.005   9.634  0.4333 -0.1385  0.1731
  426DPPI   C3A 6635  17.842   5.106   9.253 -0.0507 -0.3517 -0.1484
  426DPPI   C4A 6636  17.631   5.120   8.819  0.2787 -0.0029  0.0027
  426DPPI   C1B 6637  17.343   5.680  10.094 -0.0363 -0.0324  0.3646
  426DPPI   C2B 6638  17.206   5.791   9.676 -0.1874  0.0145  0.0918
  426DPPI   C3B 6639  17.166   5.853   9.240 -0.1822  0.0254  0.0065
  426DPPI   C4B 6640  17.264   6.058   8.865  0.0488 -0.3713  0.0247
  427DPPI    C1 6641  11.531  11.415  11.146  0.0247 -0.0793  0.0973
  427DPPI    C2 6642  11.478  11.019  11.160 -0.1199 -0.0610  0.0782
  427DPPI    C3 6643  11.524  11.227  11.499  0.0760 -0.1094  0.0825
  427DPPI   PO4 6644  11.384  11.474  10.949  0.2051  0.1877 -0.0138
  427DPPI   GL1 6645  11.431  11.212  10.567  0.0690 -0.1013 -0.0466
  427DPPI   GL2 6646  11.660  11.389  10.381  0.4192  0.0568  0.1164
  427DPPI   C1A 6647  11.316  11.011  10.162  0.0163 -0.1139 -0.1042
  427DPPI   C2A 6648  11.316  10.968   9.729  0.0295  0.0450 -0.2051
  427DPPI   C3A 6649  11.195  11.006   9.343 -0.1637 -0.0312 -0.0653
  427DPPI   C4A 6650  10.996  11.148   8.930  0.0224 -0.1869  0.0244
  427DPPI   C1B 6651  11.550  11.413   9.928  0.1741 -0.0160 -0.1665
  427DPPI   C2B 6652  11.472  11.420   9.439  0.0661  0.4486 -0.3211
  427DPPI   C3B 6653  11.433  11.414   9.068 -0.2486  0.0862 -0.1534
  427DPPI   C4B 6654  11.720  11.423   8.689  0.1373 -0.2735  0.1240
  428DPPI    C1 6655   5.327  14.830  10.972 -0.0666  0.1902 -0.1019
  428DPPI    C2 6656   5.517  15.051  10.698  0.0165  0.1473 -0.0790
  428DPPI    C3 6657   5.681  14.994  11.058  0.0119  0.0199 -0.0965
  428DPPI   PO4 6658   5.246  14.603  10.744  0.2606 -0.0036 -0.0248
  428DPPI   GL1 6659   5.365  14.518  10.367 -0.0064  0.1866 -0.0074
  428DPPI   GL2 6660   5.238  14.846  10.263 -0.1559  0.1382 -0.2269
  428DPPI   C1A 6661   5.552  14.579   9.961 -0.0290  0.0134 -0.1969
  428DPPI   C2A 6662   5.519  14.602   9.505  0.0982  0.1486  0.2452
  428DPPI   C3A 6663   5.545  14.643   9.054 -0.0269 -0.2048 -0.1193
  428DPPI   C4A 6664   5.707  14.850   8.601 -0.2277  0.1390 -0.2020
  428DPPI   C1B 6665   5.078  14.575   9.975 -0.4750  0.0619  0.2674
  428DPPI   C2B 6666   5.026  14.445   9.568  0.0719 -0.0917  0.0228
  428DPPI   C3B 6667   5.029  14.450   9.207  0.0670 -0.1227 -0.1628
  428DPPI   C4B 6668   4.887  14.332   8.740  0.0825 -0.1946  0.1466
  429DPPI    C1 6669  13.921  12.566  10.878  0.0054  0.1768 -0.0605
  429DPPI    C2 6670  14.167  12.400  11.146 -0.0099  0.0278 -0.1377
  429DPPI    C3 6671  14.267  12.745  10.970  0.0360  0.0864  0.0017
  429DPPI   PO4 6672  13.855  12.387  10.661  0.2466 -0.0687  0.0935
  429DPPI   GL1 6673  13.695  12.421  10.321 -0.1611  0.1699 -0.0080
  429DPPI   GL2 6674  13.458  12.601  10.251  0.1132 -0.2441  0.2994
  429DPPI   C1A 6675  13.841  12.174   9.968 -0.0649 -0.3001 -0.0671
  429DPPI   C2A 6676  13.743  12.114   9.624  0.1957 -0.2309 -0.0420
  429DPPI   C3A 6677  13.794  12.037   9.130  0.0587 -0.1789 -0.2693
  429DPPI   C4A 6678  13.853  12.149   8.725 -0.3020  0.0552  0.1302
  429DPPI   C1B 6679  13.340  12.278   9.839 -0.0496  0.1152  0.0062
  429DPPI   C2B 6680  13.243  12.131   9.396 -0.1311  0.4394  0.2741
  429DPPI   C3B 6681  13.349  12.186   8.940  0.2528  0.0173 -0.1722
  429DPPI   C4B 6682  13.285  12.442   8.590 -0.0850  0.0162  0.0260
  430DPPI    C1 6683  13.703   9.977  11.004  0.2040 -0.0153  0.2908
  430DPPI    C2 6684  13.364   9.778  11.075  0.0825  0.0267 -0.1430
  430DPPI    C3 6685  13.659   9.773  11.345 -0.2906  0.0568  0.2771
  430DPPI   PO4 6686  13.720   9.919  10.761  0.2702 -0.1049 -0.1232
  430DPPI   GL1 6687  13.798  10.130  10.395 -0.1923 -0.1280 -0.0481
  430DPPI   GL2 6688  13.818   9.780  10.290  0.0427  0.0767  0.0718
  430DPPI   C1A 6689  13.852  10.296   9.959 -0.0054  0.0719  0.0589
  430DPPI   C2A 6690  13.830  10.270   9.624  0.3761  0.0386 -0.3793
  430DPPI   C3A 6691  13.854  10.146   9.201 -0.0615 -0.1086  0.0051
  430DPPI   C4A 6692  13.534  10.244   8.963 -0.1889 -0.2157 -0.0208
  430DPPI   C1B 6693  13.946   9.804   9.913 -0.1215 -0.1450 -0.2970
  430DPPI   C2B 6694  13.928   9.782   9.492 -0.0431  0.3200 -0.0496
  430DPPI   C3B 6695  14.046   9.569   9.104  0.0920 -0.2868  0.1362
  430DPPI   C4B 6696  13.960   9.238   8.748  0.1621  0.0104  0.0646
  431DPPI    C1 6697   8.048   9.130  10.804 -0.0716  0.0498 -0.0833
  431DPPI    C2 6698   8.317   9.422  10.852 -0.1003  0.0806 -0.1095
  431DPPI    C3 6699   8.065   9.332  11.149 -0.0023 -0.0079 -0.0527
  431DPPI   PO4 6700   8.198   8.974  10.674 -0.0261 -0.2546  0.1068
  431DPPI   GL1 6701   8.340   9.017  10.221 -0.4077 -0.2276 -0.3947
  431DPPI   GL2 6702   8.116   9.229  10.257 -0.0774  0.3248  0.0164
  431DPPI   C1A 6703   8.446   9.034   9.816  0.0698 -0.3104 -0.2644
  431DPPI   C2A 6704   8.394   9.049   9.457 -0.4350 -0.0070 -0.0386
  431DPPI   C3A 6705   8.223   8.955   9.035  0.0142  0.0258 -0.0470
  431DPPI   C4A 6706   7.938   9.233   8.758  0.1005  0.1765 -0.3326
  431DPPI   C1B 6707   8.037   9.254   9.742 -0.1651 -0.1831  0.5462
  431DPPI   C2B 6708   7.930   9.272   9.303 -0.3191  0.2352 -0.3736
  431DPPI   C3B 6709   7.617   9.289   9.185  0.0133  0.1659 -0.0520
  431DPPI   C4B 6710   7.414   9.213   8.715  0.4962  0.2916 -0.1465
  432DPPI    C1 6711   4.647   3.598  10.727  0.2431 -0.2458 -0.1960
  432DPPI    C2 6712   4.648   3.199  10.759  0.1332 -0.2112  0.3289
  432DPPI    C3 6713   4.345   3.411  10.910  0.0252  0.0587 -0.2370
  432DPPI   PO4 6714   4.712   3.645  10.529 -0.1607  0.0631  0.4459
  432DPPI   GL1 6715   4.961   3.631  10.245 -0.2207  0.0671 -0.0298
  432DPPI   GL2 6716   5.178   3.339  10.149 -0.1765 -0.0368  0.0886
  432DPPI   C1A 6717   4.919   3.620   9.825 -0.3085  0.0530 -0.0465
  432DPPI   C2A 6718   4.960   3.399   9.421  0.2216 -0.0535 -0.2101
  432DPPI   C3A 6719   4.808   3.308   8.970  0.0118 -0.2247  0.0252
  432DPPI   C4A 6720   4.750   3.280   8.617 -0.2966  0.0414 -0.1507
  432DPPI   C1B 6721   5.319   3.237   9.785 -0.4523  0.0374  0.1219
  432DPPI   C2B 6722   5.382   3.148   9.321 -0.2357 -0.4681 -0.2808
  432DPPI   C3B 6723   5.411   3.121   8.965  0.0180 -0.1506 -0.0519
  432DPPI   C4B 6724   5.177   3.043   8.605  0.3090  0.0779  0.0640
  433DPPI    C1 6725   3.713   9.531  10.906 -0.0664 -0.1902 -0.1576
  433DPPI    C2 6726   3.428   9.811  10.917  0.0700 -0.0525 -0.0869
  433DPPI    C3 6727   3.436   9.524  11.195  0.0253 -0.0319 -0.0640
  433DPPI   PO4 6728   3.700   9.308  10.725 -0.5177 -0.2963 -0.1461
  433DPPI   GL1 6729   3.717   9.148  10.339 -0.2517  0.1813  0.2639
  433DPPI   GL2 6730   3.975   8.940  10.382 -0.1225  0.2138  0.0580
  433DPPI   C1A 6731   3.857   9.006   9.901 -0.0559  0.0844 -0.0739
  433DPPI   C2A 6732   3.802   9.057   9.550 -0.1941  0.0836  0.1138
  433DPPI   C3A 6733   3.854   9.257   9.142 -0.2092  0.4089  0.0503
  433DPPI   C4A 6734   4.038   9.218   8.742 -0.2903  0.2463 -0.1220
  433DPPI   C1B 6735   4.342   8.783  10.130  0.0784  0.2419 -0.1692
  433DPPI   C2B 6736   4.384   8.834   9.695 -0.2325 -0.1745  0.0054
  433DPPI   C3B 6737   4.273   8.945   9.322 -0.1683 -0.1980  0.2663
  433DPPI   C4B 6738   4.230   8.751   8.991  0.1774  0.3355  0.0816
  434DPPI    C1 6739  17.435   2.364  11.245  0.0078 -0.1944  0.0056
  434DPPI    C2 6740  17.511   2.754  11.208  0.0193 -0.2060 -0.0959
  434DPPI    C3 6741  17.737   2.528  11.449  0.0168 -0.1514 -0.0420
  434DPPI   PO4 6742  17.467   2.355  10.938 -0.1473 -0.2322  0.0151
  434DPPI   GL1 6743  17.634   2.402  10.537 -0.2088  0.0637  0.2160
  434DPPI   GL2 6744  17.890   2.341  10.471 -0.3486 -0.0319  0.3871
  434DPPI   C1A 6745  17.374   2.171  10.162 -0.2098  0.3563  0.2488
  434DPPI   C2A 6746  17.416   2.154   9.812 -0.1715 -0.1694 -0.3185
  434DPPI   C3A 6747  17.499   2.131   9.386 -0.4915 -0.1693 -0.2226
  434DPPI   C4A 6748  17.509   2.159   8.955 -0.0946  0.1353 -0.0345
  434DPPI   C1B 6749  17.780   2.506  10.089 -0.4101 -0.1694 -0.0782
  434DPPI   C2B 6750  17.664   2.611   9.587  0.4692  0.0726  0.0962
  434DPPI   C3B 6751  17.682   2.686   9.132 -0.3466  0.1414 -0.1392
  434DPPI   C4B 6752  17.585   2.641   8.740 -0.0825  0.0734 -0.1468
  435DPPI    C1 6753   9.064   7.283  11.080  0.1199 -0.1414 -0.1192
  435DPPI    C2 6754   9.309   7.413  11.369  0.3184 -0.1666 -0.2741
  435DPPI    C3 6755   9.229   7.022  11.335  0.1211 -0.1410 -0.1196
  435DPPI   PO4 6756   9.137   7.397  10.828  0.0805 -0.2170 -0.1708
  435DPPI   GL1 6757   9.361   7.715  10.558 -0.3596 -0.1681  0.1885
  435DPPI   GL2 6758   9.719   7.763  10.406  0.0569  0.1365 -0.0569
  435DPPI   C1A 6759   9.203   7.491  10.177  0.0035 -0.2458  0.5145
  435DPPI   C2A 6760   9.260   7.598   9.698  0.2417 -0.1467  0.2404
  435DPPI   C3A 6761   9.301   7.767   9.290  0.0039 -0.0222  0.3556
  435DPPI   C4A 6762   9.363   7.729   8.833 -0.2398 -0.1320 -0.1873
  435DPPI   C1B 6763   9.707   7.594   9.985  0.0083  0.3333  0.0796
  435DPPI   C2B 6764   9.685   7.371   9.526  0.1168  0.0202 -0.0052
  435DPPI   C3B 6765   9.513   7.349   9.103  0.3260  0.0488  0.0083
  435DPPI   C4B 6766   9.577   7.272   8.648 -0.1451 -0.2637  0.1731
  436DPPI    C1 6767  11.148   7.017  10.744  0.0567  0.0090  0.0578
  436DPPI    C2 6768  11.521   7.125  10.839  0.0541 -0.0989  0.1947
  436DPPI    C3 6769  11.249   7.072  11.127 -0.0044 -0.2501  0.1128
  436DPPI   PO4 6770  11.176   6.825  10.610 -0.0656  0.0410 -0.3073
  436DPPI   GL1 6771  11.253   6.441  10.367 -0.0913  0.0044 -0.0392
  436DPPI   GL2 6772  10.950   6.338  10.553  0.1381  0.0254 -0.1223
  436DPPI   C1A 6773  11.331   6.300   9.971  0.1041 -0.0099 -0.0402
  436DPPI   C2A 6774  11.433   6.460   9.605  0.0837  0.1173 -0.0402
  436DPPI   C3A 6775  11.259   6.492   9.189  0.0608  0.2101  0.1526
  436DPPI   C4A 6776  11.078   6.425   8.802  0.2361 -0.1497 -0.1776
  436DPPI   C1B 6777  10.846   6.361  10.125 -0.0114 -0.2307 -0.1771
  436DPPI   C2B 6778  10.808   6.380   9.716  0.1525  0.4750  0.0608
  436DPPI   C3B 6779  11.010   6.056   9.461  0.4098  0.1527  0.1631
  436DPPI   C4B 6780  11.273   6.016   9.074 -0.0824 -0.0178 -0.1192
  437DPPI    C1 6781  14.572  13.500  11.422 -0.0294 -0.3175  0.2164
  437DPPI    C2 6782  14.442  13.841  11.585  0.1083 -0.1184 -0.0819
  437DPPI    C3 6783  14.760  13.654  11.740  0.2022  0.0376 -0.0836
  437DPPI   PO4 6784  14.596  13.607  11.171 -0.0226 -0.0394 -0.1759
  437DPPI   GL1 6785  14.266  13.710  10.802  0.1530 -0.0353 -0.0324
  437DPPI   GL2 6786  13.940  13.712  10.726  0.1564  0.1165  0.2652
  437DPPI   C1A 6787  14.337  13.727  10.396  0.0959  0.0037  0.0527
  437DPPI   C2A 6788  14.389  13.638   9.991 -0.3206 -0.0493  0.0320
  437DPPI   C3A 6789  14.354  13.597   9.664 -0.0940 -0.1285 -0.2486
  437DPPI   C4A 6790  14.343  13.585   9.253  0.3045 -0.1348 -0.1556
  437DPPI   C1B 6791  13.855  13.531  10.289  0.2324  0.2508 -0.0974
  437DPPI   C2B 6792  13.845  13.417   9.988  0.1200  0.0309  0.0036
  437DPPI   C3B 6793  13.739  13.488   9.465  0.2419  0.2594 -0.0230
  437DPPI   C4B 6794  13.599  13.495   8.973  0.0265  0.1563 -0.0025
  438DPPI    C1 6795   0.029   8.866  10.983  0.1305  0.0877 -0.0325
  438DPPI    C2 6796   0.057   9.264  11.010 -0.0571  0.1032 -0.0474
  438DPPI    C3 6797  -0.299   9.086  11.049 -0.0020 -0.0490 -0.2227
  438DPPI   PO4 6798   0.165   8.847  10.810 -0.1431  0.0510 -0.2929
  438DPPI   GL1 6799   0.142   8.802  10.359 -0.3611  0.3971 -0.2032
  438DPPI   GL2 6800  -0.150   8.662  10.371 -0.0903 -0.2400 -0.3063
  438DPPI   C1A 6801   0.150   8.757   9.905  0.0796  0.0088  0.2549
  438DPPI   C2A 6802   0.241   8.740   9.473 -0.0138 -0.0963 -0.0681
  438DPPI   C3A 6803   0.028   8.674   9.137 -0.0917  0.0476 -0.0131
  438DPPI   C4A 6804  -0.168   8.534   8.772  0.0330 -0.1674  0.1830
  438DPPI   C1B 6805  -0.333   8.666  10.036  0.1447  0.1156  0.0798
  438DPPI   C2B 6806  -0.310   8.560   9.719  0.1845 -0.0143 -0.1458
  438DPPI   C3B 6807  -0.464   8.495   9.332 -0.0678 -0.1254  0.1032
  438DPPI   C4B 6808  -0.641   8.527   8.962 -0.3270  0.0579 -0.0751
  439DPPI    C1 6809  10.459   1.025  10.994  0.0267  0.1106 -0.0422
  439DPPI    C2 6810  10.100   0.854  11.033  0.1228 -0.0645  0.0931
  439DPPI    C3 6811  10.222   1.125  11.300 -0.0398  0.2415 -0.1352
  439DPPI   PO4 6812  10.476   1.027  10.658 -0.0023  0.0522  0.0440
  439DPPI   GL1 6813  10.608   1.300  10.464 -0.3838  0.1820 -0.0407
  439DPPI   GL2 6814  10.813   1.045  10.292  0.3830  0.0153  0.2072
  439DPPI   C1A 6815  10.386   1.277  10.058  0.1220  0.1185 -0.0308
  439DPPI   C2A 6816  10.270   1.338   9.692 -0.3834  0.2170 -0.1102
  439DPPI   C3A 6817  10.049   1.279   9.353  0.1986 -0.2187 -0.1576
  439DPPI   C4A 6818   9.651   1.077   9.264 -0.0447 -0.1029  0.0615
  439DPPI   C1B 6819  10.719   1.005   9.843  0.1605  0.1429 -0.0540
  439DPPI   C2B 6820  10.555   1.065   9.368 -0.1984 -0.3072 -0.0036
  439DPPI   C3B 6821  10.436   1.300   9.079 -0.3842  0.3178 -0.0271
  439DPPI   C4B 6822  10.127   1.339   8.835 -0.0334  0.0107 -0.2586
  440DPPI    C1 6823   9.090  17.507  10.888 -0.0262 -0.3122 -0.1291
  440DPPI    C2 6824   9.321  17.402  11.197  0.0934 -0.0806 -0.1373
  440DPPI    C3 6825   8.925  17.351  11.217  0.0919  0.0096  0.0880
  440DPPI   PO4 6826   9.297  17.438  10.678 -0.2146  0.0449 -0.1552
  440DPPI   GL1 6827   9.368  17.543  10.313 -0.0637  0.2546 -0.1672
  440DPPI   GL2 6828   9.722  17.601  10.214 -0.1844 -0.3629 -0.0335
  440DPPI   C1A 6829   9.279  17.644   9.899  0.4106 -0.0571  0.1368
  440DPPI   C2A 6830   9.282  17.574   9.540 -0.2131  0.2148 -0.0083
  440DPPI   C3A 6831   9.271  17.604   8.963 -0.1100 -0.0363 -0.4652
  440DPPI   C4A 6832   9.207  17.307   8.552  0.0733  0.1731 -0.1124
  440DPPI   C1B 6833   9.851  17.853   9.935 -0.0706 -0.0335  0.4611
  440DPPI   C2B 6834   9.724  17.814   9.568  0.0013  0.1591 -0.0885
  440DPPI   C3B 6835   9.695  17.825   9.114  0.1328  0.2159  0.0083
  440DPPI   C4B 6836   9.753  17.951   8.817  0.0942 -0.1382 -0.0222
  441DPPI    C1 6837  13.184  13.220  10.709 -0.2272  0.2749 -0.0540
  441DPPI    C2 6838  13.354  13.582  10.699  0.2159  0.0694 -0.2353
  441DPPI    C3 6839  13.441  13.328  10.995 -0.1236  0.1205 -0.0874
  441DPPI   PO4 6840  12.894  13.219  10.697  0.0077 -0.4517  0.1718
  441DPPI   GL1 6841  12.659  13.348  10.353  0.1602  0.2863 -0.1378
  441DPPI   GL2 6842  12.435  13.318  10.251 -0.1385 -0.1810  0.0139
  441DPPI   C1A 6843  12.889  13.302   9.951 -0.0769  0.0520  0.0354
  441DPPI   C2A 6844  12.992  13.180   9.533 -0.2428  0.0323  0.1168
  441DPPI   C3A 6845  12.796  13.025   9.199  0.2788  0.1808  0.2334
  441DPPI   C4A 6846  12.889  13.003   8.780 -0.0722  0.0146 -0.0016
  441DPPI   C1B 6847  12.434  13.459   9.888  0.1061  0.1606  0.0242
  441DPPI   C2B 6848  12.502  13.333   9.438  0.1651 -0.1901 -0.1579
  441DPPI   C3B 6849  12.639  13.543   9.085 -0.1324  0.2075  0.0573
  441DPPI   C4B 6850  12.793  13.489   8.654  0.0825 -0.0163  0.1443
  442DPPI    C1 6851   3.549  14.486  11.030  0.0757  0.0480  0.0137
  442DPPI    C2 6852   3.609  14.630  11.398  0.0582  0.1353 -0.0175
  442DPPI    C3 6853   3.743  14.266  11.303 -0.0174  0.0754  0.1024
  442DPPI   PO4 6854   3.633  14.660  10.859  0.2016 -0.1714 -0.0641
  442DPPI   GL1 6855   3.524  14.701  10.431  0.0212 -0.1569  0.0899
  442DPPI   GL2 6856   3.259  14.889  10.509  0.1919  0.3765 -0.1540
  442DPPI   C1A 6857   3.478  14.491   9.947 -0.2538  0.0917 -0.4241
  442DPPI   C2A 6858   3.468  14.428   9.563  0.0836 -0.2094  0.0819
  442DPPI   C3A 6859   3.377  14.408   9.127  0.2178  0.2776 -0.4166
  442DPPI   C4A 6860   3.343  14.621   8.747  0.0884  0.1032 -0.1843
  442DPPI   C1B 6861   3.194  14.942  10.092  0.1902 -0.0967  0.0624
  442DPPI   C2B 6862   3.233  14.879   9.647 -0.1364 -0.0067  0.1158
  442DPPI   C3B 6863   3.255  14.961   9.135 -0.1518 -0.0244 -0.1571
  442DPPI   C4B 6864   3.082  15.270   8.773 -0.2223 -0.2285  0.2912
  443DPPI    C1 6865  11.162  17.231  11.263  0.1225 -0.1879 -0.0682
  443DPPI    C2 6866  11.251  16.983  11.564  0.2061 -0.0431  0.0276
  443DPPI    C3 6867  11.095  17.343  11.641 -0.2007 -0.1808 -0.1245
  443DPPI   PO4 6868  11.015  17.110  11.082  0.2584  0.1276 -0.2923
  443DPPI   GL1 6869  10.860  17.191  10.616  0.0077  0.0479 -0.0656
  443DPPI   GL2 6870  10.581  17.003  10.586 -0.1386  0.0298 -0.0676
  443DPPI   C1A 6871  10.827  17.170  10.179  0.2662  0.0957 -0.1670
  443DPPI   C2A 6872  10.651  17.263   9.722  0.1663 -0.0001 -0.1218
  443DPPI   C3A 6873  10.642  17.383   9.262 -0.4337  0.1511  0.1132
  443DPPI   C4A 6874  10.593  17.466   8.862  0.0665 -0.0953 -0.0076
  443DPPI   C1B 6875  10.330  16.814  10.297 -0.0067 -0.2330 -0.0053
  443DPPI   C2B 6876  10.241  16.973   9.816  0.2839 -0.0636 -0.1550
  443DPPI   C3B 6877  10.184  17.047   9.438 -0.2243  0.0844 -0.1577
  443DPPI   C4B 6878  10.123  17.124   8.984  0.2548 -0.0914  0.2013
  444DPPI    C1 6879  13.521   1.710  11.093 -0.0829 -0.4177  0.0601
  444DPPI    C2 6880  13.880   1.549  11.022  0.1307 -0.0030  0.1643
  444DPPI    C3 6881  13.840   1.946  11.045 -0.3466 -0.0412  0.1091
  444DPPI   PO4 6882  13.318   1.591  10.883  0.0055 -0.0899  0.0427
  444DPPI   GL1 6883  13.324   1.664  10.488 -0.1637 -0.2444  0.1028
  444DPPI   GL2 6884  13.710   1.770  10.422  0.3301  0.0778 -0.0859
  444DPPI   C1A 6885  13.029   1.486  10.185 -0.2560 -0.0469  0.1784
  444DPPI   C2A 6886  12.960   1.282   9.831  0.0253 -0.2434 -0.1084
  444DPPI   C3A 6887  12.981   1.101   9.389  0.4145  0.3276 -0.0741
  444DPPI   C4A 6888  12.745   1.252   9.009  0.0687  0.3737 -0.1730
  444DPPI   C1B 6889  13.875   2.191  10.141  0.2446 -0.0141 -0.3171
  444DPPI   C2B 6890  13.867   2.148   9.833 -0.0079 -0.0957 -0.0631
  444DPPI   C3B 6891  13.610   2.173   9.599  0.0470 -0.0685  0.1178
  444DPPI   C4B 6892  13.354   1.942   9.461  0.0626 -0.1484 -0.0189
  445DPPI    C1 6893  16.944   9.146  10.839 -0.0059  0.0392 -0.0464
  445DPPI    C2 6894  17.103   9.233  11.196  0.1509 -0.3496 -0.0163
  445DPPI    C3 6895  16.745   9.057  11.174 -0.0027 -0.0390 -0.0651
  445DPPI   PO4 6896  17.201   9.234  10.712  0.0098 -0.1889  0.3214
  445DPPI   GL1 6897  17.282   9.183  10.258  0.2601  0.0485 -0.1862
  445DPPI   GL2 6898  17.096   8.942  10.234 -0.1068 -0.1333 -0.0042
  445DPPI   C1A 6899  17.148   9.349   9.898  0.0968  0.1188  0.2137
  445DPPI   C2A 6900  17.147   9.413   9.417 -0.0451  0.2862  0.1936
  445DPPI   C3A 6901  16.985   9.665   9.044  0.1973  0.0056  0.0997
  445DPPI   C4A 6902  17.235   9.515   8.657 -0.2395  0.2150  0.0570
  445DPPI   C1B 6903  17.125   8.856   9.777 -0.0985 -0.1900  0.1008
  445DPPI   C2B 6904  17.061   8.884   9.362  0.2997  0.0066  0.1942
  445DPPI   C3B 6905  17.014   9.182   9.001 -0.2689 -0.0004 -0.0426
  445DPPI   C4B 6906  16.686   9.402   8.690  0.4577  0.0719  0.0473
  446DPPI    C1 6907   6.923  10.271  10.818 -0.1315  0.0163 -0.0833
  446DPPI    C2 6908   6.803  10.512  11.113 -0.0781 -0.1342  0.0627
  446DPPI    C3 6909   7.145  10.307  11.148 -0.1296 -0.2413 -0.0542
  446DPPI   PO4 6910   6.918  10.311  10.594  0.3444 -0.1371  0.1111
  446DPPI   GL1 6911   6.804  10.259  10.238  0.1102 -0.1247  0.1201
  446DPPI   GL2 6912   6.707   9.888  10.218  0.2533  0.2604  0.0156
  446DPPI   C1A 6913   6.947  10.076   9.820  0.1294 -0.3837 -0.2913
  446DPPI   C2A 6914   6.816  10.122   9.351 -0.0937 -0.1225 -0.0701
  446DPPI   C3A 6915   6.804   9.892   9.005 -0.2403 -0.0319 -0.1070
  446DPPI   C4A 6916   6.900   9.970   8.624 -0.0443  0.0092 -0.0702
  446DPPI   C1B 6917   6.423   9.992   9.889 -0.2097  0.0089 -0.2021
  446DPPI   C2B 6918   6.339  10.029   9.435 -0.1173  0.0043  0.1384
  446DPPI   C3B 6919   6.336   9.861   9.072 -0.2143 -0.1240 -0.2706
  446DPPI   C4B 6920   6.413   9.938   8.620  0.2040  0.0406 -0.1947
  447DPPI    C1 6921   5.618  13.238  10.841  0.0925 -0.1680 -0.0536
  447DPPI    C2 6922   5.993  13.252  10.979  0.0670  0.1238 -0.0085
  447DPPI    C3 6923   5.714  13.046  11.178  0.1756  0.0063  0.0230
  447DPPI   PO4 6924   5.663  13.258  10.548 -0.0603 -0.3155 -0.0804
  447DPPI   GL1 6925   5.768  13.323  10.144  0.1147  0.3098  0.0909
  447DPPI   GL2 6926   5.645  12.916  10.263 -0.0563  0.2164  0.1241
  447DPPI   C1A 6927   5.776  13.335   9.690 -0.0894  0.2811 -0.1780
  447DPPI   C2A 6928   6.095  13.393   9.322 -0.0976 -0.1538  0.0402
  447DPPI   C3A 6929   6.295  13.685   8.935 -0.1531 -0.0731  0.0068
  447DPPI   C4A 6930   6.450  14.081   8.875  0.4150 -0.2052  0.0881
  447DPPI   C1B 6931   5.435  13.017   9.943  0.1792  0.1211  0.0607
  447DPPI   C2B 6932   5.298  13.014   9.570 -0.1132 -0.1507 -0.1827
  447DPPI   C3B 6933   5.476  13.219   9.248 -0.1656  0.1170 -0.0408
  447DPPI   C4B 6934   5.863  13.159   8.912  0.1405 -0.0896  0.0449
  448DPPI    C1 6935   1.908   5.925  10.820  0.1289  0.0261 -0.1064
  448DPPI    C2 6936   1.816   5.537  10.846 -0.1299  0.1068  0.2421
  448DPPI    C3 6937   2.101   5.691  11.081  0.1103  0.0911 -0.0340
  448DPPI   PO4 6938   1.793   5.951  10.563  0.1531 -0.1395  0.0163
  448DPPI   GL1 6939   1.641   6.204  10.272  0.2557  0.3644  0.0426
  448DPPI   GL2 6940   1.860   6.454  10.178 -0.0870 -0.0023 -0.2424
  448DPPI   C1A 6941   1.420   6.180   9.812  0.1638 -0.2427 -0.0757
  448DPPI   C2A 6942   1.473   6.459   9.426 -0.2653  0.0989 -0.0950
  448DPPI   C3A 6943   1.660   6.664   9.145 -0.0702  0.2080  0.3613
  448DPPI   C4A 6944   1.703   6.600   8.703 -0.0896  0.0773  0.0603
  448DPPI   C1B 6945   1.532   6.659   9.941 -0.3112  0.1771 -0.2658
  448DPPI   C2B 6946   1.446   6.909   9.682 -0.3676 -0.4071  0.0993
  448DPPI   C3B 6947   1.284   6.977   9.241  0.0521  0.1864  0.0783
  448DPPI   C4B 6948   1.124   6.931   8.915  0.0440 -0.0283  0.1837
  449DPPI    C1 6949  10.505  16.348  11.105 -0.0401 -0.1716  0.1036
  449DPPI    C2 6950  10.168  16.523  11.231  0.0678  0.0102  0.1444
  449DPPI    C3 6951  10.363  16.268  11.470 -0.0512 -0.1117  0.1125
  449DPPI   PO4 6952  10.475  16.431  10.843 -0.3722  0.5475  0.0382
  449DPPI   GL1 6953  10.333  16.314  10.507  0.0364 -0.3931  0.1957
  449DPPI   GL2 6954  10.422  16.058  10.349  0.0560  0.2017  0.3725
  449DPPI   C1A 6955  10.129  16.392  10.094 -0.0810 -0.0127  0.0744
  449DPPI   C2A 6956  10.110  16.540   9.624  0.0129  0.2305 -0.0156
  449DPPI   C3A 6957  10.202  16.586   9.123 -0.3128 -0.2621 -0.1721
  449DPPI   C4A 6958  10.176  16.191   8.791 -0.0809 -0.0476  0.0556
  449DPPI   C1B 6959  10.656  16.139  10.032 -0.1745  0.1916  0.3426
  449DPPI   C2B 6960  10.498  16.182   9.613 -0.3694  0.0097  0.1691
  449DPPI   C3B 6961  10.416  16.110   9.183 -0.2720 -0.3824 -0.2837
  449DPPI   C4B 6962  10.731  15.940   8.869  0.0688  0.0108 -0.2597
  450DPPI    C1 6963   8.715  12.364  10.817 -0.1742 -0.0307  0.2687
  450DPPI    C2 6964   9.076  12.519  10.891  0.0185 -0.2644 -0.1483
  450DPPI    C3 6965   8.870  12.344  11.185  0.1253  0.1032  0.1537
  450DPPI   PO4 6966   8.679  12.518  10.647  0.1997 -0.1285  0.1172
  450DPPI   GL1 6967   8.784  12.575  10.133 -0.1488 -0.4274 -0.2281
  450DPPI   GL2 6968   8.961  12.910  10.108 -0.2138  0.0038 -0.2602
  450DPPI   C1A 6969   8.425  12.494   9.773 -0.2084 -0.1185 -0.0669
  450DPPI   C2A 6970   8.318  12.443   9.332 -0.2508 -0.2155 -0.0863
  450DPPI   C3A 6971   8.185  12.547   8.994 -0.0286 -0.0477 -0.1793
  450DPPI   C4A 6972   8.371  12.705   8.524 -0.0817 -0.2260 -0.1204
  450DPPI   C1B 6973   8.824  12.863   9.630  0.1184 -0.1254  0.1482
  450DPPI   C2B 6974   8.907  12.640   9.333 -0.2046 -0.5037 -0.1719
  450DPPI   C3B 6975   8.829  12.574   8.998  0.0844  0.0305  0.0589
  450DPPI   C4B 6976   8.552  12.342   8.749 -0.1588 -0.2439 -0.2479
  451DPPI    C1 6977   6.745   4.994  10.660 -0.2303  0.0027 -0.3950
  451DPPI    C2 6978   6.569   5.352  10.685 -0.1131  0.0579 -0.3524
  451DPPI    C3 6979   6.644   5.142  11.018  0.1806  0.1723 -0.3439
  451DPPI   PO4 6980   6.884   4.994  10.421  0.0986 -0.1979  0.0448
  451DPPI   GL1 6981   6.727   5.048  10.034  0.4288  0.0485  0.2458
  451DPPI   GL2 6982   7.026   5.124   9.898 -0.1874 -0.0406  0.0032
  451DPPI   C1A 6983   6.503   5.040   9.586 -0.2323  0.0355 -0.1394
  451DPPI   C2A 6984   6.587   4.981   9.215 -0.1815 -0.1675  0.0423
  451DPPI   C3A 6985   6.882   4.762   9.044 -0.1427 -0.2475 -0.1191
  451DPPI   C4A 6986   6.809   4.661   8.626  0.4721 -0.1916 -0.0078
  451DPPI   C1B 6987   6.986   5.114   9.515  0.2002 -0.1012 -0.0437
  451DPPI   C2B 6988   6.965   5.289   9.080 -0.0208  0.3010  0.0135
  451DPPI   C3B 6989   6.700   5.410   8.713 -0.0281  0.2289  0.2039
  451DPPI   C4B 6990   6.757   5.690   8.313  0.2006  0.0989 -0.2554
  452DPPI    C1 6991   0.943   0.646  10.914 -0.1896  0.0103  0.0009
  452DPPI    C2 6992   0.734   0.823  11.205 -0.0893 -0.0769  0.1275
  452DPPI    C3 6993   1.123   0.749  11.256 -0.0701 -0.0889 -0.0314
  452DPPI   PO4 6994   0.892   0.782  10.710 -0.0585  0.0701  0.1568
  452DPPI   GL1 6995   0.731   0.813  10.300 -0.4133  0.1019 -0.2894
  452DPPI   GL2 6996   0.762   0.489  10.332 -0.0660  0.1891  0.3176
  452DPPI   C1A 6997   0.502   0.701   9.832 -0.0833  0.0762  0.3956
  452DPPI   C2A 6998   0.467   0.663   9.409 -0.2329  0.0545  0.0531
  452DPPI   C3A 6999   0.589   0.645   8.941 -0.1855  0.1418  0.0470
  452DPPI   C4A 7000   0.717   0.848   8.513 -0.2904  0.1173 -0.2921
  452DPPI   C1B 7001   0.726   0.243  10.070  0.0245  0.0566 -0.0302
  452DPPI   C2B 7002   0.639   0.235   9.650  0.3335 -0.0325 -0.0358
  452DPPI   C3B 7003   0.570   0.218   9.268  0.0299  0.2895 -0.1986
  452DPPI   C4B 7004   0.338  -0.018   9.041 -0.2265  0.0405  0.0578
  453DPPI    C1 7005   1.999   7.036  10.653 -0.1595  0.3192  0.1162
  453DPPI    C2 7006   2.343   7.138  10.830  0.0408  0.2416 -0.2169
  453DPPI    C3 7007   2.124   6.836  10.975  0.2249  0.1479 -0.1320
  453DPPI   PO4 7008   1.887   7.243  10.664  0.0599  0.1575 -0.0282
  453DPPI   GL1 7009   1.616   7.426  10.355  0.1858 -0.1071 -0.1742
  453DPPI   GL2 7010   1.753   7.730  10.278 -0.0699  0.0336 -0.0969
  453DPPI   C1A 7011   1.757   7.228   9.963 -0.0605  0.2685  0.0535
  453DPPI   C2A 7012   1.807   7.307   9.530 -0.3079  0.0966  0.2080
  453DPPI   C3A 7013   1.762   7.143   9.088  0.3295  0.5266 -0.4948
  453DPPI   C4A 7014   1.546   7.059   8.788 -0.0487  0.1911  0.2258
  453DPPI   C1B 7015   1.737   7.762   9.864 -0.0149  0.2989  0.1995
  453DPPI   C2B 7016   1.686   7.789   9.435 -0.1260 -0.2044  0.1947
  453DPPI   C3B 7017   1.897   7.604   9.078  0.0256 -0.0731 -0.0021
  453DPPI   C4B 7018   1.984   7.703   8.563 -0.3570 -0.1573 -0.2504
  454DPPI    C1 7019  13.371   5.449  10.539  0.1232 -0.0642  0.1077
  454DPPI    C2 7020  13.486   5.605  10.889  0.2363  0.1261 -0.0125
  454DPPI    C3 7021  13.747   5.401  10.667  0.0813 -0.2688  0.1583
  454DPPI   PO4 7022  13.163   5.601  10.453  0.1038 -0.2467 -0.0107
  454DPPI   GL1 7023  13.233   5.708   9.991 -0.0286 -0.0452 -0.0263
  454DPPI   GL2 7024  13.538   5.674  10.012  0.1839 -0.0252 -0.0982
  454DPPI   C1A 7025  13.009   5.512   9.597  0.3418 -0.0265  0.1300
  454DPPI   C2A 7026  13.009   5.713   9.122 -0.5223 -0.1463  0.0559
  454DPPI   C3A 7027  12.920   5.825   8.706 -0.3904 -0.1145  0.1050
  454DPPI   C4A 7028  12.829   5.893   8.300  0.0017  0.2215 -0.1165
  454DPPI   C1B 7029  13.595   5.734   9.615  0.2507  0.1176 -0.1576
  454DPPI   C2B 7030  13.369   5.984   9.379  0.0411  0.0655 -0.1520
  454DPPI   C3B 7031  13.040   6.042   9.585  0.1566 -0.1445  0.5441
  454DPPI   C4B 7032  12.753   5.903   9.983 -0.0492  0.1633 -0.0743
  455DPPI    C1 7033   6.043   4.641  10.517 -0.0586  0.1722 -0.2738
  455DPPI    C2 7034   5.999   4.990  10.708 -0.2346 -0.0522  0.1065
  455DPPI    C3 7035   6.325   4.767  10.771 -0.2312 -0.0651  0.0435
  455DPPI   PO4 7036   6.053   4.600  10.262  0.3280  0.1478  0.2217
  455DPPI   GL1 7037   6.233   4.647   9.929  0.1652 -0.2637  0.1110
  455DPPI   GL2 7038   6.096   4.896   9.879  0.0219  0.0870 -0.0503
  455DPPI   C1A 7039   6.063   4.419   9.620 -0.1707  0.1995 -0.0842
  455DPPI   C2A 7040   6.103   4.319   9.176  0.2076 -0.3028  0.0455
  455DPPI   C3A 7041   5.958   4.114   8.771 -0.1812  0.0767 -0.0674
  455DPPI   C4A 7042   5.997   4.119   8.465  0.2815  0.1567  0.0319
  455DPPI   C1B 7043   6.110   4.897   9.375  0.1777  0.1065  0.0960
  455DPPI   C2B 7044   6.158   4.841   8.999 -0.2922  0.0273  0.1018
  455DPPI   C3B 7045   6.450   4.961   8.717 -0.0272 -0.1049 -0.1201
  455DPPI   C4B 7046   6.498   4.753   8.245 -0.0965 -0.5226  0.0847
  456DPPI    C1 7047   8.072   4.204  10.773 -0.1368  0.1189 -0.0877
  456DPPI    C2 7048   8.123   4.359  11.138  0.1220 -0.3018  0.0630
  456DPPI    C3 7049   7.942   4.005  11.095 -0.0566 -0.1784 -0.2350
  456DPPI   PO4 7050   7.963   4.310  10.597 -0.0266  0.3044 -0.4123
  456DPPI   GL1 7051   7.903   4.137  10.267  0.2520 -0.0512 -0.1684
  456DPPI   GL2 7052   8.108   3.879  10.358  0.1053  0.0538 -0.0595
  456DPPI   C1A 7053   7.839   4.207   9.789  0.2556 -0.1617 -0.0818
  456DPPI   C2A 7054   7.774   4.047   9.343  0.0634 -0.2960  0.3037
  456DPPI   C3A 7055   7.970   4.053   8.928 -0.0265 -0.0365  0.1763
  456DPPI   C4A 7056   8.049   4.240   8.446 -0.0577  0.1828 -0.0104
  456DPPI   C1B 7057   7.936   3.772   9.924 -0.1969  0.2058  0.0705
  456DPPI   C2B 7058   7.741   3.634   9.583  0.1167 -0.2458  0.2535
  456DPPI   C3B 7059   7.822   3.538   9.124 -0.1235  0.1350  0.0359
  456DPPI   C4B 7060   7.884   3.588   8.739 -0.0755  0.2783 -0.2256
  457DPPI    C1 7061   9.541  12.715  10.945  0.0497 -0.0574  0.1328
  457DPPI    C2 7062   9.298  12.988  11.108 -0.0269  0.0274 -0.1194
  457DPPI    C3 7063   9.464  12.706  11.338 -0.2024  0.0913  0.0891
  457DPPI   PO4 7064   9.524  12.762  10.689 -0.0498 -0.1192  0.0604
  457DPPI   GL1 7065   9.393  12.621  10.251 -0.1866 -0.2386 -0.3370
  457DPPI   GL2 7066   9.720  12.609  10.203  0.0885  0.3795 -0.1749
  457DPPI   C1A 7067   9.391  12.637   9.787 -0.0796 -0.1068  0.1400
  457DPPI   C2A 7068   9.380  12.597   9.217  0.0715  0.0406 -0.0826
  457DPPI   C3A 7069   9.341  12.523   8.789  0.0754  0.1412  0.1542
  457DPPI   C4A 7070   9.304  12.481   8.330  0.0875 -0.0233  0.1726
  457DPPI   C1B 7071   9.912  12.793   9.751  0.1375  0.0516 -0.0662
  457DPPI   C2B 7072   9.933  12.765   9.320  0.0986  0.0037 -0.1481
  457DPPI   C3B 7073   9.817  12.655   8.941 -0.0109 -0.0133 -0.0048
  457DPPI   C4B 7074   9.972  12.531   8.585 -0.0860 -0.1197 -0.1466
  458DPPI    C1 7075   6.267   6.070  10.558 -0.1653  0.1985 -0.0863
  458DPPI    C2 7076   6.243   5.780  10.832 -0.0371  0.1298 -0.1468
  458DPPI    C3 7077   5.980   6.081  10.836 -0.1139  0.0620 -0.0267
  458DPPI   PO4 7078   6.285   6.003  10.343 -0.1142 -0.2062  0.3548
  458DPPI   GL1 7079   6.520   5.965   9.909 -0.2050 -0.4613  0.4201
  458DPPI   GL2 7080   6.223   5.941   9.856 -0.3893  0.0181 -0.0620
  458DPPI   C1A 7081   6.475   6.228   9.506 -0.1150  0.3123  0.1301
  458DPPI   C2A 7082   6.214   6.272   9.155 -0.1208 -0.1468  0.3571
  458DPPI   C3A 7083   6.262   6.534   8.777 -0.1100 -0.1536  0.1073
  458DPPI   C4A 7084   6.419   6.589   8.431  0.1291  0.0299  0.0833
  458DPPI   C1B 7085   6.070   5.893   9.475  0.3195  0.2610 -0.4104
  458DPPI   C2B 7086   6.104   5.785   8.968  0.1007  0.0891 -0.0385
  458DPPI   C3B 7087   6.397   5.973   8.589  0.1187  0.0935  0.1796
  458DPPI   C4B 7088   6.349   6.042   8.168  0.1105 -0.0632  0.3376
  459DPPI    C1 7089   8.576   5.784  10.689 -0.1424  0.2764  0.1663
  459DPPI    C2 7090   8.192   5.727  10.785 -0.1182 -0.1314  0.0408
  459DPPI    C3 7091   8.481   5.562  11.008 -0.0080  0.2514  0.1897
  459DPPI   PO4 7092   8.556   5.757  10.343 -0.2506 -0.2629  0.3608
  459DPPI   GL1 7093   8.275   5.891   9.968 -0.2055  0.0431 -0.1193
  459DPPI   GL2 7094   8.086   6.081   9.698 -0.3532  0.0079 -0.2972
  459DPPI   C1A 7095   8.428   5.662   9.551 -0.1299 -0.0307  0.0322
  459DPPI   C2A 7096   8.492   5.534   9.228  0.1592  0.1586  0.1806
  459DPPI   C3A 7097   8.520   5.628   8.776  0.0622  0.2646  0.2129
  459DPPI   C4A 7098   8.068   5.581   8.446  0.2353  0.4372 -0.3653
  459DPPI   C1B 7099   8.147   5.987   9.295  0.3036 -0.2310 -0.4014
  459DPPI   C2B 7100   8.069   5.868   8.902  0.2123 -0.0181  0.0688
  459DPPI   C3B 7101   8.310   6.027   8.603 -0.0198 -0.1551  0.1595
  459DPPI   C4B 7102   8.325   5.987   8.172 -0.1218  0.1871 -0.0619
  460DPPI    C1 7103   8.143  16.303  11.321  0.0386 -0.1318  0.2952
  460DPPI    C2 7104   7.839  16.100  11.482  0.1585 -0.3016  0.3101
  460DPPI    C3 7105   8.211  16.043  11.617  0.2162 -0.2024  0.1941
  460DPPI   PO4 7106   8.058  16.291  11.085 -0.0757  0.0254  0.0330
  460DPPI   GL1 7107   8.239  16.245  10.698 -0.0408  0.1550 -0.2960
  460DPPI   GL2 7108   8.453  16.040  10.492 -0.2651  0.2462 -0.1986
  460DPPI   C1A 7109   8.016  16.327  10.261  0.0196 -0.3540 -0.0905
  460DPPI   C2A 7110   8.143  16.221   9.867  0.1737  0.0478  0.2596
  460DPPI   C3A 7111   8.253  16.073   9.406  0.2212  0.0370 -0.1853
  460DPPI   C4A 7112   8.328  16.140   9.052  0.1554 -0.0571  0.0246
  460DPPI   C1B 7113   8.497  15.921   9.973  0.0989  0.2731 -0.1198
  460DPPI   C2B 7114   8.630  15.773   9.581  0.1214  0.0167  0.1547
  460DPPI   C3B 7115   8.634  15.641   9.188  0.0968  0.1575  0.1217
  460DPPI   C4B 7116   8.981  15.819   8.864  0.0159 -0.1946 -0.0132
  461DPPI    C1 7117   5.248   3.769  10.643  0.1224  0.1039 -0.0353
  461DPPI    C2 7118   4.976   3.965  10.861 -0.1005 -0.0221 -0.1958
  461DPPI    C3 7119   5.221   3.702  11.037 -0.0710  0.1024 -0.0480
  461DPPI   PO4 7120   5.296   4.041  10.484  0.0202  0.3463 -0.1850
  461DPPI   GL1 7121   5.131   4.117  10.042 -0.0453 -0.0064 -0.1023
  461DPPI   GL2 7122   5.434   4.203   9.965 -0.1630 -0.1051 -0.2068
  461DPPI   C1A 7123   5.106   4.025   9.591  0.1720 -0.1955 -0.2581
  461DPPI   C2A 7124   5.061   3.781   9.170 -0.1145 -0.0905  0.1661
  461DPPI   C3A 7125   5.157   3.561   8.774 -0.1179 -0.0952 -0.0113
  461DPPI   C4A 7126   5.173   3.594   8.302 -0.1534 -0.1071 -0.1716
  461DPPI   C1B 7127   5.584   4.211   9.651  0.3187  0.0462 -0.3300
  461DPPI   C2B 7128   5.645   4.129   9.197  0.1131  0.1719 -0.0245
  461DPPI   C3B 7129   5.368   4.030   8.938 -0.0847  0.1174  0.3807
  461DPPI   C4B 7130   5.383   4.060   8.471 -0.0636 -0.2606  0.1532
  462DPPI    C1 7131  12.868  11.300  11.010 -0.1915 -0.2496  0.1258
  462DPPI    C2 7132  12.485  11.368  10.919 -0.2534 -0.2701  0.3627
  462DPPI    C3 7133  12.652  11.555  11.230 -0.0331 -0.1640  0.1832
  462DPPI   PO4 7134  12.881  11.051  10.923 -0.1361 -0.2050  0.1589
  462DPPI   GL1 7135  12.707  10.957  10.454  0.3124 -0.1470  0.2461
  462DPPI   GL2 7136  12.999  10.747  10.381 -0.1313 -0.2149  0.1023
  462DPPI   C1A 7137  12.361  10.789  10.099  0.0897  0.1567  0.0468
  462DPPI   C2A 7138  12.302  10.989   9.743  0.0648 -0.2309 -0.2232
  462DPPI   C3A 7139  12.233  10.892   9.353  0.1882 -0.2665  0.0558
  462DPPI   C4A 7140  12.267  10.623   9.090  0.3613 -0.0887 -0.0378
  462DPPI   C1B 7141  13.254  11.047   9.982  0.1757  0.2759 -0.1160
  462DPPI   C2B 7142  13.123  11.469   9.751  0.0894  0.1718 -0.1732
  462DPPI   C3B 7143  12.971  11.706   9.506  0.1790  0.1566  0.0373
  462DPPI   C4B 7144  12.949  11.833   9.032  0.1446 -0.0715 -0.0804
  463DPPI    C1 7145  16.668   5.153  10.715 -0.2679  0.1315  0.0597
  463DPPI    C2 7146  16.611   5.403  11.022  0.3152  0.2248  0.1040
  463DPPI    C3 7147  16.909   5.136  11.034 -0.0242 -0.1782 -0.1338
  463DPPI   PO4 7148  16.694   5.306  10.504  0.0043  0.0546 -0.3483
  463DPPI   GL1 7149  16.362   5.433  10.178  0.0460  0.0122 -0.2269
  463DPPI   GL2 7150  16.062   5.501  10.001 -0.0006 -0.1725 -0.1617
  463DPPI   C1A 7151  16.513   5.262   9.774  0.0939 -0.1121 -0.0371
  463DPPI   C2A 7152  16.652   5.160   9.369 -0.2745  0.0311 -0.3454
  463DPPI   C3A 7153  16.688   5.115   8.908 -0.0971 -0.3034  0.1369
  463DPPI   C4A 7154  16.645   5.318   8.457 -0.4592  0.1358  0.0236
  463DPPI   C1B 7155  16.082   5.332   9.507  0.1529 -0.1402 -0.0032
  463DPPI   C2B 7156  16.284   5.469   9.176 -0.2597 -0.3618  0.2383
  463DPPI   C3B 7157  16.493   5.703   8.739  0.2471 -0.1014  0.0900
  463DPPI   C4B 7158  16.583   5.793   8.316 -0.2243  0.1896 -0.0530
  464DPPI    C1 7159  11.766  12.177  10.924 -0.1931 -0.0336 -0.1659
  464DPPI    C2 7160  11.515  11.974  11.160 -0.1498 -0.1001 -0.1767
  464DPPI    C3 7161  11.910  11.917  11.192 -0.1261  0.1237 -0.0476
  464DPPI   PO4 7162  11.609  12.181  10.686 -0.1697 -0.0858  0.1332
  464DPPI   GL1 7163  11.346  11.802  10.535  0.0975  0.1862  0.2012
  464DPPI   GL2 7164  11.040  11.522  10.553  0.0816  0.0042 -0.0233
  464DPPI   C1A 7165  11.224  11.914  10.119 -0.1235 -0.0550  0.0466
  464DPPI   C2A 7166  11.195  11.815   9.728 -0.0690 -0.1971  0.1284
  464DPPI   C3A 7167  11.269  11.883   9.323 -0.1422 -0.0700  0.0673
  464DPPI   C4A 7168  11.435  11.870   8.934  0.0098 -0.0755  0.0274
  464DPPI   C1B 7169  11.077  11.434  10.071  0.1716  0.2015  0.2248
  464DPPI   C2B 7170  10.934  11.384   9.693 -0.1786 -0.2943  0.2941
  464DPPI   C3B 7171  10.974  11.468   9.320  0.2359  0.0042  0.1437
  464DPPI   C4B 7172  10.989  11.686   8.964  0.0550  0.2122 -0.0466
  465DPPI    C1 7173   0.850  11.585  10.749  0.0221 -0.2095 -0.1197
  465DPPI    C2 7174   1.249  11.550  10.746  0.0671  0.2408 -0.1462
  465DPPI    C3 7175   1.057  11.620  11.090 -0.0230 -0.2582 -0.0873
  465DPPI   PO4 7176   0.866  11.724  10.506 -0.2655  0.3870  0.0873
  465DPPI   GL1 7177   0.650  11.690  10.126  0.1088  0.3728  0.2170
  465DPPI   GL2 7178   0.345  11.603  10.094  0.0262 -0.0273 -0.1326
  465DPPI   C1A 7179   0.689  11.871   9.651  0.0765 -0.0530 -0.0981
  465DPPI   C2A 7180   0.541  11.888   9.371  0.4126  0.1417  0.1773
  465DPPI   C3A 7181   0.832  11.779   8.973  0.3764 -0.2977 -0.2811
  465DPPI   C4A 7182   0.800  11.485   8.651  0.2776  0.0577  0.2646
  465DPPI   C1B 7183   0.428  11.459   9.596 -0.0979 -0.2939  0.2259
  465DPPI   C2B 7184   0.525  11.374   9.136  0.0076  0.0163 -0.2681
  465DPPI   C3B 7185   0.628  11.053   8.795  0.0361  0.1217 -0.1674
  465DPPI   C4B 7186   0.694  11.110   8.325 -0.0299  0.0875 -0.1551
  466DPPI    C1 7187  13.209  16.078  11.061 -0.1751  0.1636 -0.0312
  466DPPI    C2 7188  13.212  15.811  11.359  0.4669  0.1421 -0.0443
  466DPPI    C3 7189  13.227  16.202  11.441  0.0648  0.1600 -0.0399
  466DPPI   PO4 7190  13.404  16.000  10.827  0.2894 -0.2661 -0.0146
  466DPPI   GL1 7191  13.508  15.817  10.440  0.4525 -0.1559 -0.1715
  466DPPI   GL2 7192  13.252  15.663  10.389 -0.2630 -0.3286  0.2928
  466DPPI   C1A 7193  13.652  15.717  10.079  0.0136  0.2373  0.1589
  466DPPI   C2A 7194  13.581  15.660   9.653 -0.0320 -0.1778 -0.1406
  466DPPI   C3A 7195  13.526  15.761   9.254 -0.1524  0.1116  0.1483
  466DPPI   C4A 7196  13.512  15.570   8.765  0.0274 -0.1705  0.2653
  466DPPI   C1B 7197  13.183  15.838   9.899 -0.0334 -0.0017  0.2015
  466DPPI   C2B 7198  13.160  15.975   9.468 -0.0595  0.4770  0.3198
  466DPPI   C3B 7199  13.038  15.964   9.053 -0.0828  0.0587  0.0465
  466DPPI   C4B 7200  12.916  15.902   8.658  0.0741 -0.1802 -0.0399
  467DPPI    C1 7201  16.708   2.942  10.862 -0.1399  0.1441 -0.2266
  467DPPI    C2 7202  16.402   3.183  10.950 -0.0486  0.1636  0.0454
  467DPPI    C3 7203  16.497   2.883  11.196  0.1389  0.1460 -0.0473
  467DPPI   PO4 7204  16.824   3.030  10.656 -0.1576 -0.1803 -0.2549
  467DPPI   GL1 7205  16.956   2.893  10.380  0.1143 -0.0404  0.1679
  467DPPI   GL2 7206  17.231   2.723  10.256 -0.0839  0.0352  0.1365
  467DPPI   C1A 7207  16.706   2.786   9.991  0.0375 -0.3885  0.1089
  467DPPI   C2A 7208  16.746   2.772   9.510 -0.0093 -0.1097  0.3498
  467DPPI   C3A 7209  16.669   2.665   9.081 -0.2235 -0.0004  0.0689
  467DPPI   C4A 7210  16.622   2.597   8.612 -0.1425 -0.0627  0.0683
  467DPPI   C1B 7211  17.184   2.649   9.896 -0.2283 -0.1288 -0.0761
  467DPPI   C2B 7212  17.182   2.514   9.558  0.0287 -0.2237  0.3511
  467DPPI   C3B 7213  17.208   2.550   9.124  0.1669 -0.1783 -0.0359
  467DPPI   C4B 7214  16.983   2.276   8.831 -0.4749  0.0452 -0.2783
  468DPPI    C1 7215  15.308  13.902  11.048 -0.0415  0.2624  0.0692
  468DPPI    C2 7216  15.417  13.595  11.279  0.0521  0.1918 -0.0674
  468DPPI    C3 7217  15.127  13.843  11.400  0.0498  0.1130  0.0916
  468DPPI   PO4 7218  15.369  13.783  10.790  0.0201 -0.0301 -0.2957
  468DPPI   GL1 7219  15.273  13.505  10.417 -0.2441  0.1079 -0.1920
  468DPPI   GL2 7220  15.664  13.508  10.416 -0.2118 -0.2220  0.1748
  468DPPI   C1A 7221  15.216  13.548  10.018  0.1003 -0.2774  0.4704
  468DPPI   C2A 7222  15.154  13.551   9.576 -0.0363 -0.1912 -0.1386
  468DPPI   C3A 7223  14.788  13.481   9.373  0.0697 -0.3048  0.0093
  468DPPI   C4A 7224  14.646  13.356   8.967  0.3127 -0.1447 -0.0315
  468DPPI   C1B 7225  15.666  13.458  10.027 -0.0179 -0.1677 -0.0461
  468DPPI   C2B 7226  15.740  13.498   9.661 -0.1718  0.1897 -0.1484
  468DPPI   C3B 7227  15.545  13.596   9.253  0.4060  0.0063 -0.0297
  468DPPI   C4B 7228  15.141  13.601   8.998 -0.2364  0.2323  0.0111
  469DPPI    C1 7229   4.922   1.699  10.846  0.0398 -0.1773  0.0733
  469DPPI    C2 7230   5.153   1.550  11.138  0.1731  0.2587  0.1985
  469DPPI    C3 7231   4.870   1.820  11.224  0.2807  0.4680 -0.0861
  469DPPI   PO4 7232   4.866   1.537  10.720 -0.2223  0.0395  0.1627
  469DPPI   GL1 7233   4.957   1.481  10.282 -0.0146  0.0840 -0.1050
  469DPPI   GL2 7234   4.708   1.620  10.256  0.3636 -0.0862  0.1417
  469DPPI   C1A 7235   5.105   1.353   9.910  0.0741  0.0283  0.0784
  469DPPI   C2A 7236   5.294   1.361   9.529  0.0491 -0.0079  0.0635
  469DPPI   C3A 7237   5.129   1.184   9.113 -0.2405 -0.2774  0.3376
  469DPPI   C4A 7238   4.825   0.889   8.960  0.0375 -0.1601 -0.2111
  469DPPI   C1B 7239   4.683   1.679   9.851 -0.3259 -0.2241  0.1490
  469DPPI   C2B 7240   4.717   1.778   9.439 -0.1520 -0.1805 -0.0595
  469DPPI   C3B 7241   5.026   1.677   9.177 -0.0968  0.1112  0.5545
  469DPPI   C4B 7242   5.211   1.715   8.827 -0.0479 -0.0126 -0.4051
  470DPPI    C1 7243  12.355   0.629  11.133 -0.0288 -0.1102  0.0088
  470DPPI    C2 7244  12.731   0.595  11.267  0.0353  0.0237 -0.1322
  470DPPI    C3 7245  12.434   0.679  11.522  0.0973 -0.1007 -0.0175
  470DPPI   PO4 7246  12.371   0.807  10.934  0.3838  0.0248  0.2053
  470DPPI   GL1 7247  12.359   0.763  10.517  0.0075 -0.1766  0.0378
  470DPPI   GL2 7248  12.506   1.088  10.490 -0.1116  0.1112  0.3169
  470DPPI   C1A 7249  12.383   0.531  10.107 -0.0905 -0.2540 -0.1613
  470DPPI   C2A 7250  12.350   0.581   9.673 -0.1597  0.0890  0.2248
  470DPPI   C3A 7251  12.053   0.511   9.368 -0.0202 -0.0302 -0.1690
  470DPPI   C4A 7252  12.095   0.164   9.168 -0.0418  0.1534  0.0276
  470DPPI   C1B 7253  12.609   0.962  10.087 -0.0143  0.2022 -0.0941
  470DPPI   C2B 7254  12.555   1.004   9.685 -0.1989  0.1299 -0.1719
  470DPPI   C3B 7255  12.470   0.923   9.284  0.1786  0.0027 -0.2091
  470DPPI   C4B 7256  12.395   0.520   8.952 -0.3471 -0.0797 -0.3161
  471DPPI    C1 7257   1.665   7.782  10.855 -0.0617 -0.0959  0.0914
  471DPPI    C2 7258   1.291   7.748  10.717  0.0645 -0.0622 -0.2696
  471DPPI    C3 7259   1.470   7.434  10.888 -0.1807 -0.0340  0.0503
  471DPPI   PO4 7260   1.764   7.960  10.684 -0.0554 -0.2799 -0.0467
  471DPPI   GL1 7261   1.824   8.327  10.430 -0.0179 -0.2261  0.0684
  471DPPI   GL2 7262   2.072   8.455  10.368 -0.0005  0.2085 -0.0714
  471DPPI   C1A 7263   1.707   8.374   9.941  0.0016  0.0331 -0.1309
  471DPPI   C2A 7264   1.603   8.316   9.591 -0.1239  0.0946 -0.0716
  471DPPI   C3A 7265   1.719   8.257   9.280  0.1762 -0.0929  0.2920
  471DPPI   C4A 7266   1.747   8.042   8.836  0.1768 -0.0412  0.0703
  471DPPI   C1B 7267   2.115   8.682   9.992  0.1822 -0.0175  0.1536
  471DPPI   C2B 7268   2.021   8.661   9.600  0.0462 -0.0786  0.1089
  471DPPI   C3B 7269   2.103   8.616   9.096 -0.0896  0.3303  0.0337
  471DPPI   C4B 7270   2.392   8.802   8.811 -0.1954  0.2278 -0.2474
  472DPPI    C1 7271   8.369   7.463  11.020  0.0157 -0.0002 -0.0372
  472DPPI    C2 7272   8.567   7.148  11.167  0.1342 -0.0415 -0.2804
  472DPPI    C3 7273   8.298   7.339  11.393  0.0730 -0.3069 -0.1257
  472DPPI   PO4 7274   8.588   7.534  10.845 -0.1367 -0.3031 -0.0990
  472DPPI   GL1 7275   8.575   7.665  10.387  0.0741 -0.0908 -0.0387
  472DPPI   GL2 7276   8.822   7.428  10.423 -0.1051  0.0581  0.2214
  472DPPI   C1A 7277   8.726   7.573   9.918 -0.1842 -0.2422 -0.1919
  472DPPI   C2A 7278   8.781   7.702   9.479  0.0077  0.2740 -0.1077
  472DPPI   C3A 7279   8.849   7.832   9.070  0.3537 -0.3670 -0.0446
  472DPPI   C4A 7280   8.935   7.740   8.605 -0.1173  0.0405 -0.1235
  472DPPI   C1B 7281   8.889   7.100  10.117 -0.0070  0.0409  0.0868
  472DPPI   C2B 7282   8.907   7.160   9.705  0.3094 -0.3826  0.0808
  472DPPI   C3B 7283   8.918   7.260   9.327  0.0453  0.0313  0.0573
  472DPPI   C4B 7284   9.006   7.392   8.946 -0.0588  0.1920 -0.1272
  473PYPI    C1 7285  14.410  17.811  11.274 -0.1815  0.2854  0.0641
  473PYPI    C2 7286  14.724  17.939  11.485 -0.1489  0.1117  0.1218
  473PYPI    C3 7287  14.388  17.831  11.672 -0.0978 -0.1041  0.0920
  473PYPI   PO4 7288  14.606  17.660  11.060  0.0142 -0.0254 -0.0078
  473PYPI   GL1 7289  14.702  17.783  10.576 -0.1303 -0.0039 -0.1730
  473PYPI   GL2 7290  14.317  17.854  10.709  0.0435 -0.1118  0.1574
  473PYPI   C1A 7291  14.481  18.279  10.350 -0.1531  0.0350  0.1836
  473PYPI   C2A 7292  14.309  18.225   9.949  0.2072  0.1634 -0.0786
  473PYPI   D3A 7293  14.055  17.833   9.729 -0.1273 -0.1399  0.0386
  473PYPI   C4A 7294  14.008  17.712   9.276 -0.0487 -0.2211 -0.0962
  473PYPI   C1B 7295  14.349  17.804  10.256 -0.5452 -0.1303 -0.1836
  473PYPI   C2B 7296  14.577  17.836   9.842  0.0600  0.1342 -0.0181
  473PYPI   C3B 7297  14.553  17.904   9.296  0.0813 -0.0397  0.0988
  473PYPI   C4B 7298  14.367  17.767   8.872 -0.1317  0.1918 -0.4996
  474PYPI    C1 7299   5.554   7.260  10.916  0.0120 -0.0065  0.1339
  474PYPI    C2 7300   5.436   6.896  10.798  0.2402 -0.0439  0.0164
  474PYPI    C3 7301   5.283   7.058  11.130 -0.0522 -0.1393 -0.0692
  474PYPI   PO4 7302   5.552   7.398  10.620 -0.2163 -0.2068 -0.0230
  474PYPI   GL1 7303   5.848   7.464  10.247  0.1682  0.0733  0.2905
  474PYPI   GL2 7304   6.019   7.205  10.032  0.0036 -0.2485  0.0676
  474PYPI   C1A 7305   5.690   7.630   9.849  0.0761  0.0451 -0.1250
  474PYPI   C2A 7306   5.726   7.674   9.405 -0.0382  0.0274 -0.2062
  474PYPI   D3A 7307   5.791   8.033   9.106 -0.0313 -0.0452 -0.2200
  474PYPI   C4A 7308   5.764   8.130   8.712  0.1961 -0.0509  0.1548
  474PYPI   C1B 7309   6.075   7.099   9.564  0.0013 -0.0979 -0.0900
  474PYPI   C2B 7310   6.139   7.327   9.290 -0.0020 -0.2653 -0.0029
  474PYPI   C3B 7311   6.018   7.582   8.934  0.0256  0.1355  0.0653
  474PYPI   C4B 7312   5.828   7.678   8.614 -0.3111  0.0593 -0.4127
  475PYPI    C1 7313   3.012  10.035  11.152 -0.1620  0.1325  0.1146
  475PYPI    C2 7314   2.961   9.785  11.460  0.0284  0.0206  0.0569
  475PYPI    C3 7315   3.290  10.011  11.438  0.0398 -0.0094 -0.0903
  475PYPI   PO4 7316   2.829   9.976  11.002 -0.0274  0.2503  0.5301
  475PYPI   GL1 7317   3.017   9.880  10.622 -0.3291 -0.0711  0.0386
  475PYPI   GL2 7318   3.162   9.936  10.330  0.1952  0.2380 -0.2254
  475PYPI   C1A 7319   2.749   9.749  10.272  0.0929  0.1848 -0.1288
  475PYPI   C2A 7320   2.527   9.436   9.996  0.2103  0.0218  0.2776
  475PYPI   D3A 7321   2.520   9.466   9.458 -0.0691 -0.1034 -0.2722
  475PYPI   C4A 7322   2.056   9.442   9.271 -0.5158 -0.0323 -0.2011
  475PYPI   C1B 7323   3.116  10.071   9.920  0.0862 -0.1904  0.0286
  475PYPI   C2B 7324   3.157   9.990   9.454  0.3529  0.0631  0.0969
  475PYPI   C3B 7325   3.109   9.970   9.094 -0.0118  0.2270  0.4699
  475PYPI   C4B 7326   2.749  10.186   8.852  0.3086 -0.3051  0.4303
  476PYPI    C1 7327  11.051   3.538  10.925  0.0361 -0.1891 -0.1099
  476PYPI    C2 7328  10.783   3.327  11.134 -0.0124  0.0156  0.0383
  476PYPI    C3 7329  10.960   3.645  11.300  0.2380 -0.0492 -0.0991
  476PYPI   PO4 7330  11.160   3.431  10.864  0.0849 -0.3121  0.2225
  476PYPI   GL1 7331  11.251   3.223  10.510 -0.4351 -0.2405 -0.0504
  476PYPI   GL2 7332  10.944   3.368  10.435 -0.3036 -0.4440 -0.1587
  476PYPI   C1A 7333  11.468   3.116  10.094 -0.0093 -0.0190 -0.5297
  476PYPI   C2A 7334  11.467   3.168   9.666  0.2197 -0.2692  0.0328
  476PYPI   D3A 7335  11.461   3.040   9.258  0.1490  0.1393  0.0055
  476PYPI   C4A 7336  11.417   3.004   8.881 -0.0673  0.0265 -0.0697
  476PYPI   C1B 7337  10.958   3.064  10.040  0.2620 -0.0189 -0.0364
  476PYPI   C2B 7338  11.016   3.051   9.571  0.0461  0.0012  0.0283
  476PYPI   C3B 7339  10.930   3.011   9.077  0.2804  0.1179 -0.0904
  476PYPI   C4B 7340  10.688   3.319   8.857  0.0294 -0.0243 -0.1616
  477PYPI    C1 7341  15.692   1.279  11.251 -0.0978 -0.0415 -0.0665
  477PYPI    C2 7342  15.795   0.894  11.222 -0.0317 -0.0221 -0.0931
  477PYPI    C3 7343  15.647   1.036  11.565 -0.0771 -0.0759 -0.0902
  477PYPI   PO4 7344  15.554   1.287  11.041 -0.1358 -0.0487  0.0812
  477PYPI   GL1 7345  15.347   1.378  10.663  0.2747  0.1025 -0.2489
  477PYPI   GL2 7346  15.094   1.527  10.702 -0.2176  0.1920 -0.0669
  477PYPI   C1A 7347  15.296   1.441  10.270 -0.2062  0.1210 -0.0327
  477PYPI   C2A 7348  15.086   1.799   9.991  0.0149  0.2519 -0.2366
  477PYPI   D3A 7349  14.809   2.128   9.911 -0.4224 -0.0916  0.2311
  477PYPI   C4A 7350  14.874   2.133   9.384 -0.0792 -0.0092  0.0299
  477PYPI   C1B 7351  15.231   1.915  10.524  0.0436  0.2894 -0.0449
  477PYPI   C2B 7352  15.307   2.252  10.151 -0.0645  0.1308  0.0539
  477PYPI   C3B 7353  15.274   2.168   9.713  0.1104 -0.3362 -0.1441
  477PYPI   C4B 7354  15.327   2.133   9.328 -0.1875  0.3741  0.2304
  478PYPI    C1 7355   8.734   9.772  10.985  0.1150 -0.0147  0.2150
  478PYPI    C2 7356   8.570  10.121  10.880  0.0198 -0.1007  0.0734
  478PYPI    C3 7357   8.365   9.864  11.108 -0.0026 -0.1641 -0.0178
  478PYPI   PO4 7358   8.772   9.689  10.671  0.0281  0.4418 -0.3913
  478PYPI   GL1 7359   8.972   9.689  10.292  0.2832 -0.0470 -0.1592
  478PYPI   GL2 7360   8.591   9.493  10.257  0.0594 -0.3399 -0.0481
  478PYPI   C1A 7361   8.907   9.856   9.971  0.2646  0.0939 -0.1062
  478PYPI   C2A 7362   8.698   9.924   9.566  0.2034  0.0048  0.2120
  478PYPI   D3A 7363   8.646  10.235   9.271 -0.0724  0.1276 -0.1378
  478PYPI   C4A 7364   8.727  10.231   8.800 -0.0212 -0.4283  0.0541
  478PYPI   C1B 7365   8.376   9.560   9.836 -0.0514  0.0288  0.0597
  478PYPI   C2B 7366   8.345   9.528   9.373 -0.0015 -0.1532 -0.0384
  478PYPI   C3B 7367   8.303   9.463   8.958 -0.2362  0.1379 -0.3478
  478PYPI   C4B 7368   8.502   9.314   8.649  0.1658  0.0100  0.0337
  479PYPI    C1 7369   0.922   2.806  10.775 -0.1710  0.2742  0.0628
  479PYPI    C2 7370   1.261   2.924  10.951 -0.0654  0.1688 -0.0679
  479PYPI    C3 7371   1.215   2.542  10.843 -0.2900  0.1485  0.0924
  479PYPI   PO4 7372   0.862   3.043  10.588  0.5031  0.1404 -0.0336
  479PYPI   GL1 7373   0.775   3.033  10.143 -0.2042  0.1552  0.1152
  479PYPI   GL2 7374   1.121   3.182   9.999  0.0027 -0.2272  0.2407
  479PYPI   C1A 7375   0.915   2.768   9.830  0.2336  0.2895  0.2454
  479PYPI   C2A 7376   0.872   2.737   9.425 -0.0513  0.0806  0.0729
  479PYPI   D3A 7377   1.022   2.852   8.989  0.3498 -0.0723 -0.1281
  479PYPI   C4A 7378   0.998   2.768   8.651  0.0612  0.0471 -0.0771
  479PYPI   C1B 7379   1.108   3.177   9.533  0.1923 -0.1685 -0.0205
  479PYPI   C2B 7380   1.086   3.377   9.182 -0.0286  0.1993 -0.2540
  479PYPI   C3B 7381   1.252   3.308   8.734 -0.0549  0.0943  0.3645
  479PYPI   C4B 7382   1.456   3.576   8.536  0.1909 -0.2764  0.4454
  480PYPI    C1 7383   3.794  11.601  10.912 -0.1161  0.0526 -0.1688
  480PYPI    C2 7384   4.114  11.781  11.069 -0.0893 -0.1753  0.0438
  480PYPI    C3 7385   3.764  11.790  11.263 -0.1814 -0.0359 -0.1262
  480PYPI   PO4 7386   4.039  11.382  10.727  0.1747  0.2219 -0.1242
  480PYPI   GL1 7387   4.207  11.525  10.281  0.0283  0.1425 -0.1882
  480PYPI   GL2 7388   4.517  11.420  10.184 -0.1693 -0.2442 -0.1580
  480PYPI   C1A 7389   4.247  11.685   9.798 -0.1651 -0.1213  0.2101
  480PYPI   C2A 7390   4.160  11.527   9.455  0.1290  0.0455 -0.1222
  480PYPI   D3A 7391   4.039  11.205   9.123  0.0781  0.1645  0.1632
  480PYPI   C4A 7392   4.037  11.034   8.729  0.2009  0.3698 -0.3505
  480PYPI   C1B 7393   4.621  11.272   9.808 -0.2310  0.1664 -0.2955
  480PYPI   C2B 7394   4.772  11.339   9.376  0.3454  0.2060 -0.0645
  480PYPI   C3B 7395   4.424  11.542   8.952  0.0041 -0.2095 -0.3225
  480PYPI   C4B 7396   4.286  11.784   8.600 -0.0207 -0.1621  0.3451
  481PYPI    C1 7397   8.219  17.705  10.977 -0.2188  0.0239  0.2024
  481PYPI    C2 7398   8.539  17.710  11.218 -0.0627  0.1747 -0.0033
  481PYPI    C3 7399   8.182  17.826  11.356  0.0567  0.4105  0.1132
  481PYPI   PO4 7400   8.253  17.724  10.784  0.0192  0.1067 -0.3832
  481PYPI   GL1 7401   7.902  17.781  10.453 -0.1020  0.0878  0.2666
  481PYPI   GL2 7402   7.525  17.682  10.469 -0.2035  0.1164 -0.1547
  481PYPI   C1A 7403   7.756  17.806   9.996 -0.1419 -0.0182 -0.1496
  481PYPI   C2A 7404   7.755  17.897   9.615  0.0112 -0.1336  0.0588
  481PYPI   D3A 7405   7.927  17.916   9.129 -0.0015 -0.1871  0.2936
  481PYPI   C4A 7406   7.718  17.792   8.765 -0.0638  0.4060 -0.0069
  481PYPI   C1B 7407   7.249  17.705  10.208  0.1266  0.1156 -0.0868
  481PYPI   C2B 7408   7.317  17.678   9.745 -0.0588  0.1968  0.2336
  481PYPI   C3B 7409   7.387  17.709   9.357  0.1522 -0.1052  0.1087
  481PYPI   C4B 7410   7.241  17.763   8.920  0.0756  0.0403  0.0910
  482PYPI    C1 7411   1.093   1.356  10.930  0.0256 -0.6044 -0.0442
  482PYPI    C2 7412   0.715   1.400  11.051  0.1293 -0.2225  0.1568
  482PYPI    C3 7413   0.983   1.226  11.292  0.2056  0.0150  0.2459
  482PYPI   PO4 7414   1.046   1.257  10.692  0.0513  0.0608  0.2226
  482PYPI   GL1 7415   0.950   1.286  10.315  0.1429  0.0084 -0.1355
  482PYPI   GL2 7416   1.268   1.305  10.107 -0.1753  0.2650  0.0410
  482PYPI   C1A 7417   0.759   1.148   9.972 -0.2099  0.2441 -0.0454
  482PYPI   C2A 7418   0.751   1.102   9.483  0.2082  0.1011 -0.1364
  482PYPI   D3A 7419   0.622   1.171   9.068  0.2983  0.2700  0.2687
  482PYPI   C4A 7420   0.658   1.307   8.650  0.0550  0.2316  0.3049
  482PYPI   C1B 7421   1.233   1.341   9.616 -0.1116  0.0808 -0.2744
  482PYPI   C2B 7422   1.057   1.372   9.246  0.3453 -0.0359  0.1880
  482PYPI   C3B 7423   1.247   1.464   8.901 -0.1547  0.0856 -0.0987
  482PYPI   C4B 7424   1.364   1.640   8.509 -0.2097  0.1640  0.0142
  483PYPI    C1 7425  11.912   7.627  11.032  0.1494  0.2996  0.1599
  483PYPI    C2 7426  11.989   7.239  11.090  0.0383  0.2171 -0.2122
  483PYPI    C3 7427  11.825   7.457  11.383 -0.0599 -0.0577 -0.0588
  483PYPI   PO4 7428  11.786   7.609  10.805  0.1164  0.0036  0.1423
  483PYPI   GL1 7429  11.499   7.619  10.446  0.3914  0.4473  0.0469
  483PYPI   GL2 7430  11.409   7.235  10.382 -0.1160  0.1242 -0.0971
  483PYPI   C1A 7431  11.399   7.691  10.107 -0.0002  0.0287 -0.1016
  483PYPI   C2A 7432  11.429   7.699   9.658 -0.3491 -0.1174  0.0788
  483PYPI   D3A 7433  11.517   7.555   9.286  0.0098 -0.0029  0.1716
  483PYPI   C4A 7434  11.561   7.850   8.968 -0.0291  0.0475 -0.1113
  483PYPI   C1B 7435  11.726   7.225   9.958 -0.3654  0.3072  0.3668
  483PYPI   C2B 7436  11.855   7.311   9.573 -0.3742 -0.1767  0.1544
  483PYPI   C3B 7437  11.860   7.172   9.218  0.0202  0.2267  0.0956
  483PYPI   C4B 7438  11.724   7.300   8.852  0.2046 -0.2044 -0.0845
  484PYPI    C1 7439   6.342   1.794  11.092 -0.0180 -0.2899  0.0120
  484PYPI    C2 7440   6.655   1.590  11.236 -0.0232 -0.2595  0.0668
  484PYPI    C3 7441   6.409   1.782  11.487  0.0096 -0.1451  0.0124
  484PYPI   PO4 7442   6.476   1.885  10.743 -0.0980 -0.0455  0.1265
  484PYPI   GL1 7443   6.589   1.643  10.413  0.0453 -0.0501  0.1433
  484PYPI   GL2 7444   6.855   1.715  10.285 -0.0664  0.3681 -0.2331
  484PYPI   C1A 7445   6.634   1.592   9.932 -0.0516  0.0954 -0.0106
  484PYPI   C2A 7446   6.854   1.179   9.848 -0.0935 -0.2221 -0.0455
  484PYPI   D3A 7447   7.232   1.096   9.771  0.2648  0.1175 -0.0369
  484PYPI   C4A 7448   7.346   0.898  10.145 -0.2248 -0.2066  0.1782
  484PYPI   C1B 7449   6.924   1.986   9.884 -0.0327 -0.2442 -0.2247
  484PYPI   C2B 7450   6.898   1.953   9.445 -0.2551  0.2910 -0.2050
  484PYPI   C3B 7451   7.091   1.686   9.091  0.1760  0.2575  0.2781
  484PYPI   C4B 7452   6.953   1.569   8.745 -0.2409  0.1254  0.0213
  485PYPI    C1 7453   6.608   7.420  10.744 -0.1426 -0.0406  0.1938
  485PYPI    C2 7454   6.904   7.442  11.012  0.0345 -0.1467  0.0101
  485PYPI    C3 7455   6.535   7.345  11.130  0.0958 -0.1242  0.2249
  485PYPI   PO4 7456   6.780   7.226  10.589 -0.2992 -0.1117 -0.2579
  485PYPI   GL1 7457   6.889   7.162  10.187 -0.0380 -0.2255  0.3008
  485PYPI   GL2 7458   7.186   7.414  10.070  0.0691  0.3295  0.0405
  485PYPI   C1A 7459   6.524   7.164   9.913  0.2051 -0.1059  0.1631
  485PYPI   C2A 7460   6.551   7.063   9.456  0.0914 -0.2105 -0.0287
  485PYPI   D3A 7461   6.535   7.101   9.031 -0.0921  0.1015 -0.0340
  485PYPI   C4A 7462   6.725   7.180   8.697  0.0763 -0.1323  0.2146
  485PYPI   C1B 7463   7.142   7.312   9.640  0.0805  0.2039  0.0009
  485PYPI   C2B 7464   7.089   7.343   9.185  0.0873  0.0577 -0.1658
  485PYPI   C3B 7465   6.969   7.558   8.924  0.1104 -0.1978  0.0952
  485PYPI   C4B 7466   6.796   7.692   8.493 -0.2660  0.2342 -0.1422
  486PYPI    C1 7467   8.907  11.003  10.640 -0.1331  0.2184  0.0111
  486PYPI    C2 7468   9.165  11.151  10.907 -0.0234  0.0971 -0.0267
  486PYPI    C3 7469   9.189  10.767  10.797 -0.1323  0.1208 -0.1347
  486PYPI   PO4 7470   8.941  11.222  10.446  0.1282 -0.1002  0.0017
  486PYPI   GL1 7471   8.787  11.570  10.139 -0.0119  0.2194 -0.1419
  486PYPI   GL2 7472   8.862  11.269   9.947  0.4018 -0.0987  0.1371
  486PYPI   C1A 7473   8.525  11.582   9.818 -0.1609  0.1590  0.1593
  486PYPI   C2A 7474   8.214  11.535   9.478 -0.1031 -0.3703  0.0923
  486PYPI   D3A 7475   8.119  11.587   9.090 -0.1271  0.2456  0.1742
  486PYPI   C4A 7476   8.310  11.573   8.755 -0.4069  0.2571 -0.0836
  486PYPI   C1B 7477   8.873  11.319   9.537  0.2654  0.1285  0.1329
  486PYPI   C2B 7478   8.595  11.435   9.131  0.1283  0.2108  0.2195
  486PYPI   C3B 7479   8.612  11.166   8.776 -0.0843  0.0431 -0.1346
  486PYPI   C4B 7480   8.498  11.314   8.350  0.0006 -0.2232  0.2212
  487PYPI    C1 7481  15.118  16.891  11.059  0.1095  0.1792  0.0918
  487PYPI    C2 7482  14.874  17.202  11.120  0.0106  0.1249 -0.0242
  487PYPI    C3 7483  14.835  16.871  11.341 -0.1264  0.0562 -0.1488
  487PYPI   PO4 7484  15.073  16.898  10.755  0.1669  0.1708 -0.0795
  487PYPI   GL1 7485  14.736  16.866  10.400 -0.2787 -0.3529 -0.0302
  487PYPI   GL2 7486  15.044  16.969  10.282 -0.0689 -0.1271  0.0614
  487PYPI   C1A 7487  14.765  17.024   9.894 -0.0268 -0.1061 -0.0784
  487PYPI   C2A 7488  14.751  16.931   9.578  0.0302 -0.2034 -0.3169
  487PYPI   D3A 7489  14.626  16.978   9.121  0.2221  0.2777  0.0275
  487PYPI   C4A 7490  14.530  17.191   8.737  0.5333  0.0365 -0.0757
  487PYPI   C1B 7491  15.267  16.852   9.912 -0.0609  0.0883 -0.0002
  487PYPI   C2B 7492  15.266  17.056   9.505  0.0679  0.1456  0.0894
  487PYPI   C3B 7493  15.160  16.970   9.173 -0.0087  0.1834  0.0594
  487PYPI   C4B 7494  15.029  17.139   8.769  0.1228 -0.0144 -0.1032
  488PYPI    C1 7495   0.991   4.862  11.137  0.0382 -0.0148 -0.0073
  488PYPI    C2 7496   1.021   4.556  11.393  0.1221  0.0224  0.0279
  488PYPI    C3 7497   1.255   4.877  11.437 -0.0361  0.1361  0.0517
  488PYPI   PO4 7498   0.894   4.618  10.856 -0.1847 -0.0847 -0.4108
  488PYPI   GL1 7499   1.069   4.580  10.491 -0.2663 -0.1207 -0.2358
  488PYPI   GL2 7500   1.295   4.719  10.460 -0.2642  0.1559  0.0496
  488PYPI   C1A 7501   0.886   4.726  10.078  0.0892 -0.1075  0.0045
  488PYPI   C2A 7502   0.804   4.895   9.651 -0.0406  0.3671 -0.1085
  488PYPI   D3A 7503   0.670   5.208   9.277  0.3310  0.3216  0.2540
  488PYPI   C4A 7504   0.748   5.236   8.875 -0.0204  0.2681  0.0017
  488PYPI   C1B 7505   1.374   4.809  10.049 -0.2434  0.0134  0.1651
  488PYPI   C2B 7506   1.276   4.770   9.616 -0.1611  0.1609 -0.2877
  488PYPI   C3B 7507   1.106   5.005   9.201 -0.3989  0.0729  0.0511
  488PYPI   C4B 7508   1.280   5.138   8.845  0.2325 -0.2335 -0.1527
  489PYPI    C1 7509   2.540  15.596  11.324 -0.2147  0.0600 -0.0352
  489PYPI    C2 7510   2.565  15.201  11.380  0.1791  0.0874  0.0143
  489PYPI    C3 7511   2.713  15.452  11.655  0.1384  0.2658 -0.1245
  489PYPI   PO4 7512   2.596  15.574  11.059  0.0570 -0.2045 -0.0294
  489PYPI   GL1 7513   2.528  15.568  10.634 -0.0163 -0.0416  0.1574
  489PYPI   GL2 7514   2.884  15.303  10.665  0.1525  0.3920  0.1060
  489PYPI   C1A 7515   2.265  15.681  10.380 -0.2381 -0.2108  0.0085
  489PYPI   C2A 7516   2.440  15.944  10.087 -0.0980 -0.0444 -0.2622
  489PYPI   D3A 7517   2.846  16.146  10.007 -0.0739 -0.1196  0.0733
  489PYPI   C4A 7518   2.785  16.421   9.648  0.0861 -0.2122 -0.1232
  489PYPI   C1B 7519   2.914  15.312  10.261 -0.3662  0.2649  0.1670
  489PYPI   C2B 7520   2.789  15.176   9.768 -0.1002  0.0872 -0.2936
  489PYPI   C3B 7521   2.793  14.979   9.370  0.1785 -0.2895 -0.0416
  489PYPI   C4B 7522   2.646  15.082   8.936 -0.1017 -0.1445  0.3881
  490PYPI    C1 7523  10.353   3.819  10.973 -0.0634  0.1437  0.0062
  490PYPI    C2 7524  10.085   3.814  11.270 -0.0972 -0.1014 -0.0265
  490PYPI    C3 7525  10.450   3.660  11.327 -0.0302  0.0488 -0.0451
  490PYPI   PO4 7526  10.330   4.146  10.828  0.1992  0.0486 -0.3749
  490PYPI   GL1 7527  10.264   4.257  10.378  0.4057  0.0682  0.1684
  490PYPI   GL2 7528   9.942   4.273  10.184  0.1493  0.0936 -0.2037
  490PYPI   C1A 7529  10.287   3.938  10.029 -0.2408 -0.2173  0.3963
  490PYPI   C2A 7530  10.227   3.710   9.710  0.2153  0.0621  0.1861
  490PYPI   D3A 7531  10.116   3.655   9.303 -0.2158  0.0158 -0.0748
  490PYPI   C4A 7532   9.976   3.873   8.957 -0.2033  0.2481 -0.1018
  490PYPI   C1B 7533   9.963   4.221   9.813 -0.1219  0.1730  0.1093
  490PYPI   C2B 7534   9.843   4.238   9.500  0.1170 -0.1143 -0.0227
  490PYPI   C3B 7535   9.706   4.254   9.092  0.1282  0.1416 -0.0241
  490PYPI   C4B 7536   9.497   4.268   8.638  0.1414  0.0012  0.2162
  491PYPI    C1 7537  10.947   8.435  11.232 -0.2324 -0.1264  0.0329
  491PYPI    C2 7538  10.827   8.659  11.541 -0.0305  0.1083 -0.0563
  491PYPI    C3 7539  10.959   8.287  11.604  0.0249  0.1602  0.1429
  491PYPI   PO4 7540  10.876   8.712  11.022  0.0838 -0.4187  0.3275
  491PYPI   GL1 7541  10.855   8.775  10.581 -0.1039  0.2215  0.1292
  491PYPI   GL2 7542  10.777   8.637  10.342  0.0007  0.3369 -0.1757
  491PYPI   C1A 7543  11.108   9.005  10.185 -0.0566 -0.0040 -0.0563
  491PYPI   C2A 7544  11.124   9.055   9.740 -0.0692  0.0589  0.1006
  491PYPI   D3A 7545  11.143   9.072   9.268 -0.2541  0.1117 -0.1725
  491PYPI   C4A 7546  10.699   9.226   9.085  0.1807 -0.0746 -0.2615
  491PYPI   C1B 7547  10.800   8.640   9.982  0.1605 -0.3957  0.0872
  491PYPI   C2B 7548  10.808   8.716   9.580 -0.1640 -0.1901 -0.1269
  491PYPI   C3B 7549  10.776   8.742   9.199  0.0437  0.1419 -0.0639
  491PYPI   C4B 7550  10.643   8.961   8.645  0.2966  0.2754  0.1169
  492PYPI    C1 7551  11.472  14.616  10.984 -0.2890 -0.2916 -0.3026
  492PYPI    C2 7552  11.789  14.474  10.785  0.1844 -0.0621  0.2589
  492PYPI    C3 7553  11.834  14.625  11.153 -0.4833  0.5259  0.1226
  492PYPI   PO4 7554  11.349  14.815  10.809 -0.2295  0.1099 -0.0840
  492PYPI   GL1 7555  11.409  14.903  10.357  0.2968 -0.0497 -0.0955
  492PYPI   GL2 7556  11.706  14.802  10.438  0.1040  0.0705 -0.0167
  492PYPI   C1A 7557  11.476  14.856   9.902  0.1205  0.1500 -0.3389
  492PYPI   C2A 7558  11.569  14.846   9.500  0.0581  0.3058  0.0327
  492PYPI   D3A 7559  11.580  14.762   9.111 -0.0940  0.0840 -0.2146
  492PYPI   C4A 7560  11.279  14.736   8.684 -0.2008  0.0983 -0.0189
  492PYPI   C1B 7561  11.907  14.996  10.190 -0.1702 -0.0378 -0.2935
  492PYPI   C2B 7562  12.018  15.075   9.784  0.4444  0.2494 -0.0774
  492PYPI   C3B 7563  12.143  14.909   9.452 -0.2053 -0.3283  0.1434
  492PYPI   C4B 7564  12.101  14.730   9.067  0.0328 -0.1467  0.0324
  493PYPI    C1 7565  15.215   3.025  11.286 -0.1358  0.1635 -0.0011
  493PYPI    C2 7566  15.124   3.244  11.608 -0.2975  0.1903 -0.0640
  493PYPI    C3 7567  15.142   2.846  11.636 -0.2542  0.1960 -0.0087
  493PYPI   PO4 7568  15.042   3.189  11.088 -0.0316  0.0793  0.0998
  493PYPI   GL1 7569  14.974   3.094  10.677 -0.2808  0.1681  0.0404
  493PYPI   GL2 7570  15.142   3.315  10.486 -0.0324 -0.0534  0.2074
  493PYPI   C1A 7571  14.770   2.840  10.483 -0.0178  0.2253  0.1239
  493PYPI   C2A 7572  14.573   2.921  10.066  0.2548 -0.1185  0.0937
  493PYPI   D3A 7573  14.518   2.867   9.584  0.3003  0.1395 -0.1052
  493PYPI   C4A 7574  14.153   3.000   9.434  0.1686  0.1279 -0.1147
  493PYPI   C1B 7575  15.083   3.127  10.092 -0.3547 -0.1732  0.0365
  493PYPI   C2B 7576  15.045   3.097   9.677  0.3029  0.4491  0.1682
  493PYPI   C3B 7577  14.933   3.201   9.214  0.2449 -0.0769 -0.2198
  493PYPI   C4B 7578  14.948   3.395   8.897 -0.3288  0.2223 -0.0393
  494PYPI    C1 7579   7.698   6.560  10.282  0.1349 -0.1530 -0.1584
  494PYPI    C2 7580   7.832   6.467  10.647  0.0701  0.1309 -0.0596
  494PYPI    C3 7581   7.871   6.840  10.509 -0.3027  0.1337 -0.1674
  494PYPI   PO4 7582   7.802   6.236  10.194 -0.0676  0.0278  0.0867
  494PYPI   GL1 7583   7.735   5.986  10.024 -0.0733  0.0431 -0.2980
  494PYPI   GL2 7584   7.524   5.989   9.885  0.0887 -0.2362  0.0005
  494PYPI   C1A 7585   7.915   5.582   9.666 -0.0215 -0.1665 -0.1158
  494PYPI   C2A 7586   7.791   5.441   9.252  0.2294 -0.1149  0.3094
  494PYPI   D3A 7587   7.985   5.339   8.893  0.0140 -0.2205 -0.2137
  494PYPI   C4A 7588   7.812   5.150   8.546 -0.2225 -0.2040 -0.3746
  494PYPI   C1B 7589   7.647   5.978   9.431  0.2165  0.3382  0.0697
  494PYPI   C2B 7590   7.596   5.799   8.969 -0.0099 -0.1392  0.1418
  494PYPI   C3B 7591   7.611   5.615   8.509 -0.2997 -0.2370 -0.0409
  494PYPI   C4B 7592   7.220   5.847   8.242 -0.0405 -0.3074  0.2178
  495PYPI    C1 7593   3.105   0.611  10.932 -0.0766 -0.1394  0.0702
  495PYPI    C2 7594   3.418   0.369  10.870  0.0386  0.0088  0.0683
  495PYPI    C3 7595   3.354   0.525  11.233 -0.1273 -0.1502  0.1092
  495PYPI   PO4 7596   3.101   0.740  10.684  0.1747 -0.0009  0.0381
  495PYPI   GL1 7597   2.861   0.864  10.375  0.0055  0.1906 -0.2381
  495PYPI   GL2 7598   2.452   0.824  10.270  0.3355 -0.0671  0.1175
  495PYPI   C1A 7599   3.097   1.054   9.932 -0.0319  0.2223  0.1196
  495PYPI   C2A 7600   3.252   1.320   9.587 -0.0378 -0.1320 -0.0559
  495PYPI   D3A 7601   3.446   1.277   9.168  0.2126 -0.1119  0.1356
  495PYPI   C4A 7602   3.486   1.135   8.769  0.4414  0.1999  0.2198
  495PYPI   C1B 7603   2.503   0.618   9.870 -0.1007 -0.0340 -0.1374
  495PYPI   C2B 7604   2.504   0.400   9.466 -0.0596 -0.3655 -0.0141
  495PYPI   C3B 7605   2.364   0.383   9.025  0.0883  0.2134  0.2960
  495PYPI   C4B 7606   2.337   0.461   8.674 -0.2461 -0.1413  0.1316
  496PYPI    C1 7607   3.817   0.565  11.133  0.1132 -0.0027 -0.0416
  496PYPI    C2 7608   4.195   0.667  11.211  0.0285  0.1118  0.2321
  496PYPI    C3 7609   3.911   0.731  11.485 -0.1588 -0.1436  0.1010
  496PYPI   PO4 7610   3.902   0.367  10.943 -0.0448  0.2716 -0.0575
  496PYPI   GL1 7611   4.190   0.174  10.545  0.3629 -0.0328 -0.1653
  496PYPI   GL2 7612   4.486   0.210  10.318 -0.0204 -0.2589 -0.0099
  496PYPI   C1A 7613   3.936   0.002  10.355 -0.1667  0.2228  0.1038
  496PYPI   C2A 7614   3.905  -0.170   9.904 -0.0284 -0.0796 -0.2856
  496PYPI   D3A 7615   3.935  -0.141   9.503 -0.2877 -0.2307 -0.0431
  496PYPI   C4A 7616   3.513  -0.314   9.386  0.2737  0.1836 -0.0907
  496PYPI   C1B 7617   4.496   0.135   9.882  0.0193 -0.0891  0.1237
  496PYPI   C2B 7618   4.342   0.193   9.434 -0.1909 -0.0769  0.0285
  496PYPI   C3B 7619   4.252   0.288   9.045 -0.0961 -0.2759 -0.1031
  496PYPI   C4B 7620   4.382   0.458   8.661  0.3639 -0.0703 -0.1405
  497PYPI    C1 7621   5.277   6.466  10.658 -0.0999 -0.1559  0.0700
  497PYPI    C2 7622   5.476   6.131  10.569 -0.1828 -0.1698 -0.0661
  497PYPI    C3 7623   5.205   6.131  10.863 -0.0657 -0.1799  0.0429
  497PYPI   PO4 7624   5.063   6.578  10.442 -0.1033  0.1048 -0.0526
  497PYPI   GL1 7625   5.070   6.794  10.022 -0.0609  0.1210 -0.1850
  497PYPI   GL2 7626   5.018   7.160   9.942  0.2500  0.1477 -0.0561
  497PYPI   C1A 7627   5.174   6.516   9.643  0.2131  0.0763 -0.2384
  497PYPI   C2A 7628   5.181   6.475   9.251  0.3452  0.1825  0.0296
  497PYPI   D3A 7629   5.160   6.437   8.771  0.2696  0.2290  0.2887
  497PYPI   C4A 7630   5.513   6.456   8.487 -0.3071 -0.0528 -0.1593
  497PYPI   C1B 7631   5.109   7.007   9.541 -0.0169 -0.0338  0.2956
  497PYPI   C2B 7632   5.207   6.988   9.194  0.2918  0.2121 -0.0377
  497PYPI   C3B 7633   5.231   7.178   8.856  0.0626 -0.0652  0.0192
  497PYPI   C4B 7634   5.230   7.374   8.379 -0.0818 -0.0089  0.3211
  498PYPI    C1 7635   6.371   4.242  10.598 -0.0021 -0.1537  0.0394
  498PYPI    C2 7636   6.150   4.250  10.932  0.0521 -0.1621  0.0756
  498PYPI    C3 7637   6.548   4.281  10.955  0.0480 -0.0496  0.0035
  498PYPI   PO4 7638   6.273   4.127  10.401 -0.0320 -0.1988 -0.0265
  498PYPI   GL1 7639   6.422   4.058  10.108  0.0870  0.0021  0.0949
  498PYPI   GL2 7640   6.494   3.763  10.090  0.0579 -0.1490  0.1641
  498PYPI   C1A 7641   6.411   4.035   9.653 -0.0519 -0.1845 -0.3058
  498PYPI   C2A 7642   6.536   4.034   9.251 -0.0967 -0.1136 -0.1495
  498PYPI   D3A 7643   6.513   4.008   8.885  0.1652  0.3637  0.2565
  498PYPI   C4A 7644   6.466   3.974   8.480 -0.0203 -0.0764 -0.3906
  498PYPI   C1B 7645   6.343   3.559   9.734  0.0290 -0.1828 -0.0153
  498PYPI   C2B 7646   6.374   3.421   9.309  0.0768 -0.0299  0.0882
  498PYPI   C3B 7647   6.332   3.152   8.991  0.2928 -0.0311  0.1174
  498PYPI   C4B 7648   6.240   2.981   8.629  0.0421 -0.0588  0.0882
  499PYPI    C1 7649  10.205  15.919  10.812  0.0237  0.0432  0.2211
  499PYPI    C2 7650   9.828  15.840  10.918 -0.1150  0.2680 -0.0885
  499PYPI    C3 7651  10.096  15.943  11.196 -0.2604  0.0342  0.1435
  499PYPI   PO4 7652  10.252  15.732  10.653 -0.1030 -0.1397 -0.1725
  499PYPI   GL1 7653  10.212  15.615  10.261  0.2405  0.1135  0.0976
  499PYPI   GL2 7654  10.054  15.410  10.151  0.2323 -0.1511 -0.2558
  499PYPI   C1A 7655  10.191  15.903   9.953  0.2815 -0.1504  0.2715
  499PYPI   C2A 7656  10.042  15.974   9.566 -0.0934  0.0659  0.0049
  499PYPI   D3A 7657   9.952  15.864   9.175 -0.0147  0.0006 -0.1119
  499PYPI   C4A 7658  10.020  15.683   8.734 -0.1856  0.1473  0.2511
  499PYPI   C1B 7659  10.107  15.467   9.779  0.0094  0.0439  0.0044
  499PYPI   C2B 7660  10.038  15.386   9.343 -0.1834  0.3710  0.2407
  499PYPI   C3B 7661   9.811  15.304   8.920  0.2840 -0.1097 -0.0657
  499PYPI   C4B 7662   9.865  14.947   8.613 -0.1837 -0.0448  0.0249
  500PYPI    C1 7663  13.406  15.031  11.058 -0.0270  0.3243 -0.0217
  500PYPI    C2 7664  13.124  14.899  11.310 -0.0303 -0.3225 -0.3441
  500PYPI    C3 7665  13.499  14.762  11.339  0.0705 -0.0686 -0.4191
  500PYPI   PO4 7666  13.337  15.012  10.856 -0.5812  0.1424  0.1527
  500PYPI   GL1 7667  12.954  15.191  10.595  0.1886  0.0701 -0.2101
  500PYPI   GL2 7668  12.561  15.226  10.492 -0.3094  0.1668 -0.2664
  500PYPI   C1A 7669  13.104  15.259  10.215  0.4005 -0.1128 -0.0345
  500PYPI   C2A 7670  13.039  15.216   9.865 -0.0503 -0.1379  0.5046
  500PYPI   D3A 7671  13.149  15.460   9.514 -0.2757 -0.0815 -0.2639
  500PYPI   C4A 7672  13.153  15.446   9.109 -0.0980 -0.0979  0.0381
  500PYPI   C1B 7673  12.442  15.132  10.089  0.0239 -0.1760 -0.1953
  500PYPI   C2B 7674  12.624  15.034   9.698 -0.0753  0.1649 -0.1880
  500PYPI   C3B 7675  12.660  15.250   9.325  0.0486  0.4124  0.1365
  500PYPI   C4B 7676  12.672  15.303   8.845 -0.2160 -0.2398  0.2289
  501PYPI    C1 7677  10.885   4.989  10.674  0.1506 -0.0048 -0.1517
  501PYPI    C2 7678  11.037   5.323  10.832  0.1116  0.0118 -0.1495
  501PYPI    C3 7679  10.908   5.030  11.071 -0.0434  0.0799 -0.1481
  501PYPI   PO4 7680  10.987   4.863  10.529  0.3378 -0.1944 -0.1631
  501PYPI   GL1 7681  10.816   4.820  10.149  0.1125  0.2261 -0.2225
  501PYPI   GL2 7682  11.103   4.801  10.046  0.0020  0.4524  0.1205
  501PYPI   C1A 7683  10.548   4.870   9.756  0.0298 -0.0173 -0.2015
  501PYPI   C2A 7684  10.423   4.911   9.283 -0.1528 -0.0847  0.1752
  501PYPI   D3A 7685  10.515   4.799   8.857 -0.0648  0.1621  0.4658
  501PYPI   C4A 7686  10.486   4.977   8.514 -0.0673  0.2671  0.1456
  501PYPI   C1B 7687  10.999   4.789   9.647  0.2706  0.1426 -0.3051
  501PYPI   C2B 7688  10.847   4.656   9.351 -0.3189 -0.3716 -0.1098
  501PYPI   C3B 7689  10.972   4.682   8.971  0.1810  0.0186  0.1286
  501PYPI   C4B 7690  10.889   4.689   8.522  0.0154 -0.2281 -0.0444
  502PYPI    C1 7691  17.336  10.666  10.878 -0.0388  0.1851 -0.2280
  502PYPI    C2 7692  17.487  11.013  11.007  0.1539 -0.0127  0.0934
  502PYPI    C3 7693  17.271  10.785  11.254  0.1447 -0.1872 -0.0728
  502PYPI   PO4 7694  17.452  10.574  10.670 -0.2650  0.0597 -0.2755
  502PYPI   GL1 7695  17.622  10.554  10.269 -0.1313 -0.1430 -0.2060
  502PYPI   GL2 7696  17.741  10.349  10.201  0.0025  0.0443 -0.0364
  502PYPI   C1A 7697  17.663  10.913   9.917 -0.2554  0.1165 -0.3068
  502PYPI   C2A 7698  17.579  10.889   9.461 -0.2764 -0.1024 -0.2380
  502PYPI   D3A 7699  17.445  11.030   9.039  0.0748  0.0765 -0.2432
  502PYPI   C4A 7700  16.990  10.877   8.842  0.0629  0.1882 -0.0453
  502PYPI   C1B 7701  17.658  10.397   9.823 -0.0428  0.1026 -0.0121
  502PYPI   C2B 7702  17.593  10.379   9.319 -0.0593 -0.0028 -0.2192
  502PYPI   C3B 7703  17.678  10.587   8.955  0.0674  0.0584 -0.1693
  502PYPI   C4B 7704  17.430  10.763   8.607  0.1827 -0.0166  0.3499
  503PYPI    C1 7705  15.139   6.688  10.868  0.0743 -0.1373 -0.1951
  503PYPI    C2 7706  15.083   6.294  10.832  0.3394 -0.1807 -0.1477
  503PYPI    C3 7707  15.296   6.439  11.138  0.0979  0.0128 -0.0686
  503PYPI   PO4 7708  15.243   6.748  10.604 -0.1895 -0.2510  0.1365
  503PYPI   GL1 7709  15.208   6.778  10.219 -0.1200 -0.2451  0.2670
  503PYPI   GL2 7710  14.989   6.996  10.126  0.0866 -0.0275 -0.1184
  503PYPI   C1A 7711  15.358   6.578   9.824  0.0045 -0.0502  0.1364
  503PYPI   C2A 7712  15.400   6.523   9.264  0.0204 -0.0445 -0.4560
  503PYPI   D3A 7713  15.301   6.772   8.865 -0.1384  0.0787 -0.0434
  503PYPI   C4A 7714  15.219   6.584   8.541  0.0819  0.2750 -0.1416
  503PYPI   C1B 7715  15.029   6.975   9.720 -0.2707  0.0439  0.1636
  503PYPI   C2B 7716  15.091   6.935   9.400  0.0110  0.3035  0.1159
  503PYPI   C3B 7717  15.159   7.244   9.029  0.0743 -0.1903 -0.1270
  503PYPI   C4B 7718  15.398   7.190   8.501  0.0799 -0.1451  0.1768
  504PYPI    C1 7719  17.159   3.796  11.054 -0.0895  0.0364 -0.1562
  504PYPI    C2 7720  17.420   3.492  11.058 -0.3003 -0.1463 -0.1108
  504PYPI    C3 7721  17.490   3.819  11.278 -0.0209 -0.1165 -0.2403
  504PYPI   PO4 7722  16.993   3.863  10.807  0.1323 -0.1372 -0.3400
  504PYPI   GL1 7723  16.656   3.966  10.497  0.1165  0.1002  0.1146
  504PYPI   GL2 7724  16.727   4.179  10.369 -0.1081  0.1253 -0.1885
  504PYPI   C1A 7725  16.520   3.823  10.032  0.0652  0.0604 -0.0035
  504PYPI   C2A 7726  16.405   3.665   9.686  0.0107  0.1812  0.0377
  504PYPI   D3A 7727  16.392   3.525   9.207  0.0417  0.1862  0.2079
  504PYPI   C4A 7728  16.104   3.575   8.887 -0.0752 -0.3308 -0.2067
  504PYPI   C1B 7729  17.022   3.935  10.167  0.0448  0.1674  0.2808
  504PYPI   C2B 7730  17.145   3.670   9.841 -0.2038 -0.2690  0.2012
  504PYPI   C3B 7731  17.352   3.590   9.413  0.0941 -0.2764  0.0026
  504PYPI   C4B 7732  17.570   3.652   8.968 -0.0183 -0.0789 -0.2618
  505PYPI    C1 7733   0.289  12.741  10.798  0.2332 -0.0516  0.1428
  505PYPI    C2 7734  -0.045  12.532  10.730  0.1675  0.0480  0.1585
  505PYPI    C3 7735   0.220  12.403  11.001  0.2159 -0.1124  0.0365
  505PYPI   PO4 7736   0.228  12.951  10.512  0.0474  0.2462  0.0553
  505PYPI   GL1 7737   0.132  13.057  10.044 -0.0172  0.0666 -0.0935
  505PYPI   GL2 7738   0.253  12.705  10.092 -0.1817  0.0953 -0.2078
  505PYPI   C1A 7739   0.429  13.269   9.736 -0.1999 -0.1041  0.1682
  505PYPI   C2A 7740   0.598  13.517   9.309  0.3431 -0.0679 -0.2231
  505PYPI   D3A 7741   0.576  13.446   8.780 -0.3189 -0.1387  0.0798
  505PYPI   C4A 7742   0.736  13.257   8.306 -0.1266 -0.2281 -0.1248
  505PYPI   C1B 7743   0.397  12.682   9.725 -0.0320 -0.0794 -0.3072
  505PYPI   C2B 7744   0.437  12.843   9.360  0.1451  0.0482 -0.2232
  505PYPI   C3B 7745   0.614  13.081   9.124  0.0637  0.2183 -0.0412
  505PYPI   C4B 7746   0.483  13.005   8.671 -0.0724  0.0658 -0.1001
  506ERGO   ROH 7747   3.056   8.488  10.197  0.2876 -0.1874 -0.1364
  506ERGO    R1 7748   3.157   8.455   9.934  0.1327 -0.2478 -0.1888
  506ERGO    R2 7749   2.994   8.395   9.720 -0.0261 -0.0779 -0.1188
  506ERGO    R3 7750   3.110   8.615   9.611  0.1207 -0.1675 -0.1472
  506ERGO    R4 7751   3.080   8.428   9.387 -0.0548 -0.1537 -0.1343
  506ERGO    R5 7752   3.264   8.528   9.450  0.0299 -0.2876 -0.1691
  506ERGO    C1 7753   3.239   8.654   9.091  0.0663 -0.2818 -0.1700
  506ERGO    C2 7754   3.144   8.575   8.705  0.0749  0.1202  0.2765
  507ERGO   ROH 7755   2.057  13.045  10.532 -0.0707 -0.0321 -0.0466
  507ERGO    R1 7756   2.090  12.999  10.254  0.1740  0.1771 -0.0572
  507ERGO    R2 7757   1.881  13.016  10.075  0.1437 -0.4649 -0.1109
  507ERGO    R3 7758   2.047  13.189   9.947 -0.3875  0.1675  0.0061
  507ERGO    R4 7759   1.887  13.066   9.733  0.3003 -0.5765 -0.1250
  507ERGO    R5 7760   2.105  13.075   9.744  0.2853  0.2974  0.1039
  507ERGO    C1 7761   2.045  13.258   9.414 -0.1070 -0.0478 -0.0235
  507ERGO    C2 7762   1.951  13.353   9.165  0.0476 -0.4165  0.0917
  508ERGO   ROH 7763  16.317   1.121  10.510  0.0055  0.1636  0.0570
  508ERGO    R1 7764  16.387   1.207  10.250  0.1590 -0.0247  0.0352
  508ERGO    R2 7765  16.532   1.050  10.074 -0.1096 -0.3230  0.0860
  508ERGO    R3 7766  16.322   1.097   9.909 -0.0253 -0.0040  0.0592
  508ERGO    R4 7767  16.545   1.041   9.729 -0.0720 -0.4110  0.0881
  508ERGO    R5 7768  16.416   1.216   9.724  0.2055 -0.1842  0.0449
  508ERGO    C1 7769  16.355   1.080   9.373  0.0292 -0.1628  0.0641
  508ERGO    C2 7770  16.123   1.019   9.150 -0.1152 -0.1845 -0.2904
  509ERGO   ROH 7771   7.461   4.811  10.002 -0.3020 -0.2285  0.1245
  509ERGO    R1 7772   7.381   4.632   9.797 -0.1436 -0.1585  0.0002
  509ERGO    R2 7773   7.322   4.717   9.541  0.0227 -0.0668 -0.0068
  509ERGO    R3 7774   7.507   4.532   9.471  0.0894 -0.0209  0.0444
  509ERGO    R4 7775   7.387   4.616   9.217  0.0654 -0.1188  0.0176
  509ERGO    R5 7776   7.406   4.411   9.290  0.1330 -0.0982  0.0680
  509ERGO    C1 7777   7.599   4.382   8.963  0.1529 -0.1060  0.0798
  509ERGO    C2 7778   7.662   4.369   8.714  0.0392  0.0972  0.0266
  510ERGO   ROH 7779  14.280   4.979  10.090 -0.2235 -0.0442  0.1321
  510ERGO    R1 7780  14.367   4.972   9.821 -0.1687  0.0105  0.1487
  510ERGO    R2 7781  14.264   4.794   9.636 -0.0498 -0.0269  0.1213
  510ERGO    R3 7782  14.216   5.020   9.493 -0.1278 -0.0424  0.1212
  510ERGO    R4 7783  14.249   4.811   9.291  0.2358  0.0160  0.1085
  510ERGO    R5 7784  14.357   5.000   9.300  0.0622  0.1139  0.2374
  510ERGO    C1 7785  14.196   5.033   8.956  0.3290  0.0264  0.1009
  510ERGO    C2 7786  14.133   4.885   8.672 -0.3578  0.3145  0.0819
  511ERGO   ROH 7787   1.241   8.038   9.949  0.0182  0.1594 -0.1295
  511ERGO    R1 7788   1.212   7.960   9.678  0.1174  0.0591 -0.1121
  511ERGO    R2 7789   1.004   8.049   9.519  0.0248 -0.2043 -0.1473
  511ERGO    R3 7790   1.207   8.125   9.354 -0.0451 -0.0242 -0.1522
  511ERGO    R4 7791   1.023   7.974   9.182  0.1053 -0.2105 -0.1421
  511ERGO    R5 7792   1.237   7.939   9.207  0.1375 -0.0047 -0.1380
  511ERGO    C1 7793   1.223   8.002   8.831  0.0865 -0.0451 -0.1435
  511ERGO    C2 7794   1.213   8.279   8.582  0.0561  0.2083 -0.0778
  512ERGO   ROH 7795  15.422  13.050  10.553 -0.2360  0.0065 -0.1515
  512ERGO    R1 7796  15.356  12.943  10.299 -0.2480  0.0567 -0.1712
  512ERGO    R2 7797  15.235  13.093  10.101 -0.1578  0.1307 -0.1813
  512ERGO    R3 7798  15.447  13.008   9.953 -0.1686  0.0515 -0.1491
  512ERGO    R4 7799  15.271  13.142   9.761 -0.1966 -0.1149 -0.2217
  512ERGO    R5 7800  15.350  12.940   9.745 -0.1769 -0.1097 -0.0870
  512ERGO    C1 7801  15.491  13.091   9.424 -0.2291 -0.3323 -0.2151
  512ERGO    C2 7802  15.474  13.156   9.037 -0.2262 -0.0904 -0.0233
  513ERGO   ROH 7803   9.022  10.805  10.152  0.0402  0.1867  0.0009
  513ERGO    R1 7804   9.160  10.723   9.919  0.2576  0.1073  0.1534
  513ERGO    R2 7805   9.126  10.846   9.675  0.0444 -0.3304 -0.0552
  513ERGO    R3 7806   9.396  10.872   9.686 -0.0005  0.2468 -0.0209
  513ERGO    R4 7807   9.342  10.764   9.418  0.2927 -0.4366  0.1848
  513ERGO    R5 7808   9.479  10.681   9.567  0.4291  0.1527  0.4067
  513ERGO    C1 7809   9.722  10.740   9.279  0.3951  0.0434  0.3568
  513ERGO    C2 7810   9.819  10.727   8.833 -0.2978  0.1508 -0.2755
  514ERGO   ROH 7811  15.576  14.026  10.441 -0.0761  0.3136 -0.0346
  514ERGO    R1 7812  15.536  13.931  10.178  0.0562  0.0763  0.0272
  514ERGO    R2 7813  15.316  14.002  10.026  0.0956 -0.1109 -0.1261
  514ERGO    R3 7814  15.505  14.077   9.846  0.1502 -0.2133 -0.1116
  514ERGO    R4 7815  15.265  14.026   9.685  0.1766 -0.1997 -0.1448
  514ERGO    R5 7816  15.463  13.939   9.655  0.1578 -0.2574 -0.0784
  514ERGO    C1 7817  15.413  14.110   9.318  0.2752 -0.3475 -0.1420
  514ERGO    C2 7818  15.316  14.031   8.909  0.1428  0.0591 -0.1593
  515ERGO   ROH 7819   2.895  13.841   6.573 -0.1400  0.1458  0.0383
  515ERGO    R1 7820   3.043  13.810   6.812 -0.1148 -0.0362  0.0006
  515ERGO    R2 7821   3.062  14.010   7.002  0.1380 -0.0756  0.0192
  515ERGO    R3 7822   2.973  13.815   7.170 -0.0272 -0.0030  0.0180
  515ERGO    R4 7823   3.004  14.052   7.341  0.2746 -0.0527  0.0405
  515ERGO    R5 7824   3.091  13.854   7.375  0.0735 -0.1537 -0.0084
  515ERGO    C1 7825   2.886  13.893   7.694  0.1992  0.0285  0.0517
  515ERGO    C2 7826   2.891  13.998   7.988 -0.2543  0.0856  0.1966
  516ERGO   ROH 7827  15.747   6.282   6.178  0.2564  0.1473  0.0316
  516ERGO    R1 7828  15.659   6.223   6.440  0.1533 -0.0160 -0.0381
  516ERGO    R2 7829  15.806   6.067   6.615  0.2358  0.1326  0.0293
  516ERGO    R3 7830  15.778   6.282   6.779 -0.1459  0.0703  0.0546
  516ERGO    R4 7831  15.866   6.065   6.955  0.3632  0.2293  0.0080
  516ERGO    R5 7832  15.690   6.191   6.982  0.1099 -0.1280  0.0798
  516ERGO    C1 7833  15.875   6.266   7.308  0.0791  0.2270  0.0193
  516ERGO    C2 7834  15.833   6.359   7.545  0.1193 -0.0631 -0.0366
  517ERGO   ROH 7835  17.679   0.985  10.233  0.1697  0.1104  0.0418
  517ERGO    R1 7836  17.499   1.041  10.022  0.1898  0.2564  0.0618
  517ERGO    R2 7837  17.561   1.212   9.815  0.3705  0.0837 -0.0331
  517ERGO    R3 7838  17.494   0.999   9.661  0.0474  0.0983  0.0810
  517ERGO    R4 7839  17.506   1.226   9.474  0.6158 -0.0476 -0.0802
  517ERGO    R5 7840  17.338   1.088   9.502  0.3201  0.2969 -0.0822
  517ERGO    C1 7841  17.410   1.034   9.131  0.4554 -0.1104 -0.0006
  517ERGO    C2 7842  17.658   0.965   8.856  0.1806  0.2322  0.0106
  518ERGO   ROH 7843   8.768   6.528  10.412 -0.0009  0.0633 -0.0402
  518ERGO    R1 7844   8.828   6.399  10.167 -0.0013  0.0527 -0.0350
  518ERGO    R2 7845   8.715   6.158  10.094 -0.0122  0.0553 -0.0308
  518ERGO    R3 7846   8.644   6.296   9.871  0.0005  0.0535 -0.0357
  518ERGO    R4 7847   8.733   6.034   9.772 -0.0840  0.0224 -0.0225
  518ERGO    R5 7848   8.806   6.229   9.707 -0.0382 -0.0051 -0.0485
  518ERGO    C1 7849   8.678   6.092   9.375 -0.1139  0.0015 -0.0221
  518ERGO    C2 7850   8.607   6.020   9.091 -0.1063  0.0394  0.1230
  519ERGO   ROH 7851  13.849  13.289   6.359 -0.0365  0.2867  0.1246
  519ERGO    R1 7852  13.969  13.209   6.603 -0.0915  0.0483  0.0773
  519ERGO    R2 7853  13.959  13.364   6.832  0.0556 -0.0643  0.1664
  519ERGO    R3 7854  13.857  13.138   6.942 -0.1384 -0.0387  0.0426
  519ERGO    R4 7855  13.924  13.308   7.171 -0.1060 -0.1797  0.1313
  519ERGO    R5 7856  13.989  13.102   7.138 -0.2357 -0.2086  0.0759
  519ERGO    C1 7857  13.808  13.062   7.472 -0.3822 -0.2228 -0.0053
  519ERGO    C2 7858  13.774  13.004   7.798 -0.1679 -0.2056 -0.1320
  520ERGO   ROH 7859   6.904  10.798  10.244  0.2873  0.0772  0.0792
  520ERGO    R1 7860   6.987  10.826   9.974  0.1814  0.1105  0.0485
  520ERGO    R2 7861   6.961  10.622   9.789  0.3335  0.0423  0.0921
  520ERGO    R3 7862   6.830  10.813   9.646  0.0933 -0.1148  0.0997
  520ERGO    R4 7863   6.998  10.674   9.449  0.1380  0.0131  0.0659
  520ERGO    R5 7864   6.991  10.889   9.487 -0.0526  0.0095  0.0172
  520ERGO    C1 7865   6.896  10.883   9.118 -0.2013 -0.1514  0.0576
  520ERGO    C2 7866   6.920  10.842   8.810 -0.0778 -0.2187 -0.0665
  521ERGO   ROH 7867   2.173  12.785   6.611  0.2438  0.4351 -0.2106
  521ERGO    R1 7868   2.220  13.004   6.784  0.1086  0.3113 -0.0124
  521ERGO    R2 7869   2.118  13.016   7.040  0.0905  0.0235 -0.0016
  521ERGO    R3 7870   2.378  13.056   7.108  0.0653  0.1147  0.0411
  521ERGO    R4 7871   2.226  13.119   7.351  0.0092 -0.0337  0.0455
  521ERGO    R5 7872   2.372  13.247   7.252 -0.0353  0.0639  0.1052
  521ERGO    C1 7873   2.533  13.216   7.597 -0.0619  0.0188  0.1130
  521ERGO    C2 7874   2.492  13.215   7.848  0.0160 -0.0737 -0.1165
  522ERGO   ROH 7875   3.781   8.477   6.384 -0.4779 -0.1538  0.0479
  522ERGO    R1 7876   3.857   8.556   6.645 -0.1285 -0.2297 -0.0268
  522ERGO    R2 7877   3.673   8.608   6.844  0.1281 -0.0458  0.1633
  522ERGO    R3 7878   3.819   8.425   6.983  0.0898 -0.1910  0.0160
  522ERGO    R4 7879   3.727   8.616   7.185  0.0559 -0.3756  0.1862
  522ERGO    R5 7880   3.933   8.554   7.149  0.0633 -0.3533  0.1663
  522ERGO    C1 7881   3.894   8.449   7.514 -0.0221 -0.7039  0.0613
  522ERGO    C2 7882   4.095   8.428   7.793 -0.0490 -0.1670  0.2064
  523ERGO   ROH 7883  14.782  11.971  10.496  0.1227 -0.1110 -0.1336
  523ERGO    R1 7884  14.901  11.914  10.246  0.1735 -0.0634 -0.1215
  523ERGO    R2 7885  14.761  11.795  10.038  0.2501 -0.1428 -0.1302
  523ERGO    R3 7886  14.848  12.012   9.899  0.1538 -0.1053 -0.1303
  523ERGO    R4 7887  14.849  11.793   9.704  0.0682 -0.0662 -0.1789
  523ERGO    R5 7888  15.016  11.926   9.753  0.0826 -0.0604 -0.2404
  523ERGO    C1 7889  14.982  11.996   9.379 -0.1280  0.0136 -0.2074
  523ERGO    C2 7890  15.019  12.035   9.008 -0.1731 -0.4362 -0.1821
  524ERGO   ROH 7891   1.303   6.027   6.030  0.1623 -0.2601  0.0580
  524ERGO    R1 7892   1.489   6.039   6.243  0.1052  0.0230  0.0962
  524ERGO    R2 7893   1.460   6.212   6.456 -0.0928  0.1242 -0.0078
  524ERGO    R3 7894   1.482   5.985   6.603  0.0684  0.2252  0.1265
  524ERGO    R4 7895   1.499   6.202   6.799 -0.2097  0.3486  0.0135
  524ERGO    R5 7896   1.642   6.040   6.773 -0.0461  0.4685  0.1573
  524ERGO    C1 7897   1.543   5.983   7.137 -0.1264  0.5740  0.1518
  524ERGO    C2 7898   1.363   5.902   7.402  0.5422  0.1390  0.0435
  525ERGO   ROH 7899   4.107   3.607   6.142 -0.1621 -0.0894 -0.1469
  525ERGO    R1 7900   4.116   3.496   6.402  0.2954  0.1049 -0.0717
  525ERGO    R2 7901   4.268   3.606   6.605  0.0523  0.7306 -0.2106
  525ERGO    R3 7902   4.032   3.606   6.739  0.0875  0.0786 -0.1115
  525ERGO    R4 7903   4.234   3.666   6.943  0.0345  0.6829 -0.2032
  525ERGO    R5 7904   4.084   3.507   6.951  0.4690  0.2422 -0.1155
  525ERGO    C1 7905   3.991   3.700   7.266  0.0572  0.0430 -0.1058
  525ERGO    C2 7906   3.990   3.814   7.660 -0.0873  0.2141  0.3708
  526ERGO   ROH 7907  14.147   9.326  10.287  0.0074 -0.0478  0.0137
  526ERGO    R1 7908  14.079   9.214  10.036 -0.0160 -0.0502  0.0178
  526ERGO    R2 7909  14.052   9.367   9.807 -0.1588 -0.0284  0.0313
  526ERGO    R3 7910  14.232   9.189   9.708 -0.0980  0.0702 -0.0261
  526ERGO    R4 7911  14.145   9.344   9.475 -0.0206  0.1998  0.0548
  526ERGO    R5 7912  14.144   9.127   9.494  0.0053  0.1989 -0.0967
  526ERGO    C1 7913  14.368   9.164   9.188  0.1169  0.4251  0.0147
  526ERGO    C2 7914  14.421   9.023   8.833 -0.0742  0.1454  0.3947
  527ERGO   ROH 7915   0.148  16.645   6.156  0.0831 -0.1447  0.0311
  527ERGO    R1 7916   0.270  16.613   6.410  0.2092 -0.1595 -0.0300
  527ERGO    R2 7917   0.545  16.606   6.443  0.2384  0.2514 -0.1194
  527ERGO    R3 7918   0.495  16.806   6.620 -0.0341  0.0330  0.0584
  527ERGO    R4 7919   0.697  16.640   6.752  0.4497  0.3612 -0.2342
  527ERGO    R5 7920   0.505  16.700   6.835  0.3838 -0.1005 -0.0177
  527ERGO    C1 7921   0.739  16.847   7.098  0.3169  0.2202 -0.1340
  527ERGO    C2 7922   0.927  17.087   7.266 -0.1505 -0.4019 -0.1077
  528ERGO   ROH 7923  11.925   3.152  10.048  0.0633  0.3633 -0.0074
  528ERGO    R1 7924  12.039   3.162   9.789 -0.0840  0.5605 -0.0641
  528ERGO    R2 7925  12.042   2.944   9.619  0.3194  0.5264 -0.0014
  528ERGO    R3 7926  11.923   3.118   9.447 -0.1540  0.2212 -0.0045
  528ERGO    R4 7927  12.003   2.893   9.279  0.5426  0.4241 -0.0153
  528ERGO    R5 7928  12.051   3.102   9.247 -0.0409  0.5977  0.0172
  528ERGO    C1 7929  11.868   3.026   8.921  0.2281  0.0781 -0.0263
  528ERGO    C2 7930  11.737   3.035   8.549 -0.0763  0.0662 -0.3619
  529ERGO   ROH 7931   9.622   3.862  10.324 -0.0563  0.0476  0.0225
  529ERGO    R1 7932   9.723   3.846  10.060  0.0469  0.0164  0.0637
  529ERGO    R2 7933   9.673   3.631   9.894  0.1310 -0.0136  0.0779
  529ERGO    R3 7934   9.584   3.823   9.725  0.1782 -0.0480  0.0129
  529ERGO    R4 7935   9.582   3.577   9.565  0.0284 -0.1182  0.1224
  529ERGO    R5 7936   9.680   3.765   9.513  0.1018 -0.1853  0.0154
  529ERGO    C1 7937   9.446   3.726   9.214  0.0131 -0.2113  0.0874
  529ERGO    C2 7938   9.282   3.837   8.928 -0.1590  0.1190 -0.0422
  530ERGO   ROH 7939  14.270  11.693   5.995  0.2332  0.2912  0.1969
  530ERGO    R1 7940  14.167  11.488   6.162  0.1104  0.2494  0.0715
  530ERGO    R2 7941  14.329  11.302   6.286 -0.0016  0.0774 -0.0406
  530ERGO    R3 7942  14.202  11.388   6.510  0.0484  0.0146  0.0127
  530ERGO    R4 7943  14.370  11.165   6.601 -0.1215 -0.1838 -0.1354
  530ERGO    R5 7944  14.155  11.188   6.633 -0.1105 -0.0436 -0.1349
  530ERGO    C1 7945  14.274  11.167   6.994 -0.1444 -0.3948 -0.1407
  530ERGO    C2 7946  14.089  11.215   7.169 -0.1481  0.2037 -0.1057
  531ERGO   ROH 7947  13.818  17.579  10.434  0.1050 -0.1144  0.0231
  531ERGO    R1 7948  13.928  17.508  10.183  0.1123 -0.1240  0.0271
  531ERGO    R2 7949  13.878  17.264  10.062  0.0365 -0.0964 -0.0145
  531ERGO    R3 7950  13.800  17.421   9.854  0.1188 -0.0349  0.0027
  531ERGO    R4 7951  13.842  17.156   9.736 -0.1239 -0.0607 -0.0078
  531ERGO    R5 7952  13.931  17.343   9.669  0.0113 -0.1371 -0.0253
  531ERGO    C1 7953  13.748  17.240   9.350 -0.1400  0.0179  0.0123
  531ERGO    C2 7954  13.645  17.379   9.107  0.2183  0.1003  0.1814
  532ERGO   ROH 7955   9.789  11.631  10.048 -0.0008 -0.0735  0.0124
  532ERGO    R1 7956   9.778  11.737   9.786 -0.2583  0.0855  0.0842
  532ERGO    R2 7957   9.886  11.607   9.568  0.0403  0.4754 -0.0104
  532ERGO    R3 7958   9.636  11.639   9.466 -0.0501 -0.0312  0.0246
  532ERGO    R4 7959   9.805  11.585   9.233  0.0635  0.4169 -0.0124
  532ERGO    R5 7960   9.670  11.754   9.259 -0.3123  0.1251  0.0607
  532ERGO    C1 7961   9.523  11.602   8.942 -0.0079 -0.0930  0.0193
  532ERGO    C2 7962   9.336  11.685   8.624 -0.1604 -0.2806  0.0710
  533ERGO   ROH 7963   6.121   2.008  10.373  0.0646 -0.0132 -0.0137
  533ERGO    R1 7964   6.294   1.978  10.151 -0.0093 -0.0088 -0.0723
  533ERGO    R2 7965   6.212   1.867   9.911 -0.0491 -0.1430  0.0029
  533ERGO    R3 7966   6.307   2.099   9.808 -0.2098 -0.1327 -0.1254
  533ERGO    R4 7967   6.279   1.921   9.577 -0.2196 -0.2357 -0.0472
  533ERGO    R5 7968   6.458   2.030   9.635 -0.2479 -0.1223 -0.1639
  533ERGO    C1 7969   6.408   2.170   9.284 -0.4697 -0.2801 -0.1969
  533ERGO    C2 7970   6.347   2.206   9.044 -0.2800 -0.1557 -0.4516
  534ERGO   ROH 7971   7.957  14.845  10.328  0.1018  0.0576  0.0961
  534ERGO    R1 7972   7.937  15.030  10.115 -0.0071  0.0685  0.1154
  534ERGO    R2 7973   8.120  15.039   9.908 -0.0584  0.1444  0.0759
  534ERGO    R3 7974   7.898  15.014   9.753 -0.0849  0.0868  0.1221
  534ERGO    R4 7975   8.120  15.041   9.563 -0.1235  0.1181  0.0753
  534ERGO    R5 7976   7.938  15.161   9.569 -0.1491  0.0828  0.1024
  534ERGO    C1 7977   7.911  15.019   9.216 -0.1862  0.0489  0.1185
  534ERGO    C2 7978   7.936  14.953   8.982  0.0085  0.2847 -0.3063
  535ERGO   ROH 7979   8.825  12.086   9.988  0.0452 -0.0779  0.1518
  535ERGO    R1 7980   8.686  12.075   9.742  0.0066  0.0188  0.1687
  535ERGO    R2 7981   8.784  12.188   9.510  0.0464 -0.0294  0.1627
  535ERGO    R3 7982   8.746  11.938   9.411 -0.1186 -0.0021  0.1539
  535ERGO    R4 7983   8.762  12.111   9.174 -0.3431  0.0432  0.1669
  535ERGO    R5 7984   8.602  11.970   9.222 -0.3233  0.0679  0.3173
  535ERGO    C1 7985   8.714  11.832   8.885 -0.7248  0.1110  0.1610
  535ERGO    C2 7986   8.798  11.657   8.612 -0.3435  0.2430  0.0589
  536ERGO   ROH 7987  15.743   8.858   6.364  0.0772 -0.3054 -0.0323
  536ERGO    R1 7988  15.612   8.808   6.610 -0.0165 -0.1261 -0.0445
  536ERGO    R2 7989  15.732   8.671   6.817 -0.1600 -0.1334  0.0353
  536ERGO    R3 7990  15.666   8.893   6.960 -0.0428 -0.0348 -0.0622
  536ERGO    R4 7991  15.655   8.674   7.154 -0.1981  0.0488  0.0259
  536ERGO    R5 7992  15.497   8.818   7.112 -0.1068  0.1283 -0.0505
  536ERGO    C1 7993  15.549   8.884   7.484 -0.1103  0.2474 -0.0710
  536ERGO    C2 7994  15.504   8.753   7.776 -0.0399 -0.1991 -0.2404
  537ERGO   ROH 7995   0.601  12.821   6.377  0.1802 -0.1273 -0.1618
  537ERGO    R1 7996   0.714  12.706   6.609  0.1549  0.0555 -0.0582
  537ERGO    R2 7997   0.816  12.859   6.816 -0.1523  0.2217 -0.0252
  537ERGO    R3 7998   0.645  12.711   6.967 -0.0890  0.0665 -0.1034
  537ERGO    R4 7999   0.865  12.780   7.148 -0.0981  0.0324 -0.0773
  537ERGO    R5 8000   0.789  12.580   7.107 -0.0308  0.0294 -0.1959
  537ERGO    C1 8001   0.734  12.594   7.484 -0.0072 -0.2235 -0.1810
  537ERGO    C2 8002   0.566  12.469   7.865  0.1173 -0.1650  0.0582
  538ERGO   ROH 8003   3.148  10.524  10.262 -0.0188  0.1784 -0.0008
  538ERGO    R1 8004   3.184  10.610   9.995  0.0138  0.1451 -0.0067
  538ERGO    R2 8005   3.422  10.578   9.858 -0.0184 -0.0081 -0.0221
  538ERGO    R3 8006   3.263  10.454   9.675 -0.1070  0.0835 -0.0086
  538ERGO    R4 8007   3.442  10.622   9.516 -0.0681  0.0437 -0.0187
  538ERGO    R5 8008   3.224  10.620   9.508 -0.0750  0.1312  0.0269
  538ERGO    C1 8009   3.304  10.533   9.145 -0.1800  0.1599 -0.0041
  538ERGO    C2 8010   3.197  10.474   8.814 -0.0921  0.0081 -0.2301
  539ERGO   ROH 8011   5.716   5.145   9.776  0.0626 -0.2155  0.0495
  539ERGO    R1 8012   5.610   5.194   9.518  0.0124 -0.1295  0.0862
  539ERGO    R2 8013   5.747   5.338   9.326 -0.0294 -0.0592  0.1117
  539ERGO    R3 8014   5.704   5.116   9.175 -0.0506 -0.0075  0.0401
  539ERGO    R4 8015   5.837   5.304   8.994  0.0194  0.0213  0.1161
  539ERGO    R5 8016   5.648   5.201   8.958  0.0021  0.0693  0.0546
  539ERGO    C1 8017   5.848   5.075   8.659  0.0279  0.1167  0.0514
  539ERGO    C2 8018   6.034   4.956   8.382 -0.2782  0.4851 -0.1224
  540ERGO   ROH 8019   1.554   9.774  10.295  0.0638  0.2026  0.0859
  540ERGO    R1 8020   1.643   9.779  10.026  0.1546  0.1578  0.1148
  540ERGO    R2 8021   1.470   9.813   9.813  0.1889 -0.1506  0.0329
  540ERGO    R3 8022   1.639  10.017   9.751 -0.0167  0.0096 -0.0143
  540ERGO    R4 8023   1.540   9.922   9.492  0.1399 -0.2098  0.0017
  540ERGO    R5 8024   1.749   9.945   9.551  0.1059  0.0413  0.0396
  540ERGO    C1 8025   1.740  10.177   9.248 -0.0815 -0.0938 -0.0608
  540ERGO    C2 8026   1.788  10.244   8.882  0.2360  0.0510 -0.0362
  541ERGO   ROH 8027  10.943  13.759  10.038 -0.0656  0.1452  0.0951
  541ERGO    R1 8028  10.925  13.827   9.764  0.1780  0.1411  0.0774
  541ERGO    R2 8029  11.149  13.874   9.608  0.3337 -0.2418  0.1816
  541ERGO    R3 8030  11.037  13.684   9.449  0.0996 -0.0824  0.1479
  541ERGO    R4 8031  11.190  13.853   9.265  0.1492 -0.1103  0.1493
  541ERGO    R5 8032  10.979  13.800   9.248  0.0906  0.0646  0.2291
  541ERGO    C1 8033  11.109  13.662   8.917 -0.1781  0.1158  0.0988
  541ERGO    C2 8034  11.392  13.417   8.762  0.1691 -0.1048  0.2111
  542ERGO   ROH 8035   8.136   3.630   6.460  0.0176 -0.0724 -0.0066
  542ERGO    R1 8036   8.294   3.617   6.695  0.0501 -0.0512 -0.0257
  542ERGO    R2 8037   8.281   3.809   6.893  0.1138 -0.0027 -0.0592
  542ERGO    R3 8038   8.233   3.594   7.053  0.0935  0.0365 -0.0143
  542ERGO    R4 8039   8.333   3.801   7.235  0.0252  0.0808 -0.0440
  542ERGO    R5 8040   8.411   3.599   7.213  0.0460  0.0883  0.0298
  542ERGO    C1 8041   8.319   3.595   7.583 -0.0456  0.1663  0.0069
  542ERGO    C2 8042   8.358   3.673   7.847  0.1263 -0.0069 -0.1907
  543ERGO   ROH 8043   1.276   0.877  10.342 -0.0358  0.3233 -0.1367
  543ERGO    R1 8044   1.279   0.766  10.081  0.0586  0.2831 -0.1194
  543ERGO    R2 8045   1.050   0.735   9.930  0.0758  0.0292 -0.1021
  543ERGO    R3 8046   1.191   0.877   9.746 -0.0744  0.1439 -0.1311
  543ERGO    R4 8047   1.011   0.709   9.587  0.0261  0.0043 -0.0943
  543ERGO    R5 8048   1.227   0.722   9.566  0.0108  0.1758 -0.1400
  543ERGO    C1 8049   1.121   0.827   9.215 -0.1438  0.0973 -0.1170
  543ERGO    C2 8050   1.036   0.977   8.900  0.0146  0.2294 -0.1085
  544ERGO   ROH 8051   7.861   1.686  10.430 -0.0765 -0.2241  0.1389
  544ERGO    R1 8052   7.908   1.775  10.165 -0.0635 -0.2075  0.1460
  544ERGO    R2 8053   8.105   1.668  10.005 -0.0350 -0.1783  0.1568
  544ERGO    R3 8054   7.899   1.630   9.832 -0.0169 -0.1960  0.1403
  544ERGO    R4 8055   8.137   1.634   9.662 -0.0307  0.1095  0.1267
  544ERGO    R5 8056   7.958   1.756   9.638 -0.1211 -0.0020  0.2334
  544ERGO    C1 8057   7.961   1.578   9.301 -0.0112  0.2605  0.0938
  544ERGO    C2 8058   7.903   1.586   8.905  0.1645  0.0263  0.1674
  545ERGO   ROH 8059   4.799  13.561  10.074 -0.1965 -0.1658  0.1259
  545ERGO    R1 8060   4.846  13.564   9.795 -0.1264 -0.1062  0.1383
  545ERGO    R2 8061   4.982  13.362   9.664 -0.0987 -0.0809  0.1291
  545ERGO    R3 8062   4.758  13.356   9.509 -0.0602 -0.0421  0.0708
  545ERGO    R4 8063   4.980  13.379   9.319 -0.0151  0.0323  0.1333
  545ERGO    R5 8064   4.805  13.509   9.331 -0.0247  0.0190  0.1323
  545ERGO    C1 8065   4.769  13.383   8.973  0.0697  0.1346  0.0810
  545ERGO    C2 8066   4.867  13.277   8.753 -0.0409 -0.3883 -0.0359
  546ERGO   ROH 8067  11.762   4.451  10.212 -0.2259  0.1512 -0.0155
  546ERGO    R1 8068  11.592   4.457   9.986 -0.1099  0.1421 -0.1042
  546ERGO    R2 8069  11.586   4.670   9.810  0.0245  0.1106 -0.1526
  546ERGO    R3 8070  11.634   4.477   9.625  0.0808  0.0620 -0.0870
  546ERGO    R4 8071  11.452   4.664   9.491  0.1186  0.0174 -0.1905
  546ERGO    R5 8072  11.424   4.448   9.512  0.1171  0.0258 -0.1409
  546ERGO    C1 8073  11.419   4.478   9.132  0.2263 -0.0824 -0.1510
  546ERGO    C2 8074  11.468   4.614   8.853 -0.1432 -0.0225 -0.0293
  547ERGO   ROH 8075   0.599   6.595   9.919 -0.1079  0.0713  0.0001
  547ERGO    R1 8076   0.610   6.380   9.736  0.1253  0.0667  0.0155
  547ERGO    R2 8077   0.397   6.311   9.574  0.1209 -0.3036  0.1626
  547ERGO    R3 8078   0.581   6.337   9.376 -0.0487 -0.0127  0.0390
  547ERGO    R4 8079   0.354   6.201   9.249  0.0182 -0.2156  0.1464
  547ERGO    R5 8080   0.562   6.135   9.249  0.0940  0.0193 -0.0307
  547ERGO    C1 8081   0.502   6.162   8.874 -0.2007  0.1086  0.0209
  547ERGO    C2 8082   0.463   5.895   8.565 -0.0932 -0.1477 -0.0346
  548ERGO   ROH 8083   1.671   2.347   9.971  0.4145  0.0645  0.0286
  548ERGO    R1 8084   1.790   2.292   9.721  0.2747 -0.0553 -0.0145
  548ERGO    R2 8085   1.661   2.149   9.523  0.1291 -0.0824  0.0898
  548ERGO    R3 8086   1.719   2.368   9.372  0.1234 -0.1450 -0.0018
  548ERGO    R4 8087   1.698   2.148   9.179  0.2297 -0.2323  0.1009
  548ERGO    R5 8088   1.866   2.286   9.201  0.1875 -0.1884  0.0805
  548ERGO    C1 8089   1.774   2.353   8.837  0.2829 -0.3783  0.0213
  548ERGO    C2 8090   1.729   2.468   8.558 -0.2730 -0.2918  0.0499
  549ERGO   ROH 8091   9.295  17.306   6.143  0.0669 -0.2224  0.1800
  549ERGO    R1 8092   9.150  17.466   6.326  0.2081  0.0113  0.0923
  549ERGO    R2 8093   9.013  17.359   6.542 -0.1561  0.2142 -0.0285
  549ERGO    R3 8094   9.162  17.538   6.683  0.0620 -0.0732  0.1152
  549ERGO    R4 8095   8.984  17.416   6.881 -0.1596  0.0552 -0.0018
  549ERGO    R5 8096   9.009  17.629   6.843  0.1481  0.0473  0.1299
  549ERGO    C1 8097   9.106  17.616   7.212  0.0430 -0.3071  0.1487
  549ERGO    C2 8098   9.148  17.602   7.566  0.1730 -0.2699  0.0941
  550ERGO   ROH 8099  16.498  14.487  10.187  0.0541 -0.2502  0.1972
  550ERGO    R1 8100  16.573  14.268  10.024 -0.0061 -0.2270  0.1393
  550ERGO    R2 8101  16.389  14.095   9.912 -0.0623 -0.0598 -0.0257
  550ERGO    R3 8102  16.514  14.162   9.681  0.0938 -0.0408  0.0625
  550ERGO    R4 8103  16.399  13.898   9.629 -0.0354  0.0430 -0.0978
  550ERGO    R5 8104  16.607  13.956   9.602  0.0147 -0.0657  0.0301
  550ERGO    C1 8105  16.523  13.845   9.247  0.1269  0.1208 -0.0571
  550ERGO    C2 8106  16.647  13.749   9.084  0.0813  0.1434 -0.0688
  551ERGO   ROH 8107  17.541   8.095   6.100  0.0276 -0.0908  0.1445
  551ERGO    R1 8108  17.408   8.031   6.341  0.0335  0.0643  0.1906
  551ERGO    R2 8109  17.506   7.843   6.519 -0.1380 -0.0735  0.1445
  551ERGO    R3 8110  17.485   8.047   6.697  0.1896 -0.0510  0.1628
  551ERGO    R4 8111  17.509   7.806   6.862 -0.5404 -0.1556  0.1435
  551ERGO    R5 8112  17.352   7.957   6.875 -0.1968  0.2256  0.0257
  551ERGO    C1 8113  17.491   7.976   7.230 -0.4671 -0.1824  0.1600
  551ERGO    C2 8114  17.405   7.987   7.520 -0.0449 -0.3287  0.1735
  552ERGO   ROH 8115  11.666  10.492   6.644  0.1097 -0.1092  0.0666
  552ERGO    R1 8116  11.519  10.624   6.847  0.2812 -0.0770  0.1708
  552ERGO    R2 8117  11.257  10.560   6.907  0.1229  0.3533 -0.0307
  552ERGO    R3 8118  11.356  10.532   7.159 -0.0349 -0.1634 -0.0152
  552ERGO    R4 8119  11.079  10.619   7.197  0.1394  0.4531 -0.0397
  552ERGO    R5 8120  11.257  10.712   7.282  0.3363 -0.0549  0.1413
  552ERGO    C1 8121  11.067  10.626   7.602  0.0009  0.0264 -0.0305
  552ERGO    C2 8122  10.968  10.672   7.969 -0.1626 -0.2484  0.2956
  553ERGO   ROH 8123  11.947  11.962  10.386  0.3245  0.2342 -0.0476
  553ERGO    R1 8124  11.810  11.910  10.144  0.1978  0.1930  0.0320
  553ERGO    R2 8125  11.812  12.085   9.930  0.2110  0.0898 -0.0568
  553ERGO    R3 8126  11.898  11.866   9.794  0.0359 -0.0268  0.0178
  553ERGO    R4 8127  11.748  12.022   9.596  0.0916 -0.0249 -0.0126
  553ERGO    R5 8128  11.717  11.812   9.647 -0.0305  0.0208  0.0871
  553ERGO    C1 8129  11.790  11.779   9.274 -0.1423 -0.2011  0.0833
  553ERGO    C2 8130  11.961  11.753   8.967 -0.1922 -0.2318 -0.3188
  554ERGO   ROH 8131   4.525  10.835  10.166 -0.0237 -0.2408  0.1216
  554ERGO    R1 8132   4.612  10.768   9.905 -0.1481 -0.4021  0.1192
  554ERGO    R2 8133   4.440  10.672   9.711 -0.3513 -0.0212  0.0948
  554ERGO    R3 8134   4.540  10.879   9.566  0.1022 -0.2083  0.1287
  554ERGO    R4 8135   4.416  10.703   9.367 -0.3159  0.1141  0.1047
  554ERGO    R5 8136   4.620  10.777   9.364 -0.1450 -0.3442  0.1003
  554ERGO    C1 8137   4.496  10.915   9.031  0.1303  0.0174  0.1423
  554ERGO    C2 8138   4.511  10.989   8.680 -0.1280  0.1618  0.0534
  555ERGO   ROH 8139  15.534   5.322  10.107  0.0566 -0.1030  0.0484
  555ERGO    R1 8140  15.494   5.200   9.855 -0.0433 -0.0384  0.0327
  555ERGO    R2 8141  15.248   5.103   9.773 -0.1132  0.1345  0.0375
  555ERGO    R3 8142  15.292   5.265   9.559 -0.0257  0.1387  0.0579
  555ERGO    R4 8143  15.200   5.013   9.443 -0.2095  0.2159  0.0286
  555ERGO    R5 8144  15.382   5.120   9.392 -0.1406  0.1014  0.0262
  555ERGO    C1 8145  15.213   5.112   9.050 -0.1834  0.2673  0.0424
  555ERGO    C2 8146  15.280   5.236   8.774 -0.3685  0.0864  0.0717
  556ERGO   ROH 8147  12.945   7.782  10.366 -0.1899  0.1754 -0.0062
  556ERGO    R1 8148  12.944   7.958  10.144 -0.0615  0.1503 -0.0263
  556ERGO    R2 8149  13.170   8.007   9.992 -0.0393 -0.0758 -0.0640
  556ERGO    R3 8150  13.008   7.933   9.786 -0.1380  0.0498 -0.0343
  556ERGO    R4 8151  13.181   8.143   9.675  0.1006 -0.1716 -0.1019
  556ERGO    R5 8152  12.962   8.138   9.671  0.0890  0.0761 -0.0869
  556ERGO    C1 8153  13.036   8.153   9.296  0.0895 -0.1094 -0.0963
  556ERGO    C2 8154  12.955   8.212   8.937  0.2568  0.0658  0.0064
  557ERGO   ROH 8155   4.837   8.939   6.399  0.2277  0.1751  0.0967
  557ERGO    R1 8156   4.936   8.964   6.663  0.0785  0.2535  0.1457
  557ERGO    R2 8157   4.889   9.187   6.819 -0.2061  0.2028  0.1371
  557ERGO    R3 8158   4.793   9.005   6.996 -0.1204  0.1022  0.0814
  557ERGO    R4 8159   4.841   9.246   7.156 -0.2800  0.0947  0.1461
  557ERGO    R5 8160   4.918   9.046   7.196 -0.1665  0.1278  0.1060
  557ERGO    C1 8161   4.723   9.109   7.519 -0.2426 -0.0625  0.0990
  557ERGO    C2 8162   4.709   9.090   7.918  0.0351  0.0285  0.1814
  558ERGO   ROH 8163  15.419   1.442   6.722  0.1062 -0.1474  0.0935
  558ERGO    R1 8164  15.453   1.339   6.984 -0.1941 -0.2375  0.1014
  558ERGO    R2 8165  15.617   1.460   7.171  0.1194 -0.6613  0.1164
  558ERGO    R3 8166  15.392   1.456   7.323  0.0749 -0.0557  0.0901
  558ERGO    R4 8167  15.613   1.438   7.515  0.0165 -0.5672  0.1211
  558ERGO    R5 8168  15.443   1.302   7.500 -0.3343 -0.1496  0.1346
  558ERGO    C1 8169  15.399   1.421   7.859 -0.0851  0.0562  0.0991
  558ERGO    C2 8170  15.217   1.542   8.159  0.0595 -0.0084  0.1394
  559ERGO   ROH 8171   5.575   0.398   6.343 -0.1642 -0.1305  0.0255
  559ERGO    R1 8172   5.589   0.325   6.617 -0.0997  0.0732  0.0787
  559ERGO    R2 8173   5.749   0.458   6.798 -0.1358  0.2786 -0.0324
  559ERGO    R3 8174   5.517   0.484   6.936 -0.1331  0.2755 -0.0285
  559ERGO    R4 8175   5.727   0.546   7.131 -0.1183 -0.0507  0.0592
  559ERGO    R5 8176   5.568   0.399   7.154 -0.2073  0.0205 -0.1092
  559ERGO    C1 8177   5.495   0.622   7.455 -0.1055 -0.2455  0.1162
  559ERGO    C2 8178   5.576   0.652   7.746 -0.3491  0.0219  0.1202
  560ERGO   ROH 8179  15.393  13.711   6.577 -0.1058 -0.1879 -0.1213
  560ERGO    R1 8180  15.381  13.531   6.795 -0.2104 -0.0685 -0.0273
  560ERGO    R2 8181  15.604  13.457   6.940 -0.2481 -0.1544 -0.0162
  560ERGO    R3 8182  15.456  13.542   7.151 -0.1632  0.0583 -0.0395
  560ERGO    R4 8183  15.665  13.372   7.269 -0.2203  0.0197  0.0244
  560ERGO    R5 8184  15.449  13.352   7.298 -0.2295  0.1493  0.0813
  560ERGO    C1 8185  15.561  13.402   7.660 -0.1244  0.3207  0.0261
  560ERGO    C2 8186  15.613  13.381   7.877 -0.1118 -0.0776 -0.1665
  561ERGO   ROH 8187   5.949  14.194  10.306 -0.0136 -0.3846  0.0713
  561ERGO    R1 8188   6.029  14.333  10.073  0.0738 -0.2561  0.1771
  561ERGO    R2 8189   6.145  14.207   9.856  0.0593 -0.1527  0.1108
  561ERGO    R3 8190   5.944  14.327   9.719  0.1261  0.0156  0.1576
  561ERGO    R4 8191   6.153  14.282   9.519  0.1000 -0.0330  0.1374
  561ERGO    R5 8192   6.055  14.471   9.563  0.2097  0.0093  0.2092
  561ERGO    C1 8193   5.968  14.439   9.193  0.1864  0.1947  0.1968
  561ERGO    C2 8194   6.035  14.532   8.860 -0.1752 -0.0855 -0.0866
  562ERGO   ROH 8195  10.960  16.554   6.397  0.2296 -0.0871  0.1023
  562ERGO    R1 8196  10.761  16.526   6.597  0.1629 -0.1575  0.0278
  562ERGO    R2 8197  10.809  16.398   6.837  0.1104 -0.1620  0.0396
  562ERGO    R3 8198  10.717  16.631   6.942  0.0075 -0.1940  0.0188
  562ERGO    R4 8199  10.637  16.426   7.135  0.0312 -0.2159 -0.0015
  562ERGO    R5 8200  10.506  16.573   7.041  0.0056 -0.2613 -0.0301
  562ERGO    C1 8201  10.449  16.661   7.408 -0.1114 -0.2770 -0.0451
  562ERGO    C2 8202  10.524  16.833   7.782  0.1681  0.1444  0.0299
  563ERGO   ROH 8203  14.292   2.969  10.459  0.0805  0.0516  0.1813
  563ERGO    R1 8204  14.144   3.165  10.319  0.1961  0.1107  0.1407
  563ERGO    R2 8205  14.249   3.307  10.107  0.2473 -0.0693  0.0431
  563ERGO    R3 8206  14.028   3.215   9.977  0.1299  0.0510  0.1539
  563ERGO    R4 8207  14.137   3.424   9.802  0.2460 -0.1133  0.0266
  563ERGO    R5 8208  13.933   3.411   9.878  0.2574  0.0860  0.0984
  563ERGO    C1 8209  13.865   3.407   9.502  0.1351 -0.0260  0.1210
  563ERGO    C2 8210  13.716   3.360   9.125 -0.0533 -0.0582  0.2466
  564ERGO   ROH 8211   4.828   9.564  10.243  0.3950  0.1487  0.1019
  564ERGO    R1 8212   4.917   9.449  10.000  0.3946  0.1523  0.1002
  564ERGO    R2 8213   4.742   9.361   9.805  0.3921  0.0549  0.1465
  564ERGO    R3 8214   4.889   9.525   9.646  0.2944  0.0931  0.0948
  564ERGO    R4 8215   4.750   9.347   9.460  0.2802  0.0518  0.1435
  564ERGO    R5 8216   4.965   9.385   9.468  0.2735  0.1106  0.0714
  564ERGO    C1 8217   4.892   9.494   9.109  0.1233  0.0858  0.0933
  564ERGO    C2 8218   5.101   9.498   8.815 -0.0885 -0.2849 -0.2006
  565ERGO   ROH 8219   0.407  10.083   9.952  0.2429  0.0540  0.0404
  565ERGO    R1 8220   0.543  10.143   9.711  0.1038  0.0366 -0.0439
  565ERGO    R2 8221   0.614   9.949   9.527  0.0359  0.0172 -0.0518
  565ERGO    R3 8222   0.477  10.109   9.355 -0.0839 -0.0325 -0.0035
  565ERGO    R4 8223   0.668   9.963   9.187  0.0481  0.1859 -0.0434
  565ERGO    R5 8224   0.642  10.179   9.196 -0.1310  0.1615  0.0328
  565ERGO    C1 8225   0.572  10.121   8.826 -0.0572  0.2375  0.0069
  565ERGO    C2 8226   0.821  10.057   8.662 -0.0221  0.0736 -0.2111
  566ERGO   ROH 8227   2.252   1.219   9.972 -0.1629 -0.2224  0.0433
  566ERGO    R1 8228   2.105   1.204   9.731 -0.1251 -0.1764  0.0167
  566ERGO    R2 8229   2.145   1.379   9.521 -0.1647 -0.0699  0.0949
  566ERGO    R3 8230   2.180   1.150   9.378 -0.0560  0.0028  0.0035
  566ERGO    R4 8231   2.091   1.348   9.181 -0.1510  0.0364  0.0829
  566ERGO    R5 8232   2.002   1.152   9.218 -0.0566 -0.0200  0.0060
  566ERGO    C1 8233   2.093   1.114   8.849 -0.0410  0.1666 -0.0099
  566ERGO    C2 8234   2.126   0.944   8.591  0.2374 -0.3448 -0.2119
  567ERGO   ROH 8235   0.275   0.998  10.163  0.2681 -0.1147 -0.0267
  567ERGO    R1 8236   0.173   1.138   9.939  0.2110 -0.0614  0.0312
  567ERGO    R2 8237   0.337   1.244   9.744  0.1573 -0.0649 -0.0150
  567ERGO    R3 8238   0.179   1.098   9.577  0.0667 -0.0075  0.0213
  567ERGO    R4 8239   0.290   1.311   9.408  0.1720 -0.0808 -0.0191
  567ERGO    R5 8240   0.079   1.261   9.433  0.1427  0.0318  0.0072
  567ERGO    C1 8241   0.115   1.214   9.056  0.0956 -0.0362  0.0126
  567ERGO    C2 8242  -0.066   1.393   8.782  0.0370 -0.1454 -0.1421
  568ERGO   ROH 8243  15.011   0.492  10.210 -0.1173 -0.1457  0.1944
  568ERGO    R1 8244  14.972   0.456   9.932  0.0562 -0.0328  0.1537
  568ERGO    R2 8245  14.738   0.526   9.804  0.0451 -0.1998  0.0795
  568ERGO    R3 8246  14.906   0.668   9.644 -0.0175  0.0608  0.2391
  568ERGO    R4 8247  14.686   0.587   9.468  0.2837 -0.3097  0.0204
  568ERGO    R5 8248  14.899   0.553   9.434  0.3787  0.0295  0.2357
  568ERGO    C1 8249  14.813   0.755   9.122  0.3639 -0.1290  0.1357
  568ERGO    C2 8250  14.821   0.795   8.726  0.4547 -0.1171  0.1155
  569ERGO   ROH 8251  11.878  14.374  10.267 -0.0810  0.0101 -0.1834
  569ERGO    R1 8252  11.760  14.363  10.010 -0.1575 -0.1361 -0.1430
  569ERGO    R2 8253  11.841  14.527   9.802 -0.3978 -0.0687 -0.1843
  569ERGO    R3 8254  11.870  14.290   9.671 -0.1945 -0.0505 -0.1747
  569ERGO    R4 8255  11.899  14.494   9.463 -0.3099 -0.0253 -0.1736
  569ERGO    R5 8256  11.763  14.325   9.461 -0.1840 -0.1322 -0.1960
  569ERGO    C1 8257  11.961  14.253   9.143 -0.0680  0.0170 -0.1582
  569ERGO    C2 8258  12.105  14.257   8.879  0.0462 -0.0500  0.1793
  570ERGO   ROH 8259  15.484   7.184  10.303 -0.1964 -0.3379 -0.1295
  570ERGO    R1 8260  15.410   7.184  10.030 -0.1399 -0.1393 -0.1460
  570ERGO    R2 8261  15.287   7.400   9.909 -0.0567 -0.0267 -0.0308
  570ERGO    R3 8262  15.494   7.378   9.734 -0.0262  0.0333 -0.0030
  570ERGO    R4 8263  15.282   7.513   9.583 -0.0465 -0.0325 -0.0332
  570ERGO    R5 8264  15.389   7.332   9.524  0.0159 -0.0013 -0.0167
  570ERGO    C1 8265  15.473   7.558   9.228 -0.0120  0.0204 -0.0085
  570ERGO    C2 8266  15.544   7.666   8.767  0.3905  0.0047 -0.1077
  571ERGO   ROH 8267   8.344  16.692   6.084  0.1739 -0.0487  0.0436
  571ERGO    R1 8268   8.350  16.695   6.367  0.3216  0.0421  0.0411
  571ERGO    R2 8269   8.208  16.513   6.521  0.0589  0.3494  0.1758
  571ERGO    R3 8270   8.452  16.467   6.632  0.0390 -0.0606  0.0655
  571ERGO    R4 8271   8.263  16.439   6.854  0.0972  0.4312  0.1878
  571ERGO    R5 8272   8.439  16.568   6.849  0.3508  0.0930  0.0186
  571ERGO    C1 8273   8.524  16.353   7.152  0.1007  0.0939  0.0913
  571ERGO    C2 8274   8.603  16.356   7.463 -0.0956 -0.1036  0.0756
  572ERGO   ROH 8275   6.515  12.888  10.144 -0.0264 -0.2041  0.0123
  572ERGO    R1 8276   6.547  12.737   9.907  0.0229 -0.0633 -0.0736
  572ERGO    R2 8277   6.343  12.586   9.798  0.1115 -0.1906 -0.0765
  572ERGO    R3 8278   6.398  12.731   9.575 -0.0900 -0.0287 -0.0227
  572ERGO    R4 8279   6.243  12.501   9.478  0.1329 -0.1445 -0.0943
  572ERGO    R5 8280   6.438  12.566   9.406  0.0471  0.0944 -0.1077
  572ERGO    C1 8281   6.237  12.589   9.083 -0.0438  0.0344 -0.0543
  572ERGO    C2 8282   6.080  12.606   8.829  0.2284 -0.2324  0.0729
  573ERGO   ROH 8283   4.460   7.279   6.361 -0.0583 -0.1038 -0.0004
  573ERGO    R1 8284   4.340   7.186   6.600  0.0489 -0.0365  0.0790
  573ERGO    R2 8285   4.485   7.134   6.829  0.1175  0.2088  0.0935
  573ERGO    R3 8286   4.307   7.305   6.942  0.0240  0.1501  0.0083
  573ERGO    R4 8287   4.422   7.159   7.168 -0.1205  0.1464  0.0567
  573ERGO    R5 8288   4.211   7.181   7.122 -0.0762  0.1184 -0.0777
  573ERGO    C1 8289   4.218   7.335   7.471 -0.3468  0.0551 -0.0446
  573ERGO    C2 8290   4.185   7.281   7.789  0.3415 -0.0260  0.0067
  574ERGO   ROH 8291   1.378   3.193   6.292 -0.1099  0.2328  0.0621
  574ERGO    R1 8292   1.481   3.309   6.529 -0.0429  0.2517  0.0245
  574ERGO    R2 8293   1.338   3.490   6.682 -0.0352  0.1990  0.0992
  574ERGO    R3 8294   1.392   3.314   6.882  0.1074  0.2017  0.0635
  574ERGO    R4 8295   1.318   3.562   7.019 -0.1182  0.1056  0.1143
  574ERGO    R5 8296   1.500   3.446   7.050 -0.0186  0.2585  0.0987
  574ERGO    C1 8297   1.356   3.440   7.403 -0.0326  0.0537  0.0897
  574ERGO    C2 8298   1.320   3.581   7.665 -0.1216 -0.1038 -0.2722
  575ERGO   ROH 8299   8.344   9.630   6.124  0.1760  0.0359  0.0542
  575ERGO    R1 8300   8.178   9.771   6.304  0.1132  0.0706 -0.0279
  575ERGO    R2 8301   7.971   9.649   6.443  0.0101  0.1131 -0.1319
  575ERGO    R3 8302   8.099   9.754   6.659 -0.0720  0.0793 -0.0688
  575ERGO    R4 8303   7.843   9.657   6.764 -0.1197  0.0915 -0.1843
  575ERGO    R5 8304   7.925   9.858   6.786 -0.1132  0.0791 -0.1296
  575ERGO    C1 8305   7.888   9.760   7.153 -0.2724  0.0470 -0.1555
  575ERGO    C2 8306   7.881   9.616   7.424 -0.0476 -0.2844 -0.1198
  576ERGO   ROH 8307   2.811   6.663   6.261  0.3719  0.0032 -0.0240
  576ERGO    R1 8308   2.962   6.747   6.485  0.1966  0.1207  0.0519
  576ERGO    R2 8309   2.844   6.833   6.720  0.0111 -0.0331  0.0177
  576ERGO    R3 8310   3.001   6.642   6.831  0.1594  0.1054  0.0515
  576ERGO    R4 8311   2.905   6.800   7.059 -0.1944 -0.0973  0.0504
  576ERGO    R5 8312   3.113   6.753   7.011 -0.1008  0.1669  0.1797
  576ERGO    C1 8313   3.089   6.601   7.360 -0.1747 -0.0047  0.1011
  576ERGO    C2 8314   2.999   6.479   7.620 -0.2917  0.0343  0.1644
  577ERGO   ROH 8315   0.229   3.359  10.073 -0.0887  0.0915  0.1442
  577ERGO    R1 8316   0.100   3.236   9.852 -0.1863  0.1429  0.1702
  577ERGO    R2 8317  -0.045   3.380   9.666  0.0722  0.2458  0.0346
  577ERGO    R3 8318   0.121   3.257   9.489 -0.0302 -0.0878  0.1653
  577ERGO    R4 8319  -0.119   3.321   9.333  0.2773  0.5551 -0.0694
  577ERGO    R5 8320  -0.025   3.125   9.352 -0.2102  0.3129 -0.0399
  577ERGO    C1 8321  -0.006   3.171   8.974  0.3009  0.4220 -0.0072
  577ERGO    C2 8322   0.072   2.978   8.713  0.1866  0.0079  0.0393
  578ERGO   ROH 8323   3.443   7.563   6.214  0.0395 -0.2770  0.0893
  578ERGO    R1 8324   3.461   7.690   6.466 -0.1467 -0.0247 -0.0200
  578ERGO    R2 8325   3.238   7.753   6.616 -0.2489 -0.1500 -0.1082
  578ERGO    R3 8326   3.368   7.612   6.809 -0.1038  0.1717  0.0360
  578ERGO    R4 8327   3.150   7.749   6.951 -0.6126 -0.3671 -0.2022
  578ERGO    R5 8328   3.362   7.755   7.001 -0.6751  0.1647  0.0361
  578ERGO    C1 8329   3.221   7.613   7.326 -0.6882 -0.1915 -0.1215
  578ERGO    C2 8330   3.234   7.482   7.708  0.1032 -0.0799  0.3585
  579ERGO   ROH 8331   8.451   1.054   6.201  0.0155 -0.2471 -0.0851
  579ERGO    R1 8332   8.598   0.988   6.434  0.0201 -0.0216 -0.0210
  579ERGO    R2 8333   8.660   1.174   6.628 -0.2374  0.1083 -0.0579
  579ERGO    R3 8334   8.540   0.993   6.793 -0.0957  0.0244 -0.0382
  579ERGO    R4 8335   8.700   1.161   6.971 -0.2134  0.1707 -0.0589
  579ERGO    R5 8336   8.706   0.944   6.958 -0.0457  0.1665 -0.0408
  579ERGO    C1 8337   8.612   0.985   7.325 -0.0664  0.1283 -0.0410
  579ERGO    C2 8338   8.430   0.856   7.637 -0.0419 -0.3041 -0.0958
  580ERGO   ROH 8339   3.440   0.837  10.210 -0.0875  0.1808 -0.0007
  580ERGO    R1 8340   3.531   0.805   9.944  0.0813  0.1083  0.0635
  580ERGO    R2 8341   3.429   0.613   9.774  0.1456  0.0987  0.0286
  580ERGO    R3 8342   3.387   0.826   9.610  0.3045  0.0805 -0.0352
  580ERGO    R4 8343   3.457   0.604   9.429  0.1688 -0.0144  0.0341
  580ERGO    R5 8344   3.553   0.801   9.438  0.3003 -0.0787 -0.0140
  580ERGO    C1 8345   3.434   0.799   9.075  0.3315 -0.0974 -0.0226
  580ERGO    C2 8346   3.327   0.586   8.789  0.0720 -0.0023 -0.1096
  581ERGO   ROH 8347   1.692  12.092  10.293 -0.0180  0.3284 -0.0388
  581ERGO    R1 8348   1.776  11.979  10.048  0.1096  0.1791  0.0723
  581ERGO    R2 8349   1.626  11.996   9.817  0.1395 -0.1275  0.0300
  581ERGO    R3 8350   1.855  12.100   9.714  0.0827 -0.0489 -0.0199
  581ERGO    R4 8351   1.690  12.037   9.480  0.0609 -0.1447  0.0124
  581ERGO    R5 8352   1.895  11.971   9.516  0.0972 -0.0613 -0.0128
  581ERGO    C1 8353   1.942  12.158   9.187 -0.0381 -0.0808 -0.0448
  581ERGO    C2 8354   1.926  12.402   8.954 -0.0543  0.1150 -0.1857
  582ERGO   ROH 8355  12.940  13.822   6.301 -0.1541  0.0137  0.0945
  582ERGO    R1 8356  13.027  13.894   6.561 -0.0418  0.0203  0.0547
  582ERGO    R2 8357  12.869  13.862   6.784  0.0089  0.1443  0.1040
  582ERGO    R3 8358  13.084  13.724   6.878 -0.0340  0.0551  0.0733
  582ERGO    R4 8359  12.938  13.809   7.119 -0.0588 -0.0208  0.0929
  582ERGO    R5 8360  13.149  13.843   7.075 -0.0408 -0.0448  0.1403
  582ERGO    C1 8361  13.179  13.647   7.401 -0.1386 -0.2009  0.0577
  582ERGO    C2 8362  13.227  13.645   7.754 -0.2590  0.2485  0.2782
  583ERGO   ROH 8363  10.387   0.826  10.239  0.1770  0.1139 -0.0240
  583ERGO    R1 8364  10.274   0.711  10.006  0.0847  0.0113  0.0714
  583ERGO    R2 8365  10.098   0.847   9.843  0.1072 -0.0246  0.0267
  583ERGO    R3 8366  10.276   0.781   9.649  0.0365 -0.2157  0.0230
  583ERGO    R4 8367  10.031   0.850   9.504  0.1565  0.2745  0.0164
  583ERGO    R5 8368  10.145   0.666   9.485 -0.1388  0.0847 -0.0628
  583ERGO    C1 8369  10.159   0.790   9.124  0.1187  0.2691  0.0068
  583ERGO    C2 8370  10.013   0.835   8.782  0.1725  0.0350  0.1344
  584ERGO   ROH 8371  11.260   6.857  10.109 -0.1171 -0.1859  0.1798
  584ERGO    R1 8372  11.109   6.754   9.893 -0.0905 -0.1728  0.1559
  584ERGO    R2 8373  10.927   6.907   9.752 -0.1677 -0.2004  0.2291
  584ERGO    R3 8374  11.074   6.824   9.538 -0.1520 -0.0601  0.1837
  584ERGO    R4 8375  10.823   6.920   9.423 -0.1420  0.0223  0.2278
  584ERGO    R5 8376  10.914   6.725   9.390 -0.1428  0.0407  0.1038
  584ERGO    C1 8377  10.899   6.851   9.031 -0.1124  0.2838  0.1843
  584ERGO    C2 8378  10.843   6.934   8.681 -0.1197 -0.1226 -0.1010
  585ERGO   ROH 8379  16.335  15.430   6.441 -0.0805  0.2175 -0.0230
  585ERGO    R1 8380  16.291  15.558   6.689 -0.1409  0.3394 -0.0956
  585ERGO    R2 8381  16.463  15.530   6.904 -0.4195  0.0833  0.1025
  585ERGO    R3 8382  16.466  15.801   6.896  0.0502  0.0856  0.0475
  585ERGO    R4 8383  16.530  15.735   7.174 -0.3928  0.0256  0.1404
  585ERGO    R5 8384  16.372  15.868   7.105 -0.0914  0.2855 -0.0768
  585ERGO    C1 8385  16.571  16.109   7.324  0.0637 -0.0059  0.1107
  585ERGO    C2 8386  16.460  16.217   7.598  0.3377  0.0729  0.0214
  586ERGO   ROH 8387  12.348   4.061  10.169  0.0388  0.0350 -0.1241
  586ERGO    R1 8388  12.462   4.165   9.931  0.1459  0.0190 -0.0803
  586ERGO    R2 8389  12.583   4.005   9.742  0.0643 -0.0150 -0.1027
  586ERGO    R3 8390  12.408   4.127   9.573  0.1734  0.1489 -0.0995
  586ERGO    R4 8391  12.600   3.993   9.397  0.0626 -0.0199 -0.1024
  586ERGO    R5 8392  12.544   4.204   9.392  0.2491  0.0348 -0.0947
  586ERGO    C1 8393  12.445   4.101   9.038  0.1638  0.1312 -0.0992
  586ERGO    C2 8394  12.495   3.905   8.843  0.0199  0.1509 -0.0314
  587ERGO   ROH 8395  17.194  10.225  10.161 -0.1293 -0.1155 -0.0144
  587ERGO    R1 8396  17.201  10.042   9.945  0.0152 -0.1103 -0.0137
  587ERGO    R2 8397  17.114  10.108   9.691 -0.1322 -0.2097  0.0143
  587ERGO    R3 8398  17.363  10.024   9.620 -0.0561  0.0662 -0.0614
  587ERGO    R4 8399  17.219  10.054   9.366 -0.2279 -0.2359 -0.0132
  587ERGO    R5 8400  17.325   9.876   9.435  0.0322 -0.0762  0.0275
  587ERGO    C1 8401  17.513   9.943   9.110 -0.2124  0.0078 -0.1001
  587ERGO    C2 8402  17.585   9.816   8.830  0.1078 -0.1667 -0.1995
  588ERGO   ROH 8403   8.411   7.212  10.119  0.1727 -0.0307  0.1028
  588ERGO    R1 8404   8.376   7.196   9.839  0.2092 -0.0661  0.0989
  588ERGO    R2 8405   8.209   7.367   9.701  0.1113 -0.1707  0.0702
  588ERGO    R3 8406   8.432   7.415   9.553  0.1034 -0.0407  0.1007
  588ERGO    R4 8407   8.210   7.473   9.371  0.1110 -0.4997 -0.0381
  588ERGO    R5 8408   8.376   7.337   9.334  0.2868 -0.3273  0.1585
  588ERGO    C1 8409   8.420   7.578   9.041  0.1034 -0.5691 -0.0726
  588ERGO    C2 8410   8.342   7.614   8.686  0.2638 -0.0573  0.0369
  589ERGO   ROH 8411  11.465   9.891  10.440  0.0358  0.2250 -0.0717
  589ERGO    R1 8412  11.351   9.894  10.181  0.1123  0.1996 -0.1057
  589ERGO    R2 8413  11.425  10.079   9.989  0.2985  0.0702 -0.1616
  589ERGO    R3 8414  11.472   9.857   9.840  0.1845 -0.0250 -0.0576
  589ERGO    R4 8415  11.501  10.080   9.652  0.1801 -0.1327 -0.1901
  589ERGO    R5 8416  11.372   9.906   9.627  0.1225 -0.1122 -0.0499
  589ERGO    C1 8417  11.589   9.871   9.315  0.0040 -0.3400 -0.1091
  589ERGO    C2 8418  11.631  10.015   9.005  0.0774  0.1172  0.1208
  590ERGO   ROH 8419   8.874   5.190  10.584  0.1847 -0.0045 -0.0988
  590ERGO    R1 8420   8.776   5.127  10.326  0.1148  0.1128 -0.1018
  590ERGO    R2 8421   8.738   5.318  10.131  0.2272  0.1778 -0.0610
  590ERGO    R3 8422   8.896   5.153   9.983  0.0993  0.0961 -0.1085
  590ERGO    R4 8423   8.757   5.320   9.785  0.1173  0.1605 -0.0677
  590ERGO    R5 8424   8.764   5.102   9.790  0.0113  0.1565 -0.0654
  590ERGO    C1 8425   8.917   5.167   9.446 -0.0668  0.0737 -0.1159
  590ERGO    C2 8426   8.731   5.143   9.027 -0.1482 -0.1328 -0.2717
  591ERGO   ROH 8427   2.870   6.570   9.829 -0.2236  0.1764 -0.2031
  591ERGO    R1 8428   3.020   6.452   9.620 -0.1926 -0.0162 -0.0753
  591ERGO    R2 8429   2.903   6.354   9.390 -0.1285  0.0887 -0.1536
  591ERGO    R3 8430   3.081   6.520   9.268  0.1535 -0.1211 -0.0396
  591ERGO    R4 8431   2.939   6.390   9.048 -0.0336  0.2243 -0.1305
  591ERGO    R5 8432   3.154   6.398   9.076 -0.0177 -0.1342 -0.0983
  591ERGO    C1 8433   3.126   6.566   8.734  0.2864  0.1064 -0.0100
  591ERGO    C2 8434   3.048   6.668   8.425  0.1757  0.0648  0.2560
  592ERGO   ROH 8435  15.147   3.920  10.384 -0.0829  0.1150 -0.0837
  592ERGO    R1 8436  15.162   3.726  10.178  0.0786  0.0505 -0.0154
  592ERGO    R2 8437  14.980   3.716   9.969  0.0742 -0.1838 -0.0128
  592ERGO    R3 8438  15.205   3.726   9.817  0.0645 -0.0375 -0.0152
  592ERGO    R4 8439  14.990   3.667   9.628  0.0879  0.0204 -0.0412
  592ERGO    R5 8440  15.174   3.555   9.653  0.1109  0.0564 -0.1150
  592ERGO    C1 8441  15.206   3.649   9.285  0.0866  0.2766 -0.0600
  592ERGO    C2 8442  15.232   3.784   8.994 -0.1674  0.0254  0.1769
  593ERGO   ROH 8443   7.782   6.483   9.576  0.0985  0.3248  0.0617
  593ERGO    R1 8444   7.738   6.490   9.296  0.1132  0.1803  0.0541
  593ERGO    R2 8445   7.943   6.464   9.113  0.1220  0.0641  0.0753
  593ERGO    R3 8446   7.786   6.264   9.015  0.1085  0.0253  0.1774
  593ERGO    R4 8447   7.964   6.334   8.793 -0.1053  0.1187  0.0373
  593ERGO    R5 8448   7.746   6.326   8.787 -0.1063  0.0442  0.2202
  593ERGO    C1 8449   7.829   6.072   8.515 -0.2504  0.1141  0.1112
  593ERGO    C2 8450   7.787   5.999   8.067 -0.1589  0.2129 -0.1599
  594ERGO   ROH 8451  16.340   3.016  10.489  0.2567 -0.1174 -0.0339
  594ERGO    R1 8452  16.206   2.869  10.288  0.2009 -0.0708 -0.0306
  594ERGO    R2 8453  15.978   2.962  10.161  0.1317 -0.0674  0.0976
  594ERGO    R3 8454  16.123   2.915   9.936  0.0466  0.0383  0.0185
  594ERGO    R4 8455  15.847   2.944   9.842  0.0057  0.0518  0.1410
  594ERGO    R5 8456  15.981   2.777   9.802  0.0058  0.0801  0.0184
  594ERGO    C1 8457  15.908   2.890   9.445 -0.1476  0.2205  0.0921
  594ERGO    C2 8458  15.863   2.880   9.081  0.2265 -0.0931 -0.0186
  595ERGO   ROH 8459  13.469   9.739   6.522  0.5122  0.0876  0.1300
  595ERGO    R1 8460  13.532   9.797   6.792  0.2764  0.1104  0.1826
  595ERGO    R2 8461  13.451  10.029   6.917  0.0969  0.0855  0.1187
  595ERGO    R3 8462  13.348   9.857   7.099  0.0066  0.0506  0.0350
  595ERGO    R4 8463  13.427  10.092   7.256  0.0278 -0.0263  0.1348
  595ERGO    R5 8464  13.485   9.885   7.293 -0.0359 -0.0527  0.0794
  595ERGO    C1 8465  13.314   9.966   7.625 -0.0972 -0.1242  0.0656
  595ERGO    C2 8466  13.449  10.155   7.952 -0.1519  0.2681  0.0859
  596ERGO   ROH 8467  10.710   3.453   6.468  0.0744  0.2924 -0.0459
  596ERGO    R1 8468  10.792   3.442   6.739  0.1287  0.1751 -0.0656
  596ERGO    R2 8469  10.884   3.663   6.876  0.1435  0.1214  0.0185
  596ERGO    R3 8470  10.689   3.596   7.052  0.1802  0.0297  0.0230
  596ERGO    R4 8471  10.902   3.708   7.218  0.1141  0.1634  0.0137
  596ERGO    R5 8472  10.807   3.514   7.244  0.2223  0.1143  0.0312
  596ERGO    C1 8473  10.729   3.671   7.582  0.1314  0.1017  0.0150
  596ERGO    C2 8474  10.804   3.909   7.692 -0.0985  0.0167 -0.2171
  597ERGO   ROH 8475   9.007   2.284   9.850  0.3041 -0.1317 -0.0235
  597ERGO    R1 8476   8.867   2.227   9.610  0.1678 -0.1088  0.0494
  597ERGO    R2 8477   8.908   2.370   9.377  0.0321 -0.0839  0.0413
  597ERGO    R3 8478   8.954   2.124   9.272 -0.0238 -0.0716 -0.0126
  597ERGO    R4 8479   8.878   2.290   9.042 -0.0796 -0.0243  0.0363
  597ERGO    R5 8480   8.788   2.100   9.101 -0.0804 -0.0264  0.0341
  597ERGO    C1 8481   8.905   2.012   8.749 -0.1971  0.0219 -0.0171
  597ERGO    C2 8482   8.966   1.913   8.388  0.0340  0.0032  0.0014
  598ERGO   ROH 8483  11.681   8.729  10.293 -0.0245 -0.2050 -0.0672
  598ERGO    R1 8484  11.593   8.833  10.045 -0.0050 -0.0636 -0.0149
  598ERGO    R2 8485  11.765   8.950   9.863  0.0076  0.0378  0.0658
  598ERGO    R3 8486  11.657   8.768   9.693  0.0194  0.1368 -0.0501
  598ERGO    R4 8487  11.774   8.973   9.519  0.0988  0.2086  0.0781
  598ERGO    R5 8488  11.568   8.900   9.514  0.0848  0.2429 -0.0085
  598ERGO    C1 8489  11.678   8.816   9.158  0.1629  0.4013 -0.0235
  598ERGO    C2 8490  11.726   8.668   8.854  0.0270 -0.0929  0.2356
  599ERGO   ROH 8491   8.689  10.101  10.363 -0.2960  0.0919  0.0882
  599ERGO    R1 8492   8.592  10.247  10.141 -0.1889  0.0308  0.0000
  599ERGO    R2 8493   8.687  10.498  10.074 -0.2481  0.0675  0.0551
  599ERGO    R3 8494   8.729  10.382   9.832 -0.0077  0.0671  0.0949
  599ERGO    R4 8495   8.737  10.671   9.779 -0.3663  0.0719  0.0371
  599ERGO    R5 8496   8.612  10.523   9.678 -0.1389 -0.1167  0.0215
  599ERGO    C1 8497   8.806  10.664   9.380 -0.2094  0.0739  0.0640
  599ERGO    C2 8498   8.942  10.972   9.168 -0.1851 -0.1670 -0.0914
  600ERGO   ROH 8499  12.009  16.106  10.408 -0.2329  0.1270 -0.0108
  600ERGO    R1 8500  12.120  16.207  10.168 -0.2935  0.2278  0.0035
  600ERGO    R2 8501  12.263  16.048   9.992  0.0320  0.3966  0.1165
  600ERGO    R3 8502  12.083  16.142   9.812 -0.0442  0.0520  0.0039
  600ERGO    R4 8503  12.281  15.998   9.651  0.2778  0.2937  0.1424
  600ERGO    R5 8504  12.215  16.204   9.622 -0.0404  0.1950  0.0429
  600ERGO    C1 8505  12.122  16.056   9.283  0.3495 -0.0895  0.0518
  600ERGO    C2 8506  12.039  16.173   8.990  0.0562  0.0041  0.0980
  601ERGO   ROH 8507  16.898   6.809   9.744  0.0486 -0.0129 -0.0188
  601ERGO    R1 8508  16.780   6.717   9.503  0.2227 -0.2268 -0.0249
  601ERGO    R2 8509  16.644   6.885   9.331 -0.2082 -0.4916  0.0466
  601ERGO    R3 8510  16.818   6.785   9.148  0.0081 -0.0303 -0.0132
  601ERGO    R4 8511  16.593   6.884   8.989 -0.3074 -0.5837  0.0607
  601ERGO    R5 8512  16.679   6.684   8.981  0.2098 -0.3764  0.0168
  601ERGO    C1 8513  16.727   6.790   8.618 -0.1620 -0.2043  0.0126
  601ERGO    C2 8514  16.701   6.980   8.254 -0.1817 -0.3894  0.0144
  602ERGO   ROH 8515  10.867  14.153   6.412 -0.3354 -0.2671  0.2686
  602ERGO    R1 8516  10.860  14.165   6.695 -0.1497 -0.0049  0.2654
  602ERGO    R2 8517  11.058  14.054   6.852 -0.1233  0.0133  0.2374
  602ERGO    R3 8518  11.068  14.304   6.959  0.1076  0.1051  0.0123
  602ERGO    R4 8519  11.164  14.127   7.173 -0.2792  0.1657  0.2561
  602ERGO    R5 8520  11.002  14.274   7.187 -0.1137  0.3913 -0.0036
  602ERGO    C1 8521  11.235  14.404   7.460 -0.1532  0.3405  0.0558
  602ERGO    C2 8522  11.441  14.577   7.615 -0.2110  0.3672  0.3092
  603ERGO   ROH 8523  12.787   2.981  10.348  0.1557 -0.1020 -0.0946
  603ERGO    R1 8524  12.887   3.036  10.089  0.2457 -0.0986 -0.0602
  603ERGO    R2 8525  13.046   2.858   9.949  0.0829 -0.2087 -0.1126
  603ERGO    R3 8526  12.856   2.890   9.757  0.1352  0.0643 -0.1226
  603ERGO    R4 8527  13.102   2.826   9.610  0.0758 -0.1795 -0.1161
  603ERGO    R5 8528  12.971   2.998   9.577  0.2770 -0.0186 -0.0814
  603ERGO    C1 8529  12.957   2.837   9.232  0.1208  0.0940 -0.1275
  603ERGO    C2 8530  12.932   2.581   8.965 -0.5400 -0.0264  0.1634
  604ERGO   ROH 8531   1.896  15.403  10.612 -0.1238 -0.0294  0.0304
  604ERGO    R1 8532   1.809  15.370  10.345 -0.1739  0.0651  0.0343
  604ERGO    R2 8533   1.738  15.583  10.184 -0.0417  0.1364  0.0680
  604ERGO    R3 8534   1.921  15.476  10.015 -0.1327  0.0293  0.0366
  604ERGO    R4 8535   1.714  15.586   9.839 -0.0899  0.1715  0.0719
  604ERGO    R5 8536   1.791  15.382   9.837 -0.2186  0.1216  0.0497
  604ERGO    C1 8537   1.873  15.487   9.480 -0.2034  0.0914  0.0446
  604ERGO    C2 8538   1.689  15.624   9.285 -0.0109  0.1593 -0.1104
  605ERGO   ROH 8539  11.104   1.566  10.435  0.0579  0.0161 -0.0546
  605ERGO    R1 8540  11.010   1.464  10.188 -0.2742  0.0932  0.0352
  605ERGO    R2 8541  10.820   1.595  10.036  0.1373  0.5896 -0.0767
  605ERGO    R3 8542  11.008   1.572   9.841  0.0898 -0.1957 -0.0633
  605ERGO    R4 8543  10.754   1.592   9.697  0.1288  0.4683 -0.0745
  605ERGO    R5 8544  10.905   1.436   9.673 -0.3464 -0.0465  0.0714
  605ERGO    C1 8545  10.892   1.569   9.316  0.0795 -0.3395 -0.0607
  605ERGO    C2 8546  10.841   1.725   9.012  0.3863  0.0225 -0.1370
  606ERGO   ROH 8547   5.791   5.883  10.244 -0.3327  0.0843 -0.1597
  606ERGO    R1 8548   5.677   6.068  10.063 -0.2218  0.0436 -0.2733
  606ERGO    R2 8549   5.828   6.248   9.917 -0.1411  0.1091 -0.1127
  606ERGO    R3 8550   5.698   6.137   9.706  0.1193  0.0611 -0.2526
  606ERGO    R4 8551   5.858   6.353   9.589 -0.0357  0.2892 -0.0469
  606ERGO    R5 8552   5.644   6.323   9.565  0.0109  0.0661 -0.2034
  606ERGO    C1 8553   5.753   6.310   9.200  0.2701  0.3490 -0.1400
  606ERGO    C2 8554   5.895   6.199   8.839  0.2451 -0.1322  0.0910
  607ERGO   ROH 8555   2.444   0.373   6.660  0.2992 -0.0632 -0.0071
  607ERGO    R1 8556   2.586   0.419   6.900  0.1230 -0.0936  0.1052
  607ERGO    R2 8557   2.516   0.617   7.079  0.0850 -0.0120  0.0018
  607ERGO    R3 8558   2.513   0.411   7.257 -0.1862  0.0272  0.0473
  607ERGO    R4 8559   2.544   0.651   7.422  0.3343  0.0175 -0.0198
  607ERGO    R5 8560   2.672   0.475   7.424  0.0245 -0.2159 -0.0534
  607ERGO    C1 8561   2.558   0.478   7.788  0.2249  0.0715  0.0103
  607ERGO    C2 8562   2.489   0.469   8.116 -0.1776  0.2894 -0.0628
  608ERGO   ROH 8563  14.493   3.263   7.023  0.0477 -0.0556  0.0930
  608ERGO    R1 8564  14.660   3.322   7.243  0.0210  0.0070  0.0979
  608ERGO    R2 8565  14.654   3.565   7.374 -0.0238  0.0302  0.0561
  608ERGO    R3 8566  14.616   3.408   7.594 -0.0214  0.0632  0.0788
  608ERGO    R4 8567  14.797   3.622   7.684  0.3158 -0.1511 -0.0636
  608ERGO    R5 8568  14.829   3.406   7.702  0.0760 -0.1950 -0.1061
  608ERGO    C1 8569  14.845   3.508   8.070  0.5159 -0.2257 -0.1119
  608ERGO    C2 8570  14.925   3.639   8.411 -0.0319 -0.0336 -0.2718
  609ERGO   ROH 8571  10.635   5.460  10.592  0.0469 -0.1087  0.0045
  609ERGO    R1 8572  10.803   5.521  10.373  0.0564 -0.0738  0.0213
  609ERGO    R2 8573  10.923   5.326  10.219 -0.0580 -0.0519 -0.0985
  609ERGO    R3 8574  10.803   5.459  10.014 -0.0115  0.1225 -0.0139
  609ERGO    R4 8575  10.925   5.224   9.888 -0.1560  0.1215 -0.1535
  609ERGO    R5 8576  10.953   5.432   9.830 -0.0499  0.1380 -0.0468
  609ERGO    C1 8577  10.814   5.290   9.504 -0.1695  0.3862 -0.1063
  609ERGO    C2 8578  10.723   5.348   9.178 -0.2326 -0.3099 -0.1589
  610ERGO   ROH 8579   1.819  14.058   6.739  0.1065  0.1571  0.0972
  610ERGO    R1 8580   1.965  13.991   6.972 -0.0754 -0.0336  0.1584
  610ERGO    R2 8581   2.126  14.172   7.104  0.0632 -0.2263  0.2523
  610ERGO    R3 8582   1.976  14.100   7.319 -0.1166 -0.0879  0.1773
  610ERGO    R4 8583   2.182  14.279   7.428 -0.0838 -0.1781  0.2639
  610ERGO    R5 8584   2.135  14.077   7.497 -0.2424 -0.1354  0.2858
  610ERGO    C1 8585   2.073  14.273   7.818 -0.3381 -0.0199  0.2002
  610ERGO    C2 8586   2.032  14.323   8.150  0.4480  0.2373  0.0811
  611ERGO   ROH 8587   2.046   5.971  10.104  0.0644 -0.2979 -0.0317
  611ERGO    R1 8588   1.928   6.093   9.877 -0.0096 -0.2568  0.0295
  611ERGO    R2 8589   2.063   6.273   9.717 -0.1240 -0.0881  0.1269
  611ERGO    R3 8590   1.991   6.101   9.519 -0.0103 -0.0295  0.0321
  611ERGO    R4 8591   2.037   6.357   9.383  0.0022  0.0384  0.1469
  611ERGO    R5 8592   1.857   6.234   9.371  0.0253  0.0064  0.0263
  611ERGO    C1 8593   1.953   6.245   9.002  0.1826  0.1672  0.0695
  611ERGO    C2 8594   2.160   6.359   8.692 -0.1615  0.1679  0.0582
  612ERGO   ROH 8595  14.735   6.383   9.943  0.0852 -0.4100  0.0910
  612ERGO    R1 8596  14.840   6.472   9.695 -0.1058 -0.0432  0.1356
  612ERGO    R2 8597  14.968   6.302   9.518  0.1281  0.2972 -0.0304
  612ERGO    R3 8598  14.783   6.398   9.343 -0.0651  0.1489  0.0876
  612ERGO    R4 8599  15.002   6.301   9.174  0.0042  0.5134 -0.0458
  612ERGO    R5 8600  14.913   6.500   9.169 -0.2572  0.4060  0.0866
  612ERGO    C1 8601  14.849   6.390   8.810 -0.2493  0.5001  0.0560
  612ERGO    C2 8602  14.951   6.119   8.572  0.2146 -0.0594 -0.0181
  613ERGO   ROH 8603  15.916  17.698  10.117 -0.0521 -0.1280  0.0898
  613ERGO    R1 8604  15.671  17.700   9.976 -0.0250 -0.0782  0.0427
  613ERGO    R2 8605  15.632  17.848   9.746  0.0360 -0.0379  0.0577
  613ERGO    R3 8606  15.556  17.608   9.643  0.0284 -0.0135  0.0062
  613ERGO    R4 8607  15.480  17.804   9.439  0.1325  0.0230  0.0007
  613ERGO    R5 8608  15.350  17.654   9.530  0.0745  0.0357 -0.0591
  613ERGO    C1 8609  15.319  17.553   9.164  0.1814  0.0813 -0.0809
  613ERGO    C2 8610  15.198  17.603   8.811 -0.0313  0.2901  0.2411
  614ERGO   ROH 8611   6.079  12.759   6.840 -0.1034  0.1840 -0.0623
  614ERGO    R1 8612   6.181  12.714   7.100  0.0754  0.2810 -0.1132
  614ERGO    R2 8613   6.216  12.917   7.283 -0.1071  0.3066 -0.0998
  614ERGO    R3 8614   6.064  12.756   7.441  0.1696  0.0814 -0.0553
  614ERGO    R4 8615   6.196  12.941   7.628 -0.0402  0.2677 -0.0939
  614ERGO    R5 8616   6.197  12.723   7.637  0.2768  0.2677 -0.0970
  614ERGO    C1 8617   6.042  12.804   7.976  0.2585  0.0338 -0.0486
  614ERGO    C2 8618   6.057  12.732   8.244 -0.0609 -0.0156 -0.0228
  615ERGO   ROH 8619   3.691   9.682  10.362  0.1150 -0.0459 -0.1475
  615ERGO    R1 8620   3.701   9.709  10.081  0.2546 -0.1518 -0.1530
  615ERGO    R2 8621   3.786   9.505   9.914 -0.0021 -0.3407 -0.0531
  615ERGO    R3 8622   3.546   9.546   9.795  0.0991 -0.0073 -0.1540
  615ERGO    R4 8623   3.737   9.535   9.574  0.1464 -0.6527 -0.1067
  615ERGO    R5 8624   3.594   9.694   9.613  0.4421 -0.3113 -0.3274
  615ERGO    C1 8625   3.482   9.592   9.263  0.3279 -0.5213 -0.2327
  615ERGO    C2 8626   3.502   9.644   8.962  0.0077 -0.2792 -0.0227
  616ERGO   ROH 8627   8.683  13.250   6.410  0.2937  0.0218 -0.0014
  616ERGO    R1 8628   8.568  13.210   6.666  0.1321  0.1122 -0.0591
  616ERGO    R2 8629   8.630  12.992   6.824 -0.0243  0.1297  0.0258
  616ERGO    R3 8630   8.687  13.184   7.008 -0.0762  0.1527  0.0185
  616ERGO    R4 8631   8.643  12.941   7.166  0.2300  0.0858  0.0111
  616ERGO    R5 8632   8.545  13.133   7.194  0.0790 -0.0009  0.1000
  616ERGO    C1 8633   8.705  13.092   7.537  0.3292  0.0819 -0.0041
  616ERGO    C2 8634   8.908  13.073   7.725  0.0403  0.0263  0.5718
  617ERGO   ROH 8635  11.988   7.705  10.311  0.1460  0.0665  0.0362
  617ERGO    R1 8636  11.901   7.811  10.063 -0.0560  0.0933  0.1173
  617ERGO    R2 8637  12.073   7.937   9.887 -0.2396  0.2948  0.0841
  617ERGO    R3 8638  11.974   7.754   9.711 -0.1795  0.2861  0.0576
  617ERGO    R4 8639  12.116   7.949   9.544 -0.1503  0.3068  0.0947
  617ERGO    R5 8640  11.909   7.884   9.521 -0.1430  0.2872  0.0416
  617ERGO    C1 8641  12.048   7.785   9.180 -0.0416  0.3057  0.0758
  617ERGO    C2 8642  12.018   7.745   8.812 -0.0409  0.0431 -0.1495
  618ERGO   ROH 8643   3.957   4.661   9.811 -0.0737  0.1756 -0.0268
  618ERGO    R1 8644   3.782   4.668   9.588 -0.0445  0.1119 -0.0530
  618ERGO    R2 8645   3.874   4.686   9.328 -0.0120  0.1099 -0.0438
  618ERGO    R3 8646   3.721   4.464   9.293  0.0483  0.0690 -0.0426
  618ERGO    R4 8647   3.815   4.533   9.024 -0.2075  0.2660 -0.0856
  618ERGO    R5 8648   3.608   4.501   9.086 -0.1439  0.1469  0.0739
  618ERGO    C1 8649   3.637   4.235   8.814 -0.2646  0.3185 -0.1089
  618ERGO    C2 8650   3.586   4.147   8.482 -0.3390 -0.0751 -0.0234
  619ERGO   ROH 8651  15.610  12.713   6.350  0.1648 -0.0108 -0.2129
  619ERGO    R1 8652  15.708  12.495   6.500  0.2005  0.0594 -0.1335
  619ERGO    R2 8653  15.890  12.525   6.706 -0.0108  0.1949  0.0370
  619ERGO    R3 8654  15.702  12.389   6.848 -0.0375  0.0398 -0.1417
  619ERGO    R4 8655  15.931  12.412   7.030 -0.2156  0.2039  0.0678
  619ERGO    R5 8656  15.828  12.229   6.974 -0.0255  0.1269 -0.0408
  619ERGO    C1 8657  15.779  12.219   7.352 -0.3600  0.0637 -0.0820
  619ERGO    C2 8658  15.712  12.337   7.667  0.1213  0.1589  0.1779
  620ERGO   ROH 8659  11.641   6.026  10.262  0.1116 -0.0014 -0.0297
  620ERGO    R1 8660  11.780   6.004  10.016  0.0546 -0.0584 -0.0565
  620ERGO    R2 8661  11.659   5.911   9.786 -0.0469  0.0523 -0.0467
  620ERGO    R3 8662  11.749   6.146   9.682  0.0898  0.0077 -0.0329
  620ERGO    R4 8663  11.639   5.999   9.452  0.2722 -0.0437 -0.0950
  620ERGO    R5 8664  11.839   6.085   9.468  0.2769 -0.0731  0.0642
  620ERGO    C1 8665  11.711   6.271   9.160  0.5863 -0.1414 -0.1102
  620ERGO    C2 8666  11.632   6.299   8.762 -0.1765  0.2643  0.1276
  621ERGO   ROH 8667  11.055  17.818  10.425 -0.0698 -0.0839  0.1297
  621ERGO    R1 8668  11.013  17.713  10.166 -0.0186 -0.0419  0.1038
  621ERGO    R2 8669  10.767  17.720  10.041  0.0041 -0.0223  0.0546
  621ERGO    R3 8670  10.906  17.842   9.843  0.0446  0.0116  0.1051
  621ERGO    R4 8671  10.656  17.757   9.716  0.0831  0.0265  0.0332
  621ERGO    R5 8672  10.858  17.713   9.647  0.0962  0.0442  0.0741
  621ERGO    C1 8673  10.723  17.894   9.340  0.1672  0.0867  0.0684
  621ERGO    C2 8674  10.534  17.939   9.074 -0.4025  0.1758  0.1803
  622ERGO   ROH 8675   2.216   2.571   6.280  0.1017 -0.0462 -0.0177
  622ERGO    R1 8676   2.188   2.691   6.535  0.1513  0.0965 -0.0785
  622ERGO    R2 8677   2.211   2.548   6.770 -0.0651  0.1747 -0.0066
  622ERGO    R3 8678   2.397   2.737   6.830  0.1156  0.0103 -0.0399
  622ERGO    R4 8679   2.273   2.671   7.087 -0.1938  0.4228 -0.0745
  622ERGO    R5 8680   2.294   2.870   7.001  0.1247  0.3133 -0.2625
  622ERGO    C1 8681   2.484   2.919   7.328 -0.0990  0.4129 -0.1453
  622ERGO    C2 8682   2.553   2.822   7.654 -0.2523 -0.0160 -0.0221
  623ERGO   ROH 8683   6.363   1.788   6.591  0.0595 -0.3017 -0.0202
  623ERGO    R1 8684   6.444   1.803   6.862  0.2794  0.0581 -0.0992
  623ERGO    R2 8685   6.513   2.042   6.984 -0.3485  0.3441 -0.2651
  623ERGO    R3 8686   6.325   1.965   7.165  0.0445 -0.1885 -0.0556
  623ERGO    R4 8687   6.542   2.079   7.326 -0.1728  0.6647 -0.3107
  623ERGO    R5 8688   6.452   1.882   7.350  0.5040  0.3493 -0.0999
  623ERGO    C1 8689   6.382   2.029   7.696  0.2984  0.3515 -0.1407
  623ERGO    C2 8690   6.322   2.171   7.945 -0.4264 -0.1476 -0.2716
  624ERGO   ROH 8691   6.574  15.481  10.256 -0.1882  0.0193 -0.0090
  624ERGO    R1 8692   6.510  15.543   9.987 -0.1209  0.1424  0.0028
  624ERGO    R2 8693   6.615  15.763   9.856  0.2428 -0.0280 -0.0022
  624ERGO    R3 8694   6.691  15.576   9.673 -0.1031 -0.1569 -0.0217
  624ERGO    R4 8695   6.614  15.810   9.514  0.1272 -0.0687 -0.0081
  624ERGO    R5 8696   6.539  15.607   9.491 -0.1611  0.0259  0.0542
  624ERGO    C1 8697   6.685  15.662   9.143 -0.2647 -0.2136 -0.0297
  624ERGO    C2 8698   6.672  15.615   8.784  0.0544  0.1479  0.0245
  625ERGO   ROH 8699   7.057   3.357  10.311 -0.1729  0.0480 -0.0702
  625ERGO    R1 8700   7.203   3.185  10.141 -0.1774  0.0001 -0.0266
  625ERGO    R2 8701   7.088   2.969  10.012 -0.1755 -0.0562  0.0589
  625ERGO    R3 8702   7.192   3.087   9.790 -0.2098 -0.1207  0.0088
  625ERGO    R4 8703   7.112   2.818   9.702 -0.1566 -0.1636  0.1124
  625ERGO    R5 8704   7.309   2.910   9.679 -0.1798 -0.1348  0.0687
  625ERGO    C1 8705   7.224   2.841   9.313 -0.1777 -0.2867  0.0967
  625ERGO    C2 8706   7.197   2.857   8.986  0.2285  0.1875  0.1650
  626ERGO   ROH 8707  16.904   0.239  10.210 -0.0993  0.2848  0.0742
  626ERGO    R1 8708  16.999   0.259   9.944  0.0401  0.2052  0.1157
  626ERGO    R2 8709  16.929   0.079   9.746  0.0456  0.2121  0.1018
  626ERGO    R3 8710  16.852   0.303   9.614  0.2179  0.2358  0.0406
  626ERGO    R4 8711  16.902   0.107   9.403  0.0378  0.1364  0.0968
  626ERGO    R5 8712  16.988   0.306   9.417  0.2009  0.0685  0.0285
  626ERGO    C1 8713  16.814   0.334   9.078  0.1948  0.1146  0.0363
  626ERGO    C2 8714  16.712   0.554   8.791 -0.1867  0.2884  0.0690
  627ERGO   ROH 8715   8.959   8.914  10.261  0.3909 -0.1460 -0.1517
  627ERGO    R1 8716   8.855   9.099  10.074  0.1901 -0.1618 -0.0584
  627ERGO    R2 8717   9.006   9.305   9.967  0.0092 -0.0280 -0.0625
  627ERGO    R3 8718   8.927   9.196   9.731 -0.0124 -0.0151 -0.0613
  627ERGO    R4 8719   8.956   9.482   9.674  0.0833 -0.0272 -0.0746
  627ERGO    R5 8720   8.781   9.360   9.636  0.0458  0.0275 -0.0782
  627ERGO    C1 8721   8.853   9.483   9.282  0.1061 -0.0146 -0.0804
  627ERGO    C2 8722   8.786   9.657   9.105  0.1447  0.4086  0.2796
  628ERGO   ROH 8723   5.210   4.905   5.885 -0.0179 -0.0471  0.0468
  628ERGO    R1 8724   5.403   4.943   6.090 -0.0268 -0.0431  0.0542
  628ERGO    R2 8725   5.362   5.115   6.302 -0.0691 -0.0989  0.0905
  628ERGO    R3 8726   5.419   4.893   6.450 -0.0133 -0.1162  0.0440
  628ERGO    R4 8727   5.365   5.102   6.648 -0.1220 -0.1831  0.0884
  628ERGO    R5 8728   5.543   4.976   6.637 -0.0735 -0.1171  0.0855
  628ERGO    C1 8729   5.421   4.888   6.987 -0.1003 -0.2485  0.0436
  628ERGO    C2 8730   5.398   4.903   7.376 -0.1720 -0.2037  0.1139
  629ERGO   ROH 8731  12.503  12.776  10.478 -0.2502  0.0780  0.1375
  629ERGO    R1 8732  12.410  12.807  10.213  0.0562  0.0433  0.0212
  629ERGO    R2 8733  12.562  12.926  10.015  0.3539 -0.1301  0.1338
  629ERGO    R3 8734  12.511  12.694   9.882  0.3422 -0.1484  0.1719
  629ERGO    R4 8735  12.532  12.897   9.672  0.1086 -0.1494  0.1554
  629ERGO    R5 8736  12.366  12.759   9.703  0.1860 -0.2086  0.2785
  629ERGO    C1 8737  12.467  12.662   9.348 -0.0452 -0.1777  0.2037
  629ERGO    C2 8738  12.407  12.701   9.047 -0.2680  0.3938  0.0525
  630ERGO   ROH 8739  10.242  12.431  10.081  0.0048 -0.1948  0.1901
  630ERGO    R1 8740  10.285  12.525   9.818 -0.0315 -0.0554  0.2337
  630ERGO    R2 8741  10.452  12.395   9.639  0.0821  0.1394  0.2023
  630ERGO    R3 8742  10.231  12.400   9.481  0.0998  0.0447  0.1731
  630ERGO    R4 8743  10.452  12.346   9.297  0.1779  0.2693  0.1822
  630ERGO    R5 8744  10.305  12.504   9.278  0.0642  0.1778  0.2226
  630ERGO    C1 8745  10.245  12.321   8.949  0.2503  0.2560  0.1433
  630ERGO    C2 8746  10.277  12.151   8.663 -0.1144 -0.1007  0.1991
  631ERGO   ROH 8747   0.328   3.379   6.576  0.0045  0.0261 -0.1407
  631ERGO    R1 8748   0.453   3.312   6.822 -0.0006 -0.2162 -0.2032
  631ERGO    R2 8749   0.376   3.423   7.063  0.2449 -0.1689 -0.1486
  631ERGO    R3 8750   0.350   3.163   7.138 -0.0976 -0.1559 -0.2048
  631ERGO    R4 8751   0.379   3.311   7.389  0.2493 -0.2518 -0.1763
  631ERGO    R5 8752   0.498   3.140   7.325 -0.0287 -0.4168 -0.2835
  631ERGO    C1 8753   0.356   3.002   7.650 -0.0697 -0.2879 -0.2451
  631ERGO    C2 8754   0.487   2.841   7.920 -0.1019 -0.2569 -0.3528
  632ERGO   ROH 8755  13.651  14.606  10.503 -0.1300 -0.0110 -0.2293
  632ERGO    R1 8756  13.798  14.494  10.288 -0.0354  0.0191 -0.1826
  632ERGO    R2 8757  13.682  14.327  10.100  0.0887 -0.1138 -0.1504
  632ERGO    R3 8758  13.784  14.507   9.924 -0.0108 -0.0931 -0.1859
  632ERGO    R4 8759  13.786  14.253   9.779 -0.1016 -0.0583 -0.2258
  632ERGO    R5 8760  13.955  14.387   9.808 -0.0855 -0.0724 -0.3083
  632ERGO    C1 8761  13.943  14.379   9.427 -0.3059 -0.0067 -0.3028
  632ERGO    C2 8762  14.012  14.413   9.171 -0.2588  0.4891 -0.0191
  633ERGO   ROH 8763   2.508  11.221   6.454  0.0089  0.0362 -0.0970
  633ERGO    R1 8764   2.716  11.220   6.647  0.0240  0.0354 -0.1145
  633ERGO    R2 8765   2.761  11.432   6.818 -0.0441 -0.0208 -0.0332
  633ERGO    R3 8766   2.741  11.240   7.009  0.0483 -0.1058 -0.1064
  633ERGO    R4 8767   2.889  11.458   7.138 -0.3321  0.0632  0.0787
  633ERGO    R5 8768   2.950  11.249   7.125 -0.0480  0.1382  0.0641
  633ERGO    C1 8769   2.944  11.293   7.504 -0.4131  0.0324  0.0750
  633ERGO    C2 8770   2.879  11.379   7.746  0.1353  0.0259 -0.0958
  634ERGO   ROH 8771   9.225  15.410   6.243  0.0130  0.2708  0.0814
  634ERGO    R1 8772   9.210  15.198   6.430  0.0993  0.2045  0.0138
  634ERGO    R2 8773   9.379  15.180   6.648  0.0584  0.2441  0.0489
  634ERGO    R3 8774   9.145  15.164   6.786  0.0336  0.0569 -0.0115
  634ERGO    R4 8775   9.337  15.009   6.946  0.0761  0.0752 -0.0438
  634ERGO    R5 8776   9.143  14.941   6.874  0.1268  0.0113 -0.1222
  634ERGO    C1 8777   9.094  14.896   7.249  0.0630 -0.1989 -0.1544
  634ERGO    C2 8778   9.137  14.779   7.467 -0.0578 -0.2063  0.1099
  635ERGO   ROH 8779   9.976   9.569   6.458 -0.1945  0.3994 -0.1846
  635ERGO    R1 8780   9.845   9.539   6.707 -0.0258  0.2006 -0.1152
  635ERGO    R2 8781   9.980   9.483   6.941  0.1606  0.1736 -0.2253
  635ERGO    R3 8782   9.851   9.705   7.031  0.0715  0.0600 -0.0422
  635ERGO    R4 8783   9.870   9.530   7.265  0.4502  0.0104 -0.0990
  635ERGO    R5 8784   9.689   9.622   7.186  0.2882 -0.1080  0.1050
  635ERGO    C1 8785   9.686   9.767   7.538  0.5351 -0.1913  0.1466
  635ERGO    C2 8786   9.624   9.809   7.947 -0.1524 -0.1799  0.2346
  636ERGO   ROH 8787  14.288   2.909   6.880  0.1553 -0.1771 -0.0413
  636ERGO    R1 8788  14.211   2.921   7.152  0.0727 -0.0703 -0.0681
  636ERGO    R2 8789  14.392   2.889   7.359 -0.0172 -0.1649 -0.0011
  636ERGO    R3 8790  14.290   3.128   7.440  0.1303 -0.0739 -0.0815
  636ERGO    R4 8791  14.401   3.008   7.683 -0.0825 -0.1315 -0.0115
  636ERGO    R5 8792  14.199   3.083   7.657 -0.0114  0.0254 -0.1199
  636ERGO    C1 8793  14.312   3.301   7.949  0.0178 -0.0266 -0.0931
  636ERGO    C2 8794  14.467   3.213   8.191 -0.1431 -0.0640  0.0850
  637ERGO   ROH 8795   2.618  11.485  10.352 -0.2202  0.0998 -0.0498
  637ERGO    R1 8796   2.543  11.477  10.079 -0.0922  0.0772 -0.0843
  637ERGO    R2 8797   2.713  11.554   9.876  0.0510 -0.0745 -0.0190
  637ERGO    R3 8798   2.656  11.307   9.778 -0.0477 -0.0644  0.0102
  637ERGO    R4 8799   2.665  11.481   9.541  0.3196 -0.1398 -0.0465
  637ERGO    R5 8800   2.501  11.348   9.599  0.1536  0.0043 -0.1568
  637ERGO    C1 8801   2.583  11.207   9.255  0.3833 -0.1682 -0.0350
  637ERGO    C2 8802   2.644  11.174   8.933  0.1282  0.1535 -0.1950
  638ERGO   ROH 8803  15.807   1.712  10.876  0.1689  0.0451  0.0118
  638ERGO    R1 8804  15.670   1.762  10.633  0.1625  0.1961  0.0484
  638ERGO    R2 8805  15.758   1.947  10.447  0.4773 -0.1027 -0.0902
  638ERGO    R3 8806  15.743   1.735  10.277 -0.0588 -0.1721  0.0214
  638ERGO    R4 8807  15.717   1.971  10.105  0.6842 -0.1423 -0.1210
  638ERGO    R5 8808  15.581   1.801  10.114  0.1740  0.2281 -0.0779
  638ERGO    C1 8809  15.680   1.786   9.746  0.3013 -0.2306 -0.0342
  638ERGO    C2 8810  15.736   1.881   9.459 -0.2637  0.0702  0.0337
  639ERGO   ROH 8811  16.217  10.998   6.496  0.2165  0.1487 -0.1403
  639ERGO    R1 8812  16.123  10.896   6.743  0.0691  0.0844 -0.2218
  639ERGO    R2 8813  16.285  10.755   6.918 -0.0550 -0.0258 -0.1957
  639ERGO    R3 8814  16.202  10.944   7.095 -0.0856 -0.0678 -0.1649
  639ERGO    R4 8815  16.278  10.715   7.261 -0.0668 -0.0918 -0.2035
  639ERGO    R5 8816  16.087  10.820   7.264 -0.0799 -0.1139 -0.1935
  639ERGO    C1 8817  16.195  10.869   7.627 -0.1023 -0.1698 -0.1791
  639ERGO    C2 8818  16.254  11.000   7.888 -0.0144 -0.1776 -0.1203
  640ERGO   ROH 8819   3.362   9.229   6.021 -0.1783  0.1851 -0.1689
  640ERGO    R1 8820   3.287   9.277   6.290  0.0397  0.0485 -0.0811
  640ERGO    R2 8821   3.473   9.313   6.492  0.2077  0.1155 -0.2439
  640ERGO    R3 8822   3.335   9.543   6.533  0.0816  0.0071 -0.0442
  640ERGO    R4 8823   3.434   9.467   6.798  0.2431 -0.0907 -0.1337
  640ERGO    R5 8824   3.227   9.511   6.745  0.1926 -0.1856 -0.0159
  640ERGO    C1 8825   3.282   9.773   7.016  0.1455 -0.3126  0.1180
  640ERGO    C2 8826   3.391   9.885   7.341  0.0002 -0.0651 -0.1505
  641ERGO   ROH 8827   9.410  16.940  10.480  0.2058 -0.0394 -0.0770
  641ERGO    R1 8828   9.309  16.906  10.218  0.1466  0.0673 -0.0672
  641ERGO    R2 8829   9.183  17.109  10.080  0.2261  0.1560  0.0008
  641ERGO    R3 8830   9.370  17.053   9.891  0.1633  0.1066 -0.0482
  641ERGO    R4 8831   9.136  17.146   9.739  0.1934  0.3242  0.0213
  641ERGO    R5 8832   9.245  16.959   9.709  0.0683  0.2592 -0.0685
  641ERGO    C1 8833   9.285  17.114   9.363  0.1153  0.3753 -0.0127
  641ERGO    C2 8834   9.315  17.141   9.018 -0.1844 -0.1327  0.1443
  642ERGO   ROH 8835   8.347  17.573  10.338  0.3123 -0.0262  0.0601
  642ERGO    R1 8836   8.247  17.573  10.074  0.2167 -0.1703  0.0958
  642ERGO    R2 8837   8.252  17.797   9.912 -0.2459 -0.1334  0.1251
  642ERGO    R3 8838   8.380  17.631   9.740 -0.0027  0.1206  0.0533
  642ERGO    R4 8839   8.219  17.806   9.569 -0.6198 -0.3042  0.1510
  642ERGO    R5 8840   8.219  17.588   9.568 -0.0881 -0.3230  0.2244
  642ERGO    C1 8841   8.320  17.656   9.206 -0.6091 -0.1652  0.0987
  642ERGO    C2 8842   8.436  17.743   8.867  0.2596 -0.0225 -0.0022
  643ERGO   ROH 8843   4.649   6.871  10.293 -0.1867 -0.1541  0.0158
  643ERGO    R1 8844   4.557   6.831  10.028 -0.0770 -0.2319 -0.0095
  643ERGO    R2 8845   4.621   7.002   9.821 -0.2510 -0.1189  0.0385
  643ERGO    R3 8846   4.707   6.774   9.702  0.0680  0.0096  0.0094
  643ERGO    R4 8847   4.630   6.950   9.479 -0.4053 -0.1322  0.0350
  643ERGO    R5 8848   4.560   6.746   9.514 -0.0291 -0.2640  0.1138
  643ERGO    C1 8849   4.715   6.705   9.169 -0.1956 -0.0193  0.0055
  643ERGO    C2 8850   4.857   6.779   8.946 -0.0337  0.2033  0.4115
  644ERGO   ROH 8851   6.623  16.939  10.509  0.0758  0.1476 -0.0221
  644ERGO    R1 8852   6.560  16.858  10.246  0.0339  0.2151 -0.0335
  644ERGO    R2 8853   6.660  16.986  10.023  0.1344  0.1689 -0.0180
  644ERGO    R3 8854   6.742  16.736   9.955 -0.0324  0.1176 -0.0338
  644ERGO    R4 8855   6.821  16.904   9.728  0.3141  0.1257  0.0904
  644ERGO    R5 8856   6.701  16.721   9.720  0.1562  0.2358 -0.0742
  644ERGO    C1 8857   6.991  16.621   9.493  0.2621  0.0523  0.1389
  644ERGO    C2 8858   7.399  16.599   9.404 -0.0454 -0.1262  0.0331
  645ERGO   ROH 8859   5.902  10.494  10.195  0.0842  0.1114  0.1375
  645ERGO    R1 8860   5.847  10.479   9.918  0.0214 -0.0162  0.1568
  645ERGO    R2 8861   5.981  10.631   9.731 -0.0880 -0.0308  0.0659
  645ERGO    R3 8862   6.030  10.390   9.617 -0.0166 -0.0545  0.1452
  645ERGO    R4 8863   6.029  10.578   9.393 -0.0093 -0.1225  0.0907
  645ERGO    R5 8864   5.911  10.396   9.409  0.0245 -0.1404  0.1194
  645ERGO    C1 8865   6.104  10.321   9.089  0.1036 -0.1979  0.1796
  645ERGO    C2 8866   6.184  10.394   8.764 -0.1555 -0.3736 -0.0464
  646ERGO   ROH 8867   0.763  10.490   6.235 -0.0649  0.1097  0.1135
  646ERGO    R1 8868   0.550  10.543   6.413 -0.0626  0.0269  0.1396
  646ERGO    R2 8869   0.458  10.356   6.593  0.0100 -0.0178  0.1228
  646ERGO    R3 8870   0.502  10.554   6.774 -0.0360 -0.0282  0.1466
  646ERGO    R4 8871   0.352  10.348   6.922 -0.2273  0.0252  0.0497
  646ERGO    R5 8872   0.301  10.561   6.904 -0.1322  0.0513  0.0049
  646ERGO    C1 8873   0.332  10.531   7.283 -0.4087  0.0405  0.0296
  646ERGO    C2 8874   0.447  10.318   7.545  0.2727 -0.2533 -0.1747
  647ERGO   ROH 8875   5.923   4.118  10.077  0.0429  0.1580  0.0034
  647ERGO    R1 8876   6.009   3.969   9.851  0.1100  0.1442  0.0368
  647ERGO    R2 8877   5.852   3.774   9.733  0.2623 -0.0804  0.1845
  647ERGO    R3 8878   5.897   3.921   9.509  0.0192 -0.1265  0.1038
  647ERGO    R4 8879   5.928   3.643   9.422  0.0303 -0.1255  0.1457
  647ERGO    R5 8880   6.072   3.804   9.395 -0.0480 -0.0930 -0.0239
  647ERGO    C1 8881   6.014   3.704   9.031 -0.3329 -0.1951  0.0473
  647ERGO    C2 8882   6.202   3.653   8.754 -0.3937 -0.0211 -0.0937
  648ERGO   ROH 8883   7.351  10.630  10.298 -0.0701  0.2158  0.2788
  648ERGO    R1 8884   7.418  10.793  10.076  0.0345 -0.0009  0.1480
  648ERGO    R2 8885   7.559  10.697   9.859 -0.0921 -0.2846  0.1850
  648ERGO    R3 8886   7.348  10.795   9.719 -0.0326 -0.1934  0.1588
  648ERGO    R4 8887   7.549  10.733   9.515 -0.0693 -0.3677  0.1758
  648ERGO    R5 8888   7.448  10.924   9.543  0.0453 -0.2989  0.1257
  648ERGO    C1 8889   7.345  10.846   9.184 -0.0001 -0.3304  0.1457
  648ERGO    C2 8890   7.408  10.851   8.892  0.2777 -0.0408  0.0321
  649ERGO   ROH 8891  10.628  13.173   6.651 -0.1974  0.2171 -0.1441
  649ERGO    R1 8892  10.567  13.298   6.898 -0.1491  0.0628 -0.0523
  649ERGO    R2 8893  10.552  13.157   7.136  0.0139 -0.0692 -0.1148
  649ERGO    R3 8894  10.732  13.342   7.219 -0.0319 -0.0321 -0.0989
  649ERGO    R4 8895  10.671  13.186   7.459 -0.0508 -0.0160 -0.0959
  649ERGO    R5 8896  10.659  13.402   7.439 -0.0816 -0.0213 -0.1196
  649ERGO    C1 8897  10.910  13.376   7.725 -0.1314  0.0498 -0.0700
  649ERGO    C2 8898  11.189  13.463   7.956 -0.0620 -0.0048  0.0487
  650ERGO   ROH 8899   8.078  14.425  10.256 -0.2620 -0.1900 -0.2249
  650ERGO    R1 8900   7.964  14.516  10.014 -0.2270 -0.1245 -0.2178
  650ERGO    R2 8901   8.116  14.596   9.798 -0.1926  0.1156 -0.1105
  650ERGO    R3 8902   7.966  14.412   9.665 -0.0082  0.0865 -0.2811
  650ERGO    R4 8903   7.961  14.651   9.495 -0.4434  0.3288  0.0526
  650ERGO    R5 8904   7.788  14.540   9.568 -0.2477 -0.0232  0.0014
  650ERGO    C1 8905   7.730  14.511   9.192 -0.4165  0.4256 -0.0124
  650ERGO    C2 8906   7.594  14.509   8.848  0.0102 -0.2245 -0.1676
  651ERGO   ROH 8907  15.349   2.945   6.950 -0.1552 -0.0174  0.0116
  651ERGO    R1 8908  15.371   2.818   7.202 -0.1191  0.0191  0.0269
  651ERGO    R2 8909  15.556   2.897   7.393 -0.0549  0.0114 -0.0313
  651ERGO    R3 8910  15.336   2.916   7.551 -0.0117  0.0837  0.0203
  651ERGO    R4 8911  15.562   2.932   7.736  0.0382 -0.0047 -0.0314
  651ERGO    R5 8912  15.394   2.794   7.749 -0.0088  0.0547  0.0017
  651ERGO    C1 8913  15.359   2.970   8.085  0.1330  0.0538  0.0169
  651ERGO    C2 8914  15.052   3.106   8.320 -0.0303  0.1662  0.3513
  652ERGO   ROH 8915  13.953   8.797   6.274 -0.1183 -0.0841  0.0129
  652ERGO    R1 8916  13.909   8.959   6.501 -0.2452 -0.1816  0.0579
  652ERGO    R2 8917  13.796   8.861   6.734  0.1425 -0.4232  0.1482
  652ERGO    R3 8918  14.020   8.964   6.848  0.0440  0.0167 -0.0332
  652ERGO    R4 8919  13.827   8.946   7.067  0.3173 -0.6402  0.1905
  652ERGO    R5 8920  13.939   9.124   7.007 -0.1671 -0.3059  0.2000
  652ERGO    C1 8921  14.055   9.093   7.369  0.3267 -0.3537  0.0448
  652ERGO    C2 8922  14.232   9.093   7.800 -0.1348 -0.0064 -0.1656
  653ERGO   ROH 8923   6.692   5.472   9.728  0.5233 -0.1258  0.2342
  653ERGO    R1 8924   6.673   5.519   9.449  0.2008 -0.1715  0.2432
  653ERGO    R2 8925   6.528   5.730   9.343  0.1516 -0.1251  0.3766
  653ERGO    R3 8926   6.763   5.787   9.219  0.0331 -0.2506  0.0868
  653ERGO    R4 8927   6.560   5.911   9.051 -0.0814  0.0401  0.4527
  653ERGO    R5 8928   6.714   5.772   8.986 -0.2951 -0.0483  0.1449
  653ERGO    C1 8929   6.799   6.071   8.765 -0.3284  0.0185  0.2249
  653ERGO    C2 8930   6.865   6.208   8.391  0.2066  0.1081  0.0918
  654ERGO   ROH 8931  16.760  12.144  10.102 -0.1551 -0.1107 -0.0809
  654ERGO    R1 8932  16.767  12.208   9.826  0.1065 -0.0386 -0.0602
  654ERGO    R2 8933  16.957  12.105   9.654  0.0478 -0.2918  0.0217
  654ERGO    R3 8934  16.739  12.027   9.512 -0.0001  0.0938 -0.1278
  654ERGO    R4 8935  16.949  12.073   9.310  0.2162 -0.2488  0.0126
  654ERGO    R5 8936  16.748  12.160   9.313  0.3599  0.0982 -0.1141
  654ERGO    C1 8937  16.739  11.981   8.976  0.2692  0.1382 -0.1332
  654ERGO    C2 8938  16.729  11.914   8.581 -0.1191  0.1415  0.0943
  655ERGO   ROH 8939   2.436   9.043   6.303 -0.1090  0.0303 -0.0243
  655ERGO    R1 8940   2.360   9.084   6.572 -0.1840 -0.1205 -0.0203
  655ERGO    R2 8941   2.367   8.883   6.762 -0.0525 -0.1831 -0.0835
  655ERGO    R3 8942   2.520   9.061   6.899 -0.2125 -0.1047 -0.0067
  655ERGO    R4 8943   2.460   8.849   7.093  0.1342 -0.3319 -0.1499
  655ERGO    R5 8944   2.425   9.063   7.119 -0.1179 -0.3962  0.0366
  655ERGO    C1 8945   2.657   8.997   7.414  0.0927 -0.3450 -0.1164
  655ERGO    C2 8946   2.787   8.866   7.680 -0.1180  0.2139 -0.0879
  656ERGO   ROH 8947   8.953   7.922  10.167 -0.1629  0.1090  0.1310
  656ERGO    R1 8948   8.981   7.953   9.887 -0.3229  0.0479  0.1075
  656ERGO    R2 8949   8.795   8.088   9.732 -0.2526  0.2929  0.2345
  656ERGO    R3 8950   9.012   8.230   9.653 -0.1086 -0.0102  0.0647
  656ERGO    R4 8951   8.835   8.231   9.420 -0.2964  0.2334  0.2011
  656ERGO    R5 8952   9.043   8.169   9.424 -0.3732 -0.0607  0.0381
  656ERGO    C1 8953   9.062   8.448   9.164 -0.1867 -0.0857  0.0224
  656ERGO    C2 8954   9.094   8.614   8.846 -0.1697  0.1478 -0.0854
  657ERGO   ROH 8955   1.680  16.504  10.575  0.1575  0.1632 -0.0659
  657ERGO    R1 8956   1.630  16.547  10.300  0.1525  0.0186 -0.0889
  657ERGO    R2 8957   1.750  16.751  10.157 -0.0085  0.0767 -0.1502
  657ERGO    R3 8958   1.826  16.548   9.993  0.1924  0.0788 -0.0621
  657ERGO    R4 8959   1.792  16.778   9.815 -0.0777 -0.0471 -0.1688
  657ERGO    R5 8960   1.699  16.582   9.793  0.1327 -0.1578 -0.0645
  657ERGO    C1 8961   1.888  16.603   9.462  0.0706 -0.1172 -0.0969
  657ERGO    C2 8962   1.974  16.645   9.122  0.1251  0.0425  0.2518
  658ERGO   ROH 8963   5.087   2.031  10.489 -0.1012  0.2248 -0.0206
  658ERGO    R1 8964   5.197   1.879  10.277  0.0386  0.1375  0.1118
  658ERGO    R2 8965   5.068   1.847  10.035  0.0592 -0.2099  0.1448
  658ERGO    R3 8966   5.302   1.942   9.934 -0.0376 -0.0717  0.0474
  658ERGO    R4 8967   5.157   1.835   9.701 -0.0800 -0.1675  0.1058
  658ERGO    R5 8968   5.361   1.784   9.763 -0.0184 -0.0463  0.0256
  658ERGO    C1 8969   5.429   1.918   9.412 -0.2518 -0.0130 -0.0084
  658ERGO    C2 8970   5.588   1.948   9.110 -0.0405  0.1559 -0.2327
  659ERGO   ROH 8971   5.358   9.581  10.425  0.0476  0.3314 -0.0480
  659ERGO    R1 8972   5.355   9.685  10.161 -0.0364  0.1972 -0.1010
  659ERGO    R2 8973   5.553   9.629   9.977 -0.0357  0.1956 -0.0981
  659ERGO    R3 8974   5.343   9.550   9.824 -0.0197  0.0203 -0.0323
  659ERGO    R4 8975   5.578   9.512   9.652 -0.0354  0.1945 -0.0978
  659ERGO    R5 8976   5.398   9.626   9.603 -0.1410  0.0517 -0.0538
  659ERGO    C1 8977   5.395   9.370   9.320 -0.0203  0.0294 -0.0359
  659ERGO    C2 8978   5.610   9.198   9.001  0.0411  0.0258  0.4118
  660ERGO   ROH 8979   2.537   5.796   6.159 -0.1482 -0.0998 -0.0298
  660ERGO    R1 8980   2.473   5.824   6.434 -0.0572  0.1280 -0.0300
  660ERGO    R2 8981   2.549   5.639   6.624 -0.2442  0.1361  0.0502
  660ERGO    R3 8982   2.656   5.857   6.746  0.0499  0.0733 -0.0851
  660ERGO    R4 8983   2.647   5.651   6.955 -0.2868  0.2168  0.0603
  660ERGO    R5 8984   2.564   5.852   6.967 -0.0032  0.3552 -0.0940
  660ERGO    C1 8985   2.805   5.863   7.263 -0.0355  0.2049 -0.0609
  660ERGO    C2 8986   2.919   5.945   7.609 -0.1320  0.1136 -0.0158
  661ERGO   ROH 8987   5.664   9.739   6.392  0.1675 -0.0150 -0.0588
  661ERGO    R1 8988   5.786   9.612   6.614  0.0653 -0.0656 -0.0311
  661ERGO    R2 8989   5.988   9.730   6.761  0.1328 -0.1790 -0.0317
  661ERGO    R3 8990   5.822   9.679   6.970  0.0807 -0.0395 -0.0377
  661ERGO    R4 8991   6.083   9.730   7.093  0.0983 -0.1717 -0.0216
  661ERGO    R5 8992   5.957   9.555   7.124 -0.0093 -0.0906  0.0002
  661ERGO    C1 8993   5.983   9.682   7.483  0.0293 -0.0364 -0.0212
  661ERGO    C2 8994   6.089   9.902   7.740 -0.0925 -0.0919 -0.2155
  662ERGO   ROH 8995   4.296   5.642   9.821  0.0256 -0.2460 -0.0532
  662ERGO    R1 8996   4.329   5.542   9.558  0.0761  0.0601 -0.1663
  662ERGO    R2 8997   4.137   5.387   9.432  0.2493 -0.0814 -0.2472
  662ERGO    R3 8998   4.157   5.577   9.238 -0.0821  0.1406 -0.0766
  662ERGO    R4 8999   3.998   5.362   9.117  0.4135 -0.1287 -0.3169
  662ERGO    R5 9000   4.180   5.451   9.035  0.2693  0.3429 -0.1790
  662ERGO    C1 9001   3.937   5.525   8.751  0.1980  0.0521 -0.1973
  662ERGO    C2 9002   3.903   5.527   8.378 -0.1294  0.1069 -0.0358
  663ERGO   ROH 9003   1.679   3.243   9.872 -0.0126  0.1437 -0.1999
  663ERGO    R1 9004   1.620   3.187   9.601  0.1040 -0.1306 -0.1723
  663ERGO    R2 9005   1.585   3.386   9.412 -0.4828 -0.2850 -0.2494
  663ERGO    R3 9006   1.777   3.248   9.279 -0.0971  0.1928 -0.2125
  663ERGO    R4 9007   1.647   3.411   9.073 -0.4395 -0.0979 -0.2278
  663ERGO    R5 9008   1.677   3.196   9.067  0.0904 -0.0316 -0.2467
  663ERGO    C1 9009   1.863   3.297   8.750 -0.0521  0.4595 -0.1804
  663ERGO    C2 9010   2.089   3.380   8.559  0.3771  0.3355 -0.1634
  664ERGO   ROH 9011   4.013   2.290   8.403 -0.1019 -0.0192  0.1801
  664ERGO    R1 9012   4.265   2.194   8.317 -0.1574 -0.0868  0.0902
  664ERGO    R2 9013   4.480   2.167   8.489 -0.0580  0.0013 -0.0167
  664ERGO    R3 9014   4.480   1.911   8.396 -0.1324 -0.0547  0.1341
  664ERGO    R4 9015   4.759   1.964   8.471 -0.0724 -0.0096 -0.1273
  664ERGO    R5 9016   4.688   1.891   8.278 -0.2301 -0.1249 -0.0255
  664ERGO    C1 9017   4.922   1.605   8.374 -0.1507 -0.0686 -0.0501
  664ERGO    C2 9018   5.134   1.234   8.560  0.0970  0.1481 -0.0865
  665ERGO   ROH 9019   2.216   8.010  10.311  0.1132  0.2434 -0.0305
  665ERGO    R1 9020   2.106   8.048  10.053  0.1150  0.3191 -0.0190
  665ERGO    R2 9021   2.217   8.219   9.867  0.2567  0.1847 -0.0504
  665ERGO    R3 9022   2.214   7.998   9.709  0.0173  0.1700 -0.0310
  665ERGO    R4 9023   2.194   8.222   9.522  0.4931  0.2049 -0.0690
  665ERGO    R5 9024   2.060   8.051   9.534  0.2094  0.4065 -0.1414
  665ERGO    C1 9025   2.177   8.016   9.173  0.4060  0.2030 -0.0616
  665ERGO    C2 9026   2.214   8.120   8.824 -0.1060  0.0272  0.1227
  666ERGO   ROH 9027  16.515   5.530   6.346  0.0176  0.0287 -0.0379
  666ERGO    R1 9028  16.441   5.592   6.613 -0.1026  0.1173 -0.0933
  666ERGO    R2 9029  16.179   5.628   6.690 -0.1588 -0.1888 -0.1626
  666ERGO    R3 9030  16.240   5.438   6.874  0.0717  0.0256 -0.0070
  666ERGO    R4 9031  16.027   5.598   6.999 -0.2851 -0.2377 -0.2262
  666ERGO    R5 9032  16.223   5.552   7.084 -0.2373  0.1476 -0.0844
  666ERGO    C1 9033  15.996   5.401   7.352 -0.1422 -0.0649 -0.1173
  666ERGO    C2 9034  15.935   5.514   7.628 -0.0142 -0.1643  0.2296
  667ERGO   ROH 9035  15.676  16.691  10.133 -0.0677  0.1747 -0.1240
  667ERGO    R1 9036  15.712  16.607   9.865 -0.0849  0.1400 -0.1154
  667ERGO    R2 9037  15.506  16.503   9.713 -0.0949  0.1282 -0.0903
  667ERGO    R3 9038  15.579  16.700   9.540 -0.0987  0.1025 -0.1215
  667ERGO    R4 9039  15.473  16.487   9.369 -0.0883  0.0612 -0.0879
  667ERGO    R5 9040  15.667  16.583   9.350 -0.0884  0.0683 -0.0993
  667ERGO    C1 9041  15.522  16.662   9.007 -0.0880 -0.0020 -0.1159
  667ERGO    C2 9042  15.360  16.695   8.696 -0.1225 -0.2215  0.4298
  668ERGO   ROH 9043   0.492   6.851   6.205 -0.0886  0.0829 -0.0333
  668ERGO    R1 9044   0.352   6.895   6.447 -0.0904  0.0136 -0.0218
  668ERGO    R2 9045   0.385   6.734   6.669 -0.0132  0.0130 -0.0346
  668ERGO    R3 9046   0.439   6.970   6.792 -0.0979  0.0268 -0.0225
  668ERGO    R4 9047   0.412   6.776   7.011  0.1075 -0.0248 -0.0391
  668ERGO    R5 9048   0.306   6.965   6.991 -0.0122 -0.0823  0.0345
  668ERGO    C1 9049   0.480   7.022   7.326  0.0982 -0.0338 -0.0303
  668ERGO    C2 9050   0.505   7.090   7.614 -0.0918 -0.0102  0.0088
  669ERGO   ROH 9051  13.776  11.238   6.210 -0.0566  0.1201  0.1118
  669ERGO    R1 9052  13.676  11.279   6.472  0.1209  0.1575  0.1741
  669ERGO    R2 9053  13.579  11.074   6.628 -0.2072  0.2447  0.0824
  669ERGO    R3 9054  13.759  11.169   6.808  0.0437 -0.2007  0.0816
  669ERGO    R4 9055  13.537  11.064   6.971 -0.3106  0.4723  0.0791
  669ERGO    R5 9056  13.624  11.265   6.982  0.2672  0.2504  0.0267
  669ERGO    C1 9057  13.681  11.147   7.340 -0.1352  0.1864  0.0763
  669ERGO    C2 9058  13.876  11.153   7.592  0.1529  0.2095  0.1321
  670ERGO   ROH 9059   8.971  13.343  10.442  0.2079 -0.1621 -0.0323
  670ERGO    R1 9060   8.946  13.458  10.184  0.1760 -0.1047 -0.0037
  670ERGO    R2 9061   9.112  13.391   9.975  0.0777 -0.1434 -0.0698
  670ERGO    R3 9062   8.878  13.338   9.847  0.0118 -0.0144 -0.0040
  670ERGO    R4 9063   9.081  13.335   9.635 -0.0219 -0.3015 -0.0359
  670ERGO    R5 9064   8.897  13.453   9.638  0.0776 -0.1431 -0.0700
  670ERGO    C1 9065   8.842  13.254   9.318 -0.1418 -0.2723  0.0456
  670ERGO    C2 9066   9.087  13.090   9.134 -0.0885 -0.0484  0.1263
  671ERGO   ROH 9067  16.685   2.082  10.509  0.1182  0.0533  0.0049
  671ERGO    R1 9068  16.769   2.194  10.263  0.2184 -0.0731 -0.0205
  671ERGO    R2 9069  16.900   2.047  10.069  0.0152 -0.2562 -0.0272
  671ERGO    R3 9070  16.699   2.139   9.910  0.0970 -0.0313 -0.0026
  671ERGO    R4 9071  16.933   2.125   9.734  0.0385 -0.3730 -0.0523
  671ERGO    R5 9072  16.805   2.299   9.767  0.2703 -0.1998 -0.0625
  671ERGO    C1 9073  16.764   2.258   9.390  0.1288 -0.2297 -0.0436
  671ERGO    C2 9074  16.589   2.160   9.125 -0.0808  0.1021  0.1029
  672ERGO   ROH 9075   4.010  14.652  10.325 -0.3013 -0.0361 -0.0943
  672ERGO    R1 9076   4.082  14.492  10.103 -0.1557 -0.0330 -0.0501
  672ERGO    R2 9077   3.939  14.267  10.030 -0.1237 -0.0136 -0.1616
  672ERGO    R3 9078   3.928  14.392   9.789  0.0629 -0.0060 -0.1688
  672ERGO    R4 9079   3.875  14.110   9.729 -0.3214  0.0518 -0.1554
  672ERGO    R5 9080   4.027  14.236   9.636 -0.1370 -0.1559 -0.1535
  672ERGO    C1 9081   3.827  14.135   9.327 -0.2614  0.0969 -0.1587
  672ERGO    C2 9082   3.696  14.007   9.045 -0.0522 -0.0436 -0.2430
  673ERGO   ROH 9083   4.505   1.177  10.168  0.2483 -0.1771  0.1748
  673ERGO    R1 9084   4.601   1.135   9.906  0.0080 -0.1954  0.0859
  673ERGO    R2 9085   4.433   1.102   9.688 -0.1954  0.1647  0.1781
  673ERGO    R3 9086   4.580   1.306   9.585  0.0456 -0.0005  0.1863
  673ERGO    R4 9087   4.457   1.178   9.352 -0.2469  0.2491  0.1942
  673ERGO    R5 9088   4.669   1.218   9.381 -0.1713 -0.0574  0.1130
  673ERGO    C1 9089   4.608   1.414   9.060 -0.0506  0.1432  0.2113
  673ERGO    C2 9090   4.745   1.447   8.846 -0.2472 -0.0965 -0.0311
  674ERGO   ROH 9091  10.795  16.669  10.264  0.0938 -0.0268  0.0875
  674ERGO    R1 9092  10.831  16.654   9.983  0.0933 -0.0147  0.0850
  674ERGO    R2 9093  10.627  16.585   9.810  0.1068 -0.0828  0.0829
  674ERGO    R3 9094  10.693  16.819   9.690  0.0297 -0.0575  0.0934
  674ERGO    R4 9095  10.586  16.652   9.474  0.1981 -0.1124  0.0673
  674ERGO    R5 9096  10.779  16.754   9.476  0.1388 -0.0170  0.1308
  674ERGO    C1 9097  10.625  16.911   9.165  0.1789 -0.1060  0.0680
  674ERGO    C2 9098  10.723  17.005   8.845  0.2326  0.1541  0.3580
  675loPI    C1 9099  15.790   1.847   6.196 -0.1674  0.1249  0.0671
  675loPI    C2 9100  15.925   2.208   6.090  0.1167 -0.1265 -0.4707
  675loPI    C3 9101  15.631   2.035   5.881  0.0375 -0.2423 -0.2662
  675loPI   PO4 9102  15.766   1.821   6.497  0.1883  0.1874  0.1850
  675loPI   GL1 9103  15.880   1.877   6.903 -0.0987  0.1130 -0.3911
  675loPI   GL2 9104  16.282   1.832   6.986  0.1252 -0.2288  0.3136
  675loPI   C1A 9105  15.921   1.816   7.386 -0.0856  0.0524 -0.1343
  675loPI   C2A 9106  15.802   1.750   7.821 -0.2440 -0.3059  0.1210
  675loPI   C3A 9107  15.792   1.602   8.162 -0.0815 -0.0340 -0.0327
  675loPI   C4A 9108  15.865   1.482   8.508  0.1823 -0.0160 -0.0022
  675loPI   C5A 9109  15.997   1.469   8.982  0.1808 -0.2414  0.0475
  675loPI   C6A 9110  16.145   1.534   9.401  0.2073 -0.3014 -0.2819
  675loPI   C1B 9111  16.440   1.865   7.423  0.1795 -0.1731  0.3108
  675loPI   C2B 9112  16.721   1.884   7.795  0.1539 -0.2535  0.1946
  675loPI   C3B 9113  16.753   1.920   8.145  0.1438  0.3246 -0.0614
  675loPI   C4B 9114  17.017   1.838   8.381 -0.4854 -0.1935  0.3825
  676loPI    C1 9115  16.371  11.892   5.764  0.2621 -0.0290  0.1332
  676loPI    C2 9116  16.150  11.614   5.580  0.4286 -0.1140  0.0595
  676loPI    C3 9117  16.270  11.938   5.379  0.2203  0.0214  0.1500
  676loPI   PO4 9118  16.277  11.968   6.019  0.2394  0.1844 -0.1922
  676loPI   GL1 9119  16.224  12.020   6.348 -0.3540 -0.1055  0.0353
  676loPI   GL2 9120  15.852  12.002   6.403 -0.2839  0.2643  0.2583
  676loPI   C1A 9121  16.272  12.091   6.718  0.0037 -0.0032 -0.1706
  676loPI   C2A 9122  16.135  11.915   7.156  0.5131  0.4918  0.1436
  676loPI   C3A 9123  16.180  11.930   7.537 -0.0028  0.0951  0.1372
  676loPI   C4A 9124  16.204  12.188   7.791 -0.0954  0.0876 -0.3072
  676loPI   C5A 9125  16.334  12.143   8.162 -0.3807  0.3217  0.0169
  676loPI   C6A 9126  16.249  12.080   8.569  0.3359 -0.1163 -0.0556
  676loPI   C1B 9127  15.738  11.794   6.763 -0.0547  0.0459  0.3616
  676loPI   C2B 9128  15.663  11.745   7.217 -0.0275  0.1174 -0.2044
  676loPI   C3B 9129  15.516  11.582   7.673 -0.0571 -0.3167 -0.0603
  676loPI   C4B 9130  15.593  11.475   8.173 -0.1290 -0.1085  0.1372
  677loPI    C1 9131   1.092  17.036   5.943 -0.0163  0.0716  0.0687
  677loPI    C2 9132   1.122  17.112   5.552 -0.1665  0.2992  0.0995
  677loPI    C3 9133   1.010  16.749   5.677  0.1613  0.1382 -0.0601
  677loPI   PO4 9134   0.879  17.176   5.996 -0.2100 -0.0829  0.0198
  677loPI   GL1 9135   0.825  17.106   6.390  0.0687  0.0297  0.0114
  677loPI   GL2 9136   1.124  16.915   6.549  0.2578  0.0287 -0.1500
  677loPI   C1A 9137   0.711  17.240   6.742  0.0275 -0.0309 -0.3506
  677loPI   C2A 9138   0.590  17.439   7.107  0.1499  0.3425  0.0553
  677loPI   C3A 9139   0.460  17.617   7.485 -0.1707 -0.3404 -0.0235
  677loPI   C4A 9140   0.788  17.889   7.761  0.0551 -0.0573 -0.1215
  677loPI   C5A 9141   1.218  18.053   7.579  0.2882 -0.1138  0.1868
  677loPI   C6A 9142   1.493  17.851   7.282  0.2220 -0.2263 -0.4295
  677loPI   C1B 9143   1.259  16.883   6.973  0.0149 -0.0006  0.0675
  677loPI   C2B 9144   1.327  16.819   7.412 -0.3798 -0.0566 -0.1123
  677loPI   C3B 9145   1.164  16.782   7.736  0.0699 -0.1125 -0.0184
  677loPI   C4B 9146   1.093  16.708   8.161  0.0137 -0.1884  0.0610
  678loPI    C1 9147   8.264   2.494   5.650  0.1257  0.1905 -0.1610
  678loPI    C2 9148   8.044   2.242   5.430  0.1007 -0.0901  0.1743
  678loPI    C3 9149   7.865   2.501   5.676  0.1257  0.2775 -0.1819
  678loPI   PO4 9150   8.399   2.335   5.812  0.1254 -0.0934 -0.0622
  678loPI   GL1 9151   8.488   2.309   6.223  0.1643  0.1360 -0.2593
  678loPI   GL2 9152   8.784   2.200   6.313 -0.0127 -0.1569 -0.3836
  678loPI   C1A 9153   8.239   2.176   6.601 -0.0041 -0.1598  0.0819
  678loPI   C2A 9154   7.919   2.064   6.853 -0.1546  0.2896  0.0423
  678loPI   C3A 9155   8.038   1.894   7.253  0.2823  0.0937 -0.0252
  678loPI   C4A 9156   8.053   1.857   7.689 -0.2732  0.1042  0.2719
  678loPI   C5A 9157   8.116   1.705   8.101  0.0453 -0.0250 -0.1439
  678loPI   C6A 9158   7.834   1.374   8.417 -0.0679  0.0942  0.3133
  678loPI   C1B 9159   8.958   2.000   6.763  0.1298  0.0333 -0.0878
  678loPI   C2B 9160   9.016   1.964   7.218 -0.2287 -0.1056  0.1859
  678loPI   C3B 9161   9.091   1.736   7.600  0.1215  0.0098 -0.2066
  678loPI   C4B 9162   9.059   1.620   7.919  0.2588  0.0341 -0.1572
  679loPI    C1 9163  12.007   7.058   6.034  0.1177 -0.1174 -0.0329
  679loPI    C2 9164  12.064   7.073   5.638 -0.1667  0.0756 -0.0702
  679loPI    C3 9165  12.026   7.411   5.848 -0.1522 -0.0285  0.1026
  679loPI   PO4 9166  12.215   6.947   6.142  0.3444  0.2020  0.1693
  679loPI   GL1 9167  12.079   6.886   6.553  0.0083 -0.0435  0.2376
  679loPI   GL2 9168  12.435   6.975   6.608  0.0855 -0.1027  0.0079
  679loPI   C1A 9169  12.146   7.258   6.860 -0.1434 -0.0850  0.1441
  679loPI   C2A 9170  12.328   7.265   7.281 -0.1648 -0.0334  0.1321
  679loPI   C3A 9171  12.267   7.442   7.582  0.0459  0.2313  0.2664
  679loPI   C4A 9172  12.255   7.557   7.952 -0.1479  0.2522  0.0620
  679loPI   C5A 9173  12.150   7.563   8.303 -0.1848 -0.0993 -0.0192
  679loPI   C6A 9174  11.862   7.446   8.371  0.3729 -0.0894 -0.2315
  679loPI   C1B 9175  12.541   6.869   7.033  0.3607 -0.4080 -0.0420
  679loPI   C2B 9176  12.712   6.934   7.419  0.3641 -0.1821 -0.4660
  679loPI   C3B 9177  13.059   6.995   7.777 -0.2802  0.0180  0.2042
  679loPI   C4B 9178  13.370   6.996   8.134 -0.0361  0.0266  0.0503
  680loPI    C1 9179   1.616  11.943   5.795 -0.1218  0.0728  0.0356
  680loPI    C2 9180   1.964  11.776   5.693 -0.2847 -0.1741 -0.1260
  680loPI    C3 9181   1.748  11.972   5.419 -0.2387  0.0439 -0.0083
  680loPI   PO4 9182   1.629  11.875   6.086  0.0884  0.2033  0.0278
  680loPI   GL1 9183   1.524  11.543   6.361 -0.1146  0.0147  0.0667
  680loPI   GL2 9184   1.464  11.766   6.539  0.1335 -0.0864  0.6220
  680loPI   C1A 9185   1.303  11.310   6.634 -0.0578  0.0754  0.0334
  680loPI   C2A 9186   1.309  11.260   7.050 -0.0790  0.2672 -0.0101
  680loPI   C3A 9187   1.045  11.063   7.408 -0.2264 -0.0590 -0.3151
  680loPI   C4A 9188   1.096  10.951   7.782  0.1635 -0.0713  0.1726
  680loPI   C5A 9189   1.309  11.045   8.086 -0.1124  0.0039  0.1111
  680loPI   C6A 9190   1.687  10.988   8.350 -0.0522  0.1794 -0.0621
  680loPI   C1B 9191   1.366  11.797   6.878 -0.0527  0.0427 -0.0310
  680loPI   C2B 9192   1.220  11.688   7.264 -0.2181 -0.0785 -0.1047
  680loPI   C3B 9193   1.044  11.596   7.658  0.1860  0.0876 -0.0232
  680loPI   C4B 9194   1.024  11.470   8.046 -0.1123  0.2821  0.0076
  681loPI    C1 9195  10.247   5.315   5.833  0.1300 -0.1583  0.1380
  681loPI    C2 9196  10.577   5.147   5.679  0.0366 -0.1467 -0.0783
  681loPI    C3 9197  10.221   5.086   5.506 -0.0501 -0.0154  0.0507
  681loPI   PO4 9198  10.342   5.509   6.041 -0.0123 -0.1236  0.0175
  681loPI   GL1 9199  10.335   5.438   6.486 -0.1296  0.0074 -0.0180
  681loPI   GL2 9200  10.410   5.696   6.600 -0.2004 -0.1496 -0.1638
  681loPI   C1A 9201  10.091   5.366   6.941  0.2339  0.1022 -0.1167
  681loPI   C2A 9202   9.868   5.305   7.172  0.0993 -0.3272  0.1056
  681loPI   C3A 9203   9.510   5.072   7.364  0.0205 -0.0462  0.1539
  681loPI   C4A 9204   9.150   4.882   7.566  0.0729 -0.1515  0.0709
  681loPI   C5A 9205   9.104   4.540   7.877  0.1227  0.2240 -0.3260
  681loPI   C6A 9206   9.306   4.300   8.168 -0.2713  0.0471  0.0504
  681loPI   C1B 9207  10.431   5.730   7.154 -0.0177  0.0750  0.0228
  681loPI   C2B 9208  10.085   5.739   7.375 -0.0302  0.0293 -0.0891
  681loPI   C3B 9209   9.998   5.981   7.787 -0.0393 -0.1374  0.1457
  681loPI   C4B 9210  10.198   6.131   8.132  0.0375  0.0092 -0.1494
  682loPI    C1 9211  16.107  15.827   5.658 -0.0214  0.0198 -0.1303
  682loPI    C2 9212  15.761  15.640   5.582 -0.0133 -0.0436 -0.0148
  682loPI    C3 9213  15.974  15.798   5.282 -0.1429 -0.0031 -0.0863
  682loPI   PO4 9214  16.109  15.897   5.928 -0.0515 -0.1186  0.0475
  682loPI   GL1 9215  16.057  15.880   6.371 -0.0252 -0.1120 -0.0836
  682loPI   GL2 9216  15.701  15.896   6.451 -0.3103 -0.1239 -0.0423
  682loPI   C1A 9217  16.026  16.210   6.701  0.0646  0.0124  0.0098
  682loPI   C2A 9218  15.705  16.519   6.727  0.1794  0.3110  0.1032
  682loPI   C3A 9219  15.464  16.705   7.047  0.0826  0.3070  0.0463
  682loPI   C4A 9220  15.449  16.778   7.496  0.1009  0.1074  0.2713
  682loPI   C5A 9221  15.281  16.795   7.857 -0.3418 -0.1082  0.1323
  682loPI   C6A 9222  15.063  16.898   8.270  0.1136 -0.2469  0.1683
  682loPI   C1B 9223  15.408  16.051   6.641  0.1182  0.1233  0.1375
  682loPI   C2B 9224  15.441  16.219   7.017 -0.2439 -0.0380  0.1961
  682loPI   C3B 9225  15.547  16.269   7.494 -0.1806  0.1101  0.0603
  682loPI   C4B 9226  15.399  16.104   7.886 -0.0768 -0.0167 -0.0786
  683loPI    C1 9227  17.731  12.891   5.827 -0.1746  0.0462  0.1403
  683loPI    C2 9228  17.477  12.782   5.538 -0.0861  0.1197  0.0340
  683loPI    C3 9229  17.871  12.742   5.483 -0.0732  0.0246  0.1908
  683loPI   PO4 9230  17.530  12.917   6.057 -0.2338 -0.0492 -0.0851
  683loPI   GL1 9231  17.659  12.896   6.436  0.2794 -0.1725 -0.2401
  683loPI   GL2 9232  17.572  13.139   6.541  0.4298 -0.1034  0.0129
  683loPI   C1A 9233  17.525  12.666   6.838 -0.0398 -0.1369  0.2894
  683loPI   C2A 9234  17.664  12.630   7.298 -0.0066 -0.0980  0.3360
  683loPI   C3A 9235  17.721  12.949   7.567  0.4947 -0.1478  0.0192
  683loPI   C4A 9236  17.898  12.781   8.003  0.3109 -0.1406 -0.1086
  683loPI   C5A 9237  17.839  12.743   8.476  0.0635  0.1927 -0.1544
  683loPI   C6A 9238  17.457  12.678   8.690 -0.0223  0.2016 -0.3180
  683loPI   C1B 9239  17.604  13.111   7.047 -0.0626  0.2667 -0.1219
  683loPI   C2B 9240  17.539  13.413   7.439  0.0945  0.0224  0.0653
  683loPI   C3B 9241  17.450  13.475   7.881  0.0553 -0.3095 -0.0979
  683loPI   C4B 9242  17.654  13.444   8.274 -0.1384 -0.1630 -0.1168
  684loPI    C1 9243  12.003  10.915   5.923 -0.1642 -0.0730  0.0378
  684loPI    C2 9244  11.680  10.789   6.122 -0.1213  0.0136  0.1635
  684loPI    C3 9245  11.638  10.982   5.775 -0.1947 -0.1770  0.0652
  684loPI   PO4 9246  12.244  10.763   6.008  0.0007  0.1006  0.1417
  684loPI   GL1 9247  12.305  10.921   6.351 -0.1136 -0.2271  0.0912
  684loPI   GL2 9248  11.956  10.990   6.447 -0.0837 -0.0289  0.2385
  684loPI   C1A 9249  12.253  11.182   6.802 -0.0762 -0.2498 -0.0872
  684loPI   C2A 9250  12.295  11.053   7.169 -0.0407 -0.0249  0.1269
  684loPI   C3A 9251  12.377  11.092   7.727  0.0998  0.2449  0.1294
  684loPI   C4A 9252  12.512  11.164   8.168  0.1425  0.0270 -0.0358
  684loPI   C5A 9253  12.561  11.565   8.317  0.2063  0.2650  0.0996
  684loPI   C6A 9254  12.587  11.952   8.071  0.2669  0.4176 -0.0129
  684loPI   C1B 9255  11.980  10.805   6.804  0.0759  0.2230 -0.3856
  684loPI   C2B 9256  11.953  10.670   7.199 -0.0786 -0.1917 -0.0227
  684loPI   C3B 9257  11.996  10.771   7.602 -0.1007  0.0088  0.0252
  684loPI   C4B 9258  12.144  10.770   8.061  0.1764  0.2336  0.2927
  685loPI    C1 9259   3.063   3.608   5.498 -0.1840 -0.0681  0.0213
  685loPI    C2 9260   2.951   3.741   5.138  0.1671  0.0845 -0.0357
  685loPI    C3 9261   3.036   3.354   5.190  0.0526  0.0502 -0.0997
  685loPI   PO4 9262   2.846   3.732   5.690  0.1082  0.0464  0.0199
  685loPI   GL1 9263   2.704   3.808   6.136 -0.0294 -0.0937  0.0908
  685loPI   GL2 9264   2.332   3.623   6.198  0.2264 -0.1325  0.1292
  685loPI   C1A 9265   2.839   3.976   6.565  0.3127 -0.0412 -0.0103
  685loPI   C2A 9266   2.759   3.869   6.988  0.3200 -0.2942 -0.0379
  685loPI   C3A 9267   2.712   3.971   7.444  0.1804 -0.0494  0.1084
  685loPI   C4A 9268   2.537   4.105   7.777  0.1739  0.2223 -0.0617
  685loPI   C5A 9269   2.763   4.423   8.174  0.2416 -0.2279  0.1285
  685loPI   C6A 9270   2.982   4.741   8.361 -0.1003 -0.4411 -0.1460
  685loPI   C1B 9271   2.366   3.782   6.621  0.0061  0.0393 -0.1458
  685loPI   C2B 9272   2.281   3.819   6.925 -0.0433 -0.1265 -0.0562
  685loPI   C3B 9273   2.201   3.766   7.389  0.1789 -0.2394  0.1988
  685loPI   C4B 9274   1.993   4.009   7.788 -0.3609  0.1582  0.1378
  686loPI    C1 9275  14.432   2.391   6.057  0.0825 -0.0533  0.0514
  686loPI    C2 9276  14.668   2.192   5.802  0.1778 -0.0986  0.1740
  686loPI    C3 9277  14.322   2.347   5.675  0.2273 -0.1161  0.0161
  686loPI   PO4 9278  14.443   2.230   6.330 -0.2000  0.1703 -0.0452
  686loPI   GL1 9279  14.344   2.253   6.738 -0.2815  0.0553  0.1532
  686loPI   GL2 9280  14.307   2.400   6.982  0.2570  0.2111  0.3028
  686loPI   C1A 9281  14.388   1.909   7.117  0.1815 -0.1706  0.2669
  686loPI   C2A 9282  14.263   2.003   7.519  0.0999 -0.1731 -0.0821
  686loPI   C3A 9283  14.186   1.848   7.869 -0.0537  0.0112 -0.1233
  686loPI   C4A 9284  14.037   1.862   8.261  0.6253 -0.2870 -0.0122
  686loPI   C5A 9285  14.365   1.759   8.429  0.2036  0.2788  0.3138
  686loPI   C6A 9286  14.492   1.497   8.750  0.0670 -0.0596  0.1027
  686loPI   C1B 9287  14.117   2.442   7.348  0.0623  0.2207  0.1952
  686loPI   C2B 9288  14.102   2.597   7.759  0.0468  0.2864  0.1113
  686loPI   C3B 9289  14.208   2.752   8.124  0.0272  0.2995 -0.4063
  686loPI   C4B 9290  14.276   2.685   8.573  0.0021  0.0512  0.3554
  687loPI    C1 9291  10.795  12.680   5.867  0.0537 -0.2002  0.1130
  687loPI    C2 9292  10.804  12.313   5.706  0.1248 -0.1656  0.0371
  687loPI    C3 9293  10.983  12.618   5.518 -0.1428 -0.0428 -0.0228
  687loPI   PO4 9294  10.869  12.632   6.076  0.1515 -0.1216  0.0108
  687loPI   GL1 9295  10.835  12.715   6.425  0.0708 -0.0056 -0.2859
  687loPI   GL2 9296  10.926  12.493   6.637  0.3117 -0.0955  0.0681
  687loPI   C1A 9297  10.611  12.735   6.890  0.0503  0.4724  0.1008
  687loPI   C2A 9298  10.618  12.713   7.288  0.2018  0.1095 -0.2199
  687loPI   C3A 9299  10.462  12.816   7.752 -0.1027 -0.5713  0.1493
  687loPI   C4A 9300  10.345  13.129   8.048 -0.1261 -0.1066  0.3407
  687loPI   C5A 9301  10.108  13.587   8.149  0.0700 -0.3262 -0.3933
  687loPI   C6A 9302   9.830  13.879   8.467  0.1536 -0.1979 -0.2989
  687loPI   C1B 9303  11.023  12.455   6.977 -0.1073  0.1341  0.2981
  687loPI   C2B 9304  11.068  12.517   7.426  0.0804 -0.1011 -0.2521
  687loPI   C3B 9305  11.175  12.305   7.818 -0.0148 -0.1062  0.2279
  687loPI   C4B 9306  11.084  11.882   7.565  0.0353  0.2139  0.3014
  688loPI    C1 9307   6.633   8.324   5.604  0.1438  0.1719 -0.0800
  688loPI    C2 9308   6.675   8.404   5.214 -0.2209  0.2192 -0.1129
  688loPI    C3 9309   6.387   8.156   5.337 -0.1363  0.2393  0.1314
  688loPI   PO4 9310   6.605   8.504   5.783  0.0387 -0.3324 -0.1165
  688loPI   GL1 9311   6.568   8.693   6.210  0.0741 -0.2845  0.0668
  688loPI   GL2 9312   6.899   8.898   6.100  0.2397  0.1444  0.2086
  688loPI   C1A 9313   6.690   8.770   6.601  0.0728  0.0617 -0.0769
  688loPI   C2A 9314   6.701   8.885   7.004 -0.2571  0.1956  0.0724
  688loPI   C3A 9315   6.858   8.866   7.342 -0.3690  0.1480  0.1662
  688loPI   C4A 9316   7.012   8.965   7.664 -0.2110 -0.0295 -0.1120
  688loPI   C5A 9317   7.207   8.987   8.108  0.0696 -0.1644 -0.1655
  688loPI   C6A 9318   7.596   9.087   8.269 -0.1140 -0.1098  0.0408
  688loPI   C1B 9319   6.566   9.212   6.268  0.3181 -0.0913 -0.0205
  688loPI   C2B 9320   6.423   9.236   6.664 -0.2933 -0.2382  0.3306
  688loPI   C3B 9321   6.346   9.270   7.113  0.5421 -0.0002  0.1852
  688loPI   C4B 9322   6.440   9.527   7.407  0.2605  0.0480 -0.0713
  689loPI    C1 9323   4.928  13.047   6.136 -0.1463 -0.3996 -0.1252
  689loPI    C2 9324   4.566  13.172   6.252 -0.0325 -0.1294 -0.0527
  689loPI    C3 9325   4.709  13.279   5.894  0.0519 -0.0801 -0.0044
  689loPI   PO4 9326   5.016  13.027   6.367  0.0983  0.1607  0.2210
  689loPI   GL1 9327   5.150  13.051   6.774 -0.1993  0.0713 -0.1761
  689loPI   GL2 9328   5.107  13.333   6.780 -0.1570 -0.2900 -0.1241
  689loPI   C1A 9329   5.266  12.916   7.191  0.0995  0.1894 -0.1589
  689loPI   C2A 9330   5.337  12.947   7.645 -0.2152  0.0319  0.0876
  689loPI   C3A 9331   5.391  12.919   8.182  0.0050  0.0381 -0.0034
  689loPI   C4A 9332   5.663  12.821   8.540  0.0650 -0.1520  0.0880
  689loPI   C5A 9333   5.597  12.745   9.027  0.3644  0.4933 -0.2798
  689loPI   C6A 9334   5.359  12.611   9.310  0.2628  0.2359  0.1130
  689loPI   C1B 9335   5.391  13.415   7.132  0.1490  0.2023 -0.0568
  689loPI   C2B 9336   5.657  13.600   7.262 -0.1032 -0.0595  0.2532
  689loPI   C3B 9337   5.757  13.663   7.742 -0.1058 -0.0655 -0.3425
  689loPI   C4B 9338   5.755  13.888   8.161  0.0479  0.1185  0.0109
  690loPI    C1 9339   6.314  13.767   5.974  0.2575 -0.2599  0.1386
  690loPI    C2 9340   6.660  13.717   5.779  0.2185  0.1950 -0.0597
  690loPI    C3 9341   6.429  14.033   5.698 -0.0509  0.1134  0.3608
  690loPI   PO4 9342   6.400  13.794   6.172  0.0505  0.3147  0.0383
  690loPI   GL1 9343   6.827  13.789   6.365  0.1275 -0.0861  0.0781
  690loPI   GL2 9344   6.704  13.581   6.536  0.0689  0.1880 -0.1628
  690loPI   C1A 9345   6.963  13.992   6.804 -0.0552  0.0337  0.0322
  690loPI   C2A 9346   6.935  13.938   7.245  0.0570 -0.0759 -0.1405
  690loPI   C3A 9347   7.066  14.023   7.760 -0.4529 -0.1177  0.1155
  690loPI   C4A 9348   7.407  14.289   7.842  0.0437 -0.1353 -0.0994
  690loPI   C5A 9349   7.412  14.574   8.167 -0.0049  0.2301  0.0256
  690loPI   C6A 9350   7.152  14.265   8.476  0.1268 -0.1069  0.2015
  690loPI   C1B 9351   6.826  13.491   6.845  0.0279  0.2783  0.0712
  690loPI   C2B 9352   7.037  13.448   7.260  0.1597  0.0953 -0.0479
  690loPI   C3B 9353   7.056  13.539   7.734 -0.1050  0.0231 -0.0150
  690loPI   C4B 9354   7.002  13.623   8.201 -0.0470 -0.0828 -0.0929
  691loPI    C1 9355  12.332  16.160   5.588  0.0590 -0.1916 -0.0423
  691loPI    C2 9356  11.992  16.052   5.408  0.0754 -0.0839 -0.1393
  691loPI    C3 9357  12.344  15.948   5.248  0.0889 -0.1457 -0.0700
  691loPI   PO4 9358  12.197  16.358   5.831 -0.4062 -0.0406 -0.3876
  691loPI   GL1 9359  12.224  16.178   6.223 -0.1320 -0.2110 -0.2949
  691loPI   GL2 9360  12.544  16.235   6.322  0.0044  0.2237 -0.0263
  691loPI   C1A 9361  12.175  16.098   6.605  0.1022  0.0615 -0.1646
  691loPI   C2A 9362  12.231  16.147   7.078  0.2277 -0.1213  0.1551
  691loPI   C3A 9363  12.240  16.054   7.348  0.2369 -0.0226 -0.2030
  691loPI   C4A 9364  12.198  16.202   7.666 -0.1951 -0.0356  0.1398
  691loPI   C5A 9365  12.253  16.305   8.041 -0.1216 -0.0394 -0.2665
  691loPI   C6A 9366  12.149  16.217   8.524 -0.0508 -0.3211  0.0004
  691loPI   C1B 9367  12.565  16.368   6.787  0.0637  0.1799  0.1438
  691loPI   C2B 9368  12.628  16.467   7.141  0.3161 -0.1260  0.1750
  691loPI   C3B 9369  12.707  16.526   7.623 -0.3568 -0.0857  0.1611
  691loPI   C4B 9370  12.680  16.579   8.100 -0.0562 -0.1041 -0.1042
  692loPI    C1 9371  11.460  16.768   5.406  0.1548 -0.2754 -0.0619
  692loPI    C2 9372  11.328  16.813   5.031  0.0314  0.0008  0.0121
  692loPI    C3 9373  11.640  17.029   5.160 -0.0611  0.0636  0.1319
  692loPI   PO4 9374  11.336  16.790   5.548 -0.0668 -0.1307 -0.0310
  692loPI   GL1 9375  11.358  16.968   5.925  0.0503 -0.0220  0.1141
  692loPI   GL2 9376  11.375  17.247   6.036 -0.0885  0.2764 -0.0162
  692loPI   C1A 9377  11.413  16.715   6.327  0.1511  0.0628 -0.0462
  692loPI   C2A 9378  11.467  16.640   6.646  0.1483  0.0925  0.3783
  692loPI   C3A 9379  11.326  16.704   7.118  0.2121  0.2597  0.0854
  692loPI   C4A 9380  11.429  16.798   7.573 -0.2115  0.0340 -0.0092
  692loPI   C5A 9381  11.378  16.782   7.931  0.0841  0.1982 -0.1713
  692loPI   C6A 9382  11.411  16.926   8.343  0.2070 -0.0601 -0.3841
  692loPI   C1B 9383  11.337  17.282   6.443 -0.3026 -0.1183 -0.0595
  692loPI   C2B 9384  11.451  17.198   6.900  0.0703  0.0748  0.1432
  692loPI   C3B 9385  11.295  17.255   7.356 -0.2260 -0.1767  0.0926
  692loPI   C4B 9386  11.394  17.347   7.781 -0.1144  0.3085  0.1208
  693loPI    C1 9387  12.051   9.278   5.683 -0.2006  0.0076  0.0000
  693loPI    C2 9388  11.855   9.623   5.632 -0.0372  0.0944 -0.0472
  693loPI    C3 9389  12.070   9.469   5.332 -0.1231 -0.0576 -0.0317
  693loPI   PO4 9390  11.822   9.069   5.739  0.1371 -0.1420  0.1094
  693loPI   GL1 9391  11.821   8.918   6.206  0.1892 -0.5424 -0.0255
  693loPI   GL2 9392  11.892   9.123   6.485  0.0084  0.0180  0.1614
  693loPI   C1A 9393  11.567   8.820   6.686 -0.0270 -0.2889  0.0209
  693loPI   C2A 9394  11.649   8.724   7.145 -0.1440 -0.1299 -0.1898
  693loPI   C3A 9395  11.556   8.834   7.523 -0.1981  0.0302  0.0702
  693loPI   C4A 9396  11.728   8.878   7.920  0.0112  0.3743 -0.1041
  693loPI   C5A 9397  11.813   8.954   8.295 -0.2806 -0.0049 -0.2452
  693loPI   C6A 9398  12.127   8.859   8.578  0.3707 -0.1258 -0.0401
  693loPI   C1B 9399  12.019   9.163   6.941  0.1219  0.2725  0.0333
  693loPI   C2B 9400  11.958   9.173   7.436 -0.0747  0.0881 -0.1482
  693loPI   C3B 9401  12.061   9.326   7.698  0.0015  0.1760  0.1074
  693loPI   C4B 9402  12.039   9.397   8.001  0.1917 -0.1192 -0.3905
  694loPI    C1 9403   5.883  16.718   5.838  0.0466  0.0648 -0.0388
  694loPI    C2 9404   6.128  16.989   5.677 -0.0444  0.0835 -0.1475
  694loPI    C3 9405   6.194  16.599   5.616  0.0180  0.0848 -0.0899
  694loPI   PO4 9406   5.915  16.748   6.113  0.1324 -0.3101 -0.0425
  694loPI   GL1 9407   5.879  16.811   6.478  0.2279 -0.2108 -0.0488
  694loPI   GL2 9408   5.662  17.074   6.480 -0.0741 -0.2579  0.0727
  694loPI   C1A 9409   5.973  16.871   6.877 -0.1071 -0.1518  0.2106
  694loPI   C2A 9410   5.967  16.711   7.283 -0.1962  0.1027  0.1682
  694loPI   C3A 9411   6.236  16.594   7.486  0.3542  0.1488  0.0699
  694loPI   C4A 9412   6.161  16.319   7.773 -0.0739 -0.0245 -0.4346
  694loPI   C5A 9413   5.851  16.328   8.175  0.1568 -0.2155  0.3283
  694loPI   C6A 9414   5.557  16.293   8.443 -0.1956  0.2055 -0.1643
  694loPI   C1B 9415   5.470  17.243   6.837 -0.0065 -0.2431  0.0558
  694loPI   C2B 9416   5.220  17.344   7.175 -0.0044  0.0359  0.1003
  694loPI   C3B 9417   5.289  17.529   7.682  0.0937 -0.2652  0.1683
  694loPI   C4B 9418   5.153  17.596   8.013 -0.0368 -0.0664 -0.0997
  695loPI    C1 9419   8.088   1.568   5.722 -0.3033  0.1026  0.3615
  695loPI    C2 9420   8.293   1.880   5.577 -0.0002 -0.0649  0.4223
  695loPI    C3 9421   8.214   1.566   5.342 -0.1020 -0.0429  0.4269
  695loPI   PO4 9422   8.220   1.574   6.054  0.5939  0.0556 -0.3248
  695loPI   GL1 9423   7.934   1.748   6.428 -0.1122 -0.0399 -0.3668
  695loPI   GL2 9424   7.677   1.884   6.378  0.1895 -0.1501 -0.2852
  695loPI   C1A 9425   7.783   1.583   6.940  0.1885 -0.0022  0.0519
  695loPI   C2A 9426   7.728   1.310   7.282  0.0616  0.2874  0.0668
  695loPI   C3A 9427   7.768   1.413   7.777 -0.0324  0.3883  0.2363
  695loPI   C4A 9428   7.624   1.715   8.084 -0.1008 -0.2757 -0.0487
  695loPI   C5A 9429   7.405   1.647   8.555  0.0041  0.1381 -0.1528
  695loPI   C6A 9430   7.441   1.311   8.832  0.0069 -0.0806  0.1423
  695loPI   C1B 9431   7.386   1.899   6.847 -0.3165 -0.2405 -0.2479
  695loPI   C2B 9432   7.516   1.899   7.335 -0.4276  0.1230  0.0949
  695loPI   C3B 9433   7.363   2.076   7.719  0.0578 -0.1737  0.0003
  695loPI   C4B 9434   7.225   2.508   7.831 -0.0622 -0.1180  0.1056
  696loPI    C1 9435   9.749   4.734   5.719  0.1745 -0.0366  0.0149
  696loPI    C2 9436   9.966   4.916   6.001 -0.1465 -0.0380  0.2692
  696loPI    C3 9437   9.791   5.132   5.714  0.1618 -0.0343  0.0796
  696loPI   PO4 9438   9.611   4.578   5.850  0.0311 -0.1075 -0.1507
  696loPI   GL1 9439   9.679   4.345   6.235 -0.2397 -0.3779  0.0076
  696loPI   GL2 9440   9.911   4.049   6.249  0.0252  0.0788 -0.2649
  696loPI   C1A 9441   9.752   4.275   6.683 -0.1785 -0.1031 -0.1906
  696loPI   C2A 9442   9.639   4.233   7.104 -0.2824 -0.3340 -0.4273
  696loPI   C3A 9443   9.669   4.509   7.476 -0.0895 -0.0066  0.0427
  696loPI   C4A 9444   9.611   4.598   7.907 -0.0397 -0.0888 -0.1382
  696loPI   C5A 9445   9.629   4.664   8.376  0.3017 -0.1278 -0.0085
  696loPI   C6A 9446   9.608   4.724   8.817 -0.1080  0.2157  0.1924
  696loPI   C1B 9447  10.196   4.072   6.555  0.2818  0.3845 -0.1614
  696loPI   C2B 9448  10.472   4.049   6.914 -0.3143  0.1942  0.1315
  696loPI   C3B 9449  10.466   4.051   7.291  0.4781 -0.3904  0.1377
  696loPI   C4B 9450  10.150   4.209   7.481  0.1233  0.3888 -0.2761
  697loPI    C1 9451   4.086   6.157   5.578 -0.1203 -0.1073 -0.0910
  697loPI    C2 9452   3.742   5.970   5.496 -0.1333 -0.0337 -0.2061
  697loPI    C3 9453   3.851   6.291   5.283 -0.0061 -0.0408 -0.1523
  697loPI   PO4 9454   4.041   6.241   5.916  0.0739  0.1785  0.1140
  697loPI   GL1 9455   4.343   6.286   6.210  0.1667 -0.2896 -0.2074
  697loPI   GL2 9456   4.624   6.466   6.266 -0.2654 -0.2155 -0.3830
  697loPI   C1A 9457   4.191   5.981   6.527  0.0354  0.1196 -0.0022
  697loPI   C2A 9458   4.209   6.098   6.859  0.0987 -0.0946 -0.0014
  697loPI   C3A 9459   4.247   6.112   7.181 -0.1193  0.2788 -0.1148
  697loPI   C4A 9460   4.274   6.219   7.675  0.0965  0.1155 -0.0986
  697loPI   C5A 9461   4.244   5.882   8.038  0.0184  0.1482  0.1203
  697loPI   C6A 9462   4.402   5.474   8.177 -0.2845  0.1763  0.5828
  697loPI   C1B 9463   4.683   6.748   6.591  0.2031  0.0079 -0.1741
  697loPI   C2B 9464   4.803   6.812   7.069  0.3996  0.1558 -0.0367
  697loPI   C3B 9465   4.835   6.579   7.381 -0.1630  0.2377 -0.2758
  697loPI   C4B 9466   4.688   6.497   7.868  0.3381 -0.2495  0.1139
  698loPI    C1 9467  12.752   7.625   5.897 -0.1992  0.0177 -0.0587
  698loPI    C2 9468  12.554   7.302   5.768 -0.0759 -0.0112 -0.1777
  698loPI    C3 9469  12.952   7.290   5.810 -0.1022  0.0325  0.1035
  698loPI   PO4 9470  12.542   7.782   6.115 -0.0053  0.1224  0.0859
  698loPI   GL1 9471  12.426   7.927   6.443  0.0652 -0.0508 -0.0433
  698loPI   GL2 9472  12.184   8.131   6.496 -0.1820 -0.1262 -0.0504
  698loPI   C1A 9473  12.291   7.732   6.865 -0.1782  0.1189  0.1759
  698loPI   C2A 9474  12.305   7.807   7.255  0.0462  0.2984 -0.1412
  698loPI   C3A 9475  12.045   7.963   7.663 -0.0936 -0.1062 -0.0737
  698loPI   C4A 9476  12.105   7.989   8.124 -0.0693 -0.3914 -0.0263
  698loPI   C5A 9477  11.783   7.938   8.435 -0.0914  0.1898  0.1066
  698loPI   C6A 9478  11.430   7.689   8.504  0.0090  0.1098  0.0401
  698loPI   C1B 9479  12.238   8.229   6.964 -0.1446  0.2619  0.0756
  698loPI   C2B 9480  12.246   8.303   7.376 -0.0420 -0.0190  0.1139
  698loPI   C3B 9481  12.372   8.380   7.870  0.0978  0.1258  0.0201
  698loPI   C4B 9482  12.436   8.468   8.272 -0.1287  0.1172 -0.3260
  699loPI    C1 9483   4.922   9.095   5.811  0.0060 -0.0186  0.1033
  699loPI    C2 9484   4.770   9.326   6.101 -0.1309 -0.0318  0.0430
  699loPI    C3 9485   5.159   9.231   6.103 -0.1070  0.0662  0.1565
  699loPI   PO4 9486   4.745   8.892   5.810 -0.1038  0.0915  0.1001
  699loPI   GL1 9487   4.583   8.640   6.076  0.1336 -0.1712  0.2305
  699loPI   GL2 9488   4.843   8.468   6.145 -0.0017 -0.0508  0.2230
  699loPI   C1A 9489   4.338   8.731   6.405  0.1820  0.0956  0.0041
  699loPI   C2A 9490   4.316   8.802   6.847 -0.0800 -0.0291  0.0369
  699loPI   C3A 9491   4.318   8.792   7.326 -0.2717  0.1291 -0.1241
  699loPI   C4A 9492   4.231   8.938   7.725  0.1502 -0.1383  0.1006
  699loPI   C5A 9493   4.263   8.959   8.172 -0.0007 -0.1862 -0.3557
  699loPI   C6A 9494   4.440   8.748   8.543 -0.2680  0.1503 -0.1022
  699loPI   C1B 9495   4.724   8.460   6.533  0.4413 -0.1999 -0.0391
  699loPI   C2B 9496   4.820   8.521   6.963 -0.1440  0.0549  0.2893
  699loPI   C3B 9497   4.835   8.625   7.312  0.0809 -0.0050  0.1540
  699loPI   C4B 9498   5.056   8.708   7.607 -0.1004  0.0780 -0.0920
  700loPI    C1 9499   4.360  17.607   5.973 -0.0733  0.3327 -0.0834
  700loPI    C2 9500   4.535  17.406   5.675  0.1443  0.2920  0.0699
  700loPI    C3 9501   4.197  17.608   5.608  0.0271  0.0338 -0.1313
  700loPI   PO4 9502   4.457  17.408   6.198  0.0283  0.1142  0.0534
  700loPI   GL1 9503   4.191  17.313   6.555 -0.0857  0.0708 -0.0465
  700loPI   GL2 9504   4.013  17.106   6.795 -0.3315 -0.0399  0.1277
  700loPI   C1A 9505   4.519  17.224   6.850  0.1160 -0.0421 -0.2120
  700loPI   C2A 9506   4.756  17.225   7.132 -0.2242 -0.1636 -0.0573
  700loPI   C3A 9507   4.959  17.192   7.615 -0.0507  0.2199 -0.0763
  700loPI   C4A 9508   4.974  17.160   8.077 -0.0788  0.0325 -0.1164
  700loPI   C5A 9509   4.782  17.402   8.398  0.1308 -0.2625  0.1563
  700loPI   C6A 9510   4.953  17.536   8.826 -0.0222  0.1097  0.0585
  700loPI   C1B 9511   4.114  17.165   7.175 -0.1460 -0.2072 -0.3863
  700loPI   C2B 9512   4.119  17.016   7.651 -0.2159  0.2901 -0.2280
  700loPI   C3B 9513   4.193  16.780   7.892  0.2553 -0.1435 -0.0496
  700loPI   C4B 9514   4.076  16.488   8.214 -0.2367  0.2478  0.3228
  701loPI    C1 9515  13.041   3.736   5.987  0.0570 -0.0079  0.0539
  701loPI    C2 9516  12.812   3.560   5.710 -0.0496 -0.1889  0.2542
  701loPI    C3 9517  13.184   3.427   5.776  0.1213  0.1085 -0.0750
  701loPI   PO4 9518  12.975   3.696   6.206  0.1441 -0.0547  0.1500
  701loPI   GL1 9519  12.519   3.764   6.389 -0.3103 -0.3623  0.0253
  701loPI   GL2 9520  12.711   3.559   6.597 -0.0239 -0.1339 -0.2456
  701loPI   C1A 9521  12.220   3.730   6.726  0.0643 -0.0420  0.1139
  701loPI   C2A 9522  12.076   3.904   7.128  0.2890 -0.1481  0.1601
  701loPI   C3A 9523  12.229   3.916   7.521  0.0787  0.0329 -0.1543
  701loPI   C4A 9524  12.212   4.075   7.972 -0.0454  0.1212 -0.2392
  701loPI   C5A 9525  12.275   4.376   8.270  0.1461 -0.1996 -0.1220
  701loPI   C6A 9526  12.261   4.536   8.723  0.0045  0.0643  0.1198
  701loPI   C1B 9527  12.686   3.697   6.990 -0.1474 -0.1086 -0.0312
  701loPI   C2B 9528  12.646   3.618   7.344 -0.1530  0.0985  0.1403
  701loPI   C3B 9529  12.665   3.304   7.707  0.1659  0.0102  0.1708
  701loPI   C4B 9530  12.450   3.350   8.143 -0.0680 -0.0737 -0.0821
  702loPI    C1 9531   2.135  14.936   6.025 -0.0442 -0.0084  0.1827
  702loPI    C2 9532   1.884  14.807   5.743  0.2664  0.2111 -0.2042
  702loPI    C3 9533   1.876  15.191   5.857  0.1784  0.1350  0.0510
  702loPI   PO4 9534   2.031  14.778   6.203  0.0654 -0.4063 -0.0308
  702loPI   GL1 9535   2.021  14.603   6.620  0.1397  0.3249  0.1603
  702loPI   GL2 9536   2.217  14.425   6.712 -0.0062  0.2839 -0.1581
  702loPI   C1A 9537   1.735  14.533   7.032  0.3251  0.0920 -0.0285
  702loPI   C2A 9538   1.744  14.516   7.459  0.1586 -0.0016  0.3886
  702loPI   C3A 9539   1.804  14.690   7.838 -0.1361 -0.2604 -0.0097
  702loPI   C4A 9540   1.812  14.712   8.273 -0.1471 -0.0176 -0.1648
  702loPI   C5A 9541   1.805  15.007   8.638  0.0921 -0.1342 -0.1520
  702loPI   C6A 9542   1.841  15.342   8.865 -0.0097  0.0828 -0.0928
  702loPI   C1B 9543   2.249  14.660   7.078  0.1010  0.1791  0.1421
  702loPI   C2B 9544   2.219  14.777   7.550 -0.2003 -0.1599 -0.0022
  702loPI   C3B 9545   2.234  14.788   8.039  0.1445  0.2281 -0.2789
  702loPI   C4B 9546   2.356  14.922   8.464 -0.1938 -0.1996 -0.1917
  703loPI    C1 9547   3.847   6.765   5.578  0.1396 -0.0291 -0.1167
  703loPI    C2 9548   3.566   7.050   5.560  0.1182 -0.0494 -0.1034
  703loPI    C3 9549   3.889   7.072   5.325  0.2204  0.0978  0.0488
  703loPI   PO4 9550   3.837   6.741   5.819  0.1006 -0.1215 -0.1250
  703loPI   GL1 9551   3.702   6.509   6.147  0.1848  0.1358  0.0602
  703loPI   GL2 9552   3.349   6.553   6.122 -0.2902  0.3124  0.1495
  703loPI   C1A 9553   3.680   6.546   6.566  0.0875 -0.0762 -0.2787
  703loPI   C2A 9554   3.621   6.437   6.947  0.1025  0.0994 -0.0735
  703loPI   C3A 9555   3.598   6.512   7.396  0.2639  0.0698  0.0919
  703loPI   C4A 9556   3.813   6.561   7.685  0.1631 -0.0133 -0.2830
  703loPI   C5A 9557   4.117   6.627   8.013 -0.1070 -0.2254  0.1549
  703loPI   C6A 9558   4.445   6.280   8.246  0.1209  0.0097  0.2539
  703loPI   C1B 9559   3.263   6.338   6.554  0.0108  0.1879 -0.1662
  703loPI   C2B 9560   3.088   6.183   6.986  0.0332 -0.0745  0.0533
  703loPI   C3B 9561   3.338   6.036   7.356  0.0087  0.1602  0.3367
  703loPI   C4B 9562   3.403   6.174   7.691  0.1934  0.2978 -0.0625
  704loPI    C1 9563  14.499   6.320   5.758 -0.0398  0.0975 -0.0226
  704loPI    C2 9564  14.563   6.692   5.625  0.2036  0.0401 -0.0699
  704loPI    C3 9565  14.429   6.410   5.375  0.0921  0.0767 -0.0520
  704loPI   PO4 9566  14.325   6.442   5.983 -0.0057 -0.0614 -0.1379
  704loPI   GL1 9567  14.306   6.172   6.385 -0.2790 -0.2842 -0.1259
  704loPI   GL2 9568  14.114   6.540   6.464  0.1145  0.2757  0.0856
  704loPI   C1A 9569  14.163   6.056   6.804 -0.0527 -0.0404  0.0232
  704loPI   C2A 9570  14.158   6.119   7.166  0.2356  0.0487  0.2946
  704loPI   C3A 9571  14.431   6.211   7.542  0.3289 -0.1111 -0.1638
  704loPI   C4A 9572  14.798   6.079   7.748  0.1195 -0.1506 -0.0336
  704loPI   C5A 9573  15.149   5.999   8.029 -0.0006  0.2944  0.1386
  704loPI   C6A 9574  15.392   6.154   8.382 -0.0085  0.0634  0.0467
  704loPI   C1B 9575  13.873   6.470   6.849 -0.0743 -0.0392 -0.2088
  704loPI   C2B 9576  13.804   6.520   7.305 -0.1200 -0.2892  0.0459
  704loPI   C3B 9577  13.984   6.362   7.651 -0.1871  0.3051  0.2702
  704loPI   C4B 9578  14.199   6.448   7.954  0.1133  0.0543 -0.0070
  705loPI    C1 9579  14.237  17.000   5.652  0.0658  0.1081 -0.0988
  705loPI    C2 9580  14.529  17.227   5.805 -0.1136  0.2801 -0.0067
  705loPI    C3 9581  14.561  17.085   5.433  0.1963  0.0947  0.0864
  705loPI   PO4 9582  14.156  16.800   5.914 -0.0956 -0.0189 -0.3024
  705loPI   GL1 9583  13.986  16.609   6.416 -0.1030  0.1928 -0.2620
  705loPI   GL2 9584  13.998  16.934   6.439  0.0161 -0.1469 -0.3535
  705loPI   C1A 9585  14.009  16.386   6.818  0.1021 -0.3550 -0.3218
  705loPI   C2A 9586  14.073  16.358   7.252 -0.2064 -0.0975 -0.0938
  705loPI   C3A 9587  14.052  16.406   7.678 -0.0238 -0.1540 -0.1480
  705loPI   C4A 9588  14.068  16.448   8.107 -0.3321 -0.0892 -0.2115
  705loPI   C5A 9589  14.205  16.814   8.402 -0.2984  0.0632 -0.1985
  705loPI   C6A 9590  14.401  17.163   8.222 -0.2525  0.0978  0.1098
  705loPI   C1B 9591  14.304  16.823   6.736 -0.1740 -0.3543  0.3888
  705loPI   C2B 9592  14.553  16.677   7.113 -0.0967 -0.0621  0.3347
  705loPI   C3B 9593  14.511  16.689   7.556 -0.0204  0.0254 -0.1747
  705loPI   C4B 9594  14.523  16.588   8.026  0.1257  0.1964 -0.0135
  706loPI    C1 9595   0.875   9.066   5.423  0.4789  0.1433  0.0424
  706loPI    C2 9596   0.732   9.424   5.315 -0.3258 -0.2546 -0.2960
  706loPI    C3 9597   0.917   9.193   5.046  0.0912 -0.1520 -0.1063
  706loPI   PO4 9598   0.676   8.995   5.657  0.1486 -0.1871  0.0651
  706loPI   GL1 9599   0.539   8.971   5.992  0.0404 -0.0121 -0.3521
  706loPI   GL2 9600   0.766   8.872   6.171 -0.0326 -0.1208 -0.1956
  706loPI   C1A 9601   0.389   9.251   6.351 -0.0389 -0.1898 -0.1876
  706loPI   C2A 9602   0.332   9.468   6.837 -0.2828 -0.2280 -0.1345
  706loPI   C3A 9603   0.270   9.375   7.284  0.0079 -0.1026 -0.0068
  706loPI   C4A 9604   0.238   9.260   7.678  0.0721 -0.2325 -0.3521
  706loPI   C5A 9605  -0.016   8.930   8.009 -0.0595  0.3224  0.1767
  706loPI   C6A 9606   0.045   8.814   8.448  0.2731  0.0066 -0.0786
  706loPI   C1B 9607   0.694   8.870   6.554 -0.4051  0.1343 -0.2005
  706loPI   C2B 9608   0.561   8.986   6.985  0.1701 -0.0435 -0.0876
  706loPI   C3B 9609   0.653   9.038   7.420 -0.0652  0.0941  0.1223
  706loPI   C4B 9610   0.657   9.043   7.862  0.0472 -0.0174 -0.1143
  707loPI    C1 9611  16.450  17.588   6.176 -0.0578 -0.0544 -0.0934
  707loPI    C2 9612  16.132  17.661   6.407  0.0815 -0.1265  0.1242
  707loPI    C3 9613  16.094  17.661   6.009 -0.1275  0.1587  0.1409
  707loPI   PO4 9614  16.520  17.430   6.224  0.0761 -0.3542  0.1901
  707loPI   GL1 9615  16.346  17.127   6.449 -0.1801 -0.1093 -0.0996
  707loPI   GL2 9616  16.627  17.099   6.602  0.1294  0.2576 -0.0754
  707loPI   C1A 9617  16.183  17.266   6.815 -0.4647 -0.4960 -0.1743
  707loPI   C2A 9618  16.048  17.359   7.110 -0.2242 -0.1728 -0.1297
  707loPI   C3A 9619  15.761  17.562   7.335 -0.1654 -0.0026  0.0522
  707loPI   C4A 9620  15.665  17.710   7.731 -0.0032 -0.0353  0.1575
  707loPI   C5A 9621  15.234  17.834   8.042  0.2054 -0.0145  0.2016
  707loPI   C6A 9622  15.236  17.978   8.525 -0.3370 -0.0339  0.2981
  707loPI   C1B 9623  16.557  17.029   7.129  0.0457 -0.1058  0.1020
  707loPI   C2B 9624  16.281  17.147   7.484  0.1544 -0.2265 -0.0251
  707loPI   C3B 9625  16.204  17.155   7.929 -0.2791 -0.0255 -0.0555
  707loPI   C4B 9626  15.743  17.225   7.840  0.2621  0.2056  0.2313
  708loPI    C1 9627  12.645   0.542   6.031  0.1348  0.0327  0.0613
  708loPI    C2 9628  12.422   0.758   5.777  0.1426 -0.0132  0.0152
  708loPI    C3 9629  12.668   0.475   5.637  0.1242 -0.0597  0.0762
  708loPI   PO4 9630  12.547   0.342   6.218 -0.1929 -0.1036 -0.2058
  708loPI   GL1 9631  12.216   0.194   6.403 -0.3785 -0.0918  0.3628
  708loPI   GL2 9632  12.136  -0.091   6.304 -0.1378  0.4184 -0.4542
  708loPI   C1A 9633  12.255   0.055   6.869  0.1143  0.2477  0.1569
  708loPI   C2A 9634  12.232  -0.107   7.308  0.1435 -0.1509 -0.1009
  708loPI   C3A 9635  12.522  -0.120   7.757 -0.0964  0.2822  0.3214
  708loPI   C4A 9636  12.622  -0.414   8.044  0.0228 -0.2106  0.3001
  708loPI   C5A 9637  12.665  -0.805   8.290 -0.3646  0.0123  0.0915
  708loPI   C6A 9638  12.295  -1.013   8.221 -0.3255 -0.0098 -0.2159
  708loPI   C1B 9639  12.534  -0.186   6.513 -0.0502 -0.1246  0.2743
  708loPI   C2B 9640  12.664  -0.303   6.934 -0.1085 -0.2215  0.1377
  708loPI   C3B 9641  12.729  -0.421   7.315  0.0387 -0.2671  0.0354
  708loPI   C4B 9642  13.003  -0.391   7.671 -0.2244  0.1556  0.0762
  709loPI    C1 9643   9.983   6.267   5.854 -0.2852  0.1278  0.0291
  709loPI    C2 9644  10.071   6.364   6.232  0.0123 -0.1519  0.0358
  709loPI    C3 9645  10.313   6.477   5.934 -0.1590 -0.0337 -0.0604
  709loPI   PO4 9646   9.703   6.177   5.907 -0.1870  0.0903  0.0462
  709loPI   GL1 9647   9.607   6.317   6.254  0.1169  0.3306  0.0583
  709loPI   GL2 9648   9.607   6.572   6.396  0.3921  0.3034  0.0378
  709loPI   C1A 9649   9.384   5.970   6.525 -0.4546  0.4427 -0.1826
  709loPI   C2A 9650   9.179   5.852   6.902  0.2015 -0.2423 -0.1071
  709loPI   C3A 9651   9.059   5.996   7.233 -0.4069  0.2104 -0.0381
  709loPI   C4A 9652   9.109   5.921   7.669  0.1467 -0.1465  0.2515
  709loPI   C5A 9653   9.142   5.736   8.061 -0.1015  0.2672  0.0117
  709loPI   C6A 9654   9.504   5.490   8.232  0.1341  0.1510  0.5207
  709loPI   C1B 9655   9.555   6.809   6.636  0.2849  0.0096 -0.1006
  709loPI   C2B 9656   9.484   6.755   7.122 -0.3604  0.1789  0.1628
  709loPI   C3B 9657   9.453   6.829   7.569 -0.3185  0.1231 -0.0714
  709loPI   C4B 9658   9.466   6.565   7.926  0.2012  0.3717 -0.4773
  710loPI    C1 9659   7.418  11.537   5.776 -0.1841 -0.0851  0.0778
  710loPI    C2 9660   7.438  11.880   5.570  0.1682 -0.1848 -0.0600
  710loPI    C3 9661   7.304  11.547   5.393 -0.3037 -0.0933  0.1128
  710loPI   PO4 9662   7.597  11.591   5.986 -0.0061  0.0455  0.1487
  710loPI   GL1 9663   7.788  11.612   6.303 -0.2159 -0.0320  0.1816
  710loPI   GL2 9664   7.946  11.988   6.451 -0.1101 -0.0770  0.2223
  710loPI   C1A 9665   7.932  11.388   6.722  0.0565  0.1744  0.2116
  710loPI   C2A 9666   8.122  11.334   7.161  0.2131 -0.0184  0.1520
  710loPI   C3A 9667   8.154  11.368   7.554  0.2048 -0.3178 -0.0309
  710loPI   C4A 9668   7.955  11.533   7.902 -0.1602  0.0340 -0.2599
  710loPI   C5A 9669   8.234  11.790   8.301 -0.0443  0.0428  0.0506
  710loPI   C6A 9670   8.593  12.030   8.376 -0.0508  0.0096  0.1068
  710loPI   C1B 9671   7.594  11.898   6.756  0.0551 -0.2752  0.0583
  710loPI   C2B 9672   7.195  11.881   6.956 -0.0323 -0.5080 -0.1808
  710loPI   C3B 9673   6.857  11.657   7.109  0.1478 -0.1154  0.2423
  710loPI   C4B 9674   6.733  11.592   7.529  0.0496 -0.1409  0.3247
  711loPI    C1 9675  15.923   0.839   6.225  0.0165  0.1507 -0.1215
  711loPI    C2 9676  16.116   1.040   5.938 -0.0075  0.3680  0.0120
  711loPI    C3 9677  15.716   1.030   5.941 -0.0062 -0.1310 -0.2981
  711loPI   PO4 9678  16.143   0.944   6.447  0.2535  0.1432  0.2695
  711loPI   GL1 9679  16.280   0.918   6.861 -0.1208 -0.3656 -0.0793
  711loPI   GL2 9680  16.361   0.697   6.827  0.2506  0.0191  0.1802
  711loPI   C1A 9681  16.413   0.901   7.286  0.2934  0.4385 -0.0475
  711loPI   C2A 9682  16.249   0.554   7.576  0.0975 -0.1531 -0.0358
  711loPI   C3A 9683  15.982   0.230   7.862  0.1648  0.0472 -0.2015
  711loPI   C4A 9684  15.675   0.060   8.221  0.2208 -0.1045 -0.2288
  711loPI   C5A 9685  15.533  -0.338   8.314 -0.0902 -0.3362  0.0243
  711loPI   C6A 9686  15.480  -0.613   8.550  0.3098  0.3376 -0.3213
  711loPI   C1B 9687  16.470   0.388   7.130  0.3513  0.2616  0.2219
  711loPI   C2B 9688  16.597   0.120   7.530 -0.2822  0.0617 -0.1907
  711loPI   C3B 9689  16.510   0.125   7.991 -0.2669  0.2017 -0.1874
  711loPI   C4B 9690  16.155   0.105   8.337  0.2236 -0.3172 -0.2629
  712loPI    C1 9691   9.157  10.264   5.733  0.2715 -0.2242  0.1100
  712loPI    C2 9692   9.356   9.930   5.636 -0.0456 -0.2768 -0.3890
  712loPI    C3 9693   9.226  10.177   5.349 -0.3684 -0.0484 -0.0559
  712loPI   PO4 9694   9.139  10.181   6.029  0.2263  0.0365  0.1168
  712loPI   GL1 9695   9.272   9.952   6.523  0.1548 -0.1314 -0.1021
  712loPI   GL2 9696   9.513  10.091   6.395 -0.0012  0.4429 -0.0637
  712loPI   C1A 9697   9.345   9.920   6.943  0.0071 -0.2633 -0.4283
  712loPI   C2A 9698   9.339  10.070   7.317  0.0567 -0.0035 -0.2099
  712loPI   C3A 9699   9.376  10.200   7.693 -0.0805  0.3938 -0.0080
  712loPI   C4A 9700   9.491  10.262   8.035  0.1053 -0.3504 -0.0859
  712loPI   C5A 9701   9.664  10.552   8.345 -0.2985 -0.0807 -0.1502
  712loPI   C6A 9702  10.012  10.819   8.410  0.1888  0.1022 -0.2174
  712loPI   C1B 9703   9.779  10.075   6.750 -0.3892  0.1157 -0.2314
  712loPI   C2B 9704   9.823  10.179   7.288 -0.0095 -0.3672 -0.0903
  712loPI   C3B 9705   9.995  10.202   7.797 -0.2011  0.1009  0.3049
  712loPI   C4B 9706  10.202  10.344   8.242  0.1864  0.1545 -0.0399
  713loPI    C1 9707  10.636  17.716   6.012  0.1620 -0.1055 -0.0544
  713loPI    C2 9708  10.468  17.570   5.680 -0.2759 -0.0656  0.1425
  713loPI    C3 9709  10.541  17.962   5.711 -0.2445 -0.0678  0.0982
  713loPI   PO4 9710  10.826  17.578   6.052 -0.0511 -0.0206 -0.0124
  713loPI   GL1 9711  10.840  17.451   6.470 -0.1840 -0.0381 -0.1594
  713loPI   GL2 9712  10.521  17.437   6.499 -0.0644  0.0475 -0.1671
  713loPI   C1A 9713  11.008  17.464   6.841 -0.1116 -0.2013 -0.0327
  713loPI   C2A 9714  10.914  17.523   7.213  0.2545 -0.1056  0.2058
  713loPI   C3A 9715  10.765  17.420   7.625  0.3053 -0.2401 -0.1140
  713loPI   C4A 9716  10.590  17.367   7.980  0.0326  0.0631 -0.1436
  713loPI   C5A 9717  10.648  17.657   8.393  0.2626 -0.0138  0.1863
  713loPI   C6A 9718  10.546  17.974   8.563 -0.0646  0.0485 -0.0637
  713loPI   C1B 9719  10.492  17.550   6.881  0.0986 -0.1633 -0.0631
  713loPI   C2B 9720  10.398  17.697   7.329 -0.2948  0.0622  0.0657
  713loPI   C3B 9721  10.390  17.852   7.672 -0.1835 -0.0938 -0.0165
  713loPI   C4B 9722  10.426  17.957   8.052  0.2680  0.2586  0.3003
  714loPI    C1 9723   8.572  16.627   5.633  0.0756 -0.0558 -0.0758
  714loPI    C2 9724   8.669  16.575   5.248  0.1016 -0.2759 -0.0411
  714loPI    C3 9725   8.285  16.563   5.361  0.0549  0.2262 -0.1229
  714loPI   PO4 9726   8.762  16.908   5.671  0.0581  0.1952  0.0559
  714loPI   GL1 9727   8.774  17.222   5.914 -0.1435 -0.1199 -0.1728
  714loPI   GL2 9728   8.803  17.535   5.926 -0.2077  0.2222  0.0100
  714loPI   C1A 9729   8.726  17.074   6.297 -0.2387  0.1292  0.1108
  714loPI   C2A 9730   8.659  16.976   6.793 -0.3247  0.1012 -0.0338
  714loPI   C3A 9731   8.699  16.899   7.195 -0.2879 -0.1670 -0.0308
  714loPI   C4A 9732   8.833  16.761   7.629 -0.0410  0.0433  0.1860
  714loPI   C5A 9733   8.912  16.593   8.068  0.0370 -0.0017 -0.2139
  714loPI   C6A 9734   9.046  16.521   8.422 -0.0318  0.0234 -0.1101
  714loPI   C1B 9735   8.825  17.852   6.409  0.1006  0.2704 -0.1014
  714loPI   C2B 9736   8.475  17.864   6.754  0.0578  0.0787 -0.2058
  714loPI   C3B 9737   8.105  18.003   7.014 -0.4828  0.1457  0.1954
  714loPI   C4B 9738   8.110  17.929   7.474  0.0199 -0.0449  0.0384
  715loPI    C1 9739  15.217   5.820   5.668 -0.2637  0.3391 -0.0806
  715loPI    C2 9740  15.090   5.806   5.288  0.0189  0.1588 -0.1715
  715loPI    C3 9741  15.476   5.872   5.368 -0.0055  0.0102  0.0800
  715loPI   PO4 9742  15.075   5.701   5.787  0.0091 -0.1408  0.1744
  715loPI   GL1 9743  14.897   5.615   6.118  0.3760  0.1378 -0.1896
  715loPI   GL2 9744  14.877   5.950   6.209  0.1967  0.1905 -0.1188
  715loPI   C1A 9745  15.177   5.604   6.521 -0.0403 -0.1953  0.1895
  715loPI   C2A 9746  15.204   5.923   6.725 -0.1183  0.2493  0.0135
  715loPI   C3A 9747  15.146   5.964   7.091 -0.0324 -0.3063  0.0069
  715loPI   C4A 9748  15.316   6.224   7.535 -0.0539  0.2420 -0.0367
  715loPI   C5A 9749  15.484   6.342   7.896 -0.0165  0.3356  0.1392
  715loPI   C6A 9750  15.599   6.568   8.282 -0.3624 -0.1514 -0.2390
  715loPI   C1B 9751  14.723   6.078   6.627 -0.1289  0.1829 -0.1695
  715loPI   C2B 9752  14.612   6.081   6.995 -0.1250  0.0996  0.1900
  715loPI   C3B 9753  14.734   5.886   7.306  0.2005 -0.1554 -0.0410
  715loPI   C4B 9754  15.116   5.754   7.547 -0.2376 -0.2495  0.0944
  716loPI    C1 9755   6.666   6.185   5.656  0.1110 -0.0632 -0.4929
  716loPI    C2 9756   6.730   6.572   5.576 -0.0314  0.0217 -0.2090
  716loPI    C3 9757   7.039   6.329   5.653  0.0288  0.1879  0.0873
  716loPI   PO4 9758   6.436   6.265   5.790 -0.1261  0.1657  0.4823
  716loPI   GL1 9759   6.513   6.398   6.214  0.0169 -0.0669 -0.1174
  716loPI   GL2 9760   6.151   6.448   6.233 -0.4112  0.1983 -0.2584
  716loPI   C1A 9761   6.851   6.373   6.604  0.1215  0.2181  0.0155
  716loPI   C2A 9762   6.876   6.268   7.043 -0.2995 -0.1103  0.0699
  716loPI   C3A 9763   6.804   6.194   7.503 -0.1093 -0.1622 -0.0165
  716loPI   C4A 9764   6.812   5.971   7.878 -0.2315  0.0895 -0.1638
  716loPI   C5A 9765   6.540   5.610   7.812 -0.0824 -0.1807  0.2431
  716loPI   C6A 9766   6.246   5.239   7.746 -0.0888 -0.0866  0.0740
  716loPI   C1B 9767   6.271   6.459   6.656 -0.0123  0.0658 -0.1914
  716loPI   C2B 9768   6.397   6.301   7.119 -0.1540 -0.1561 -0.0816
  716loPI   C3B 9769   6.305   5.929   7.294  0.3373  0.0943  0.0001
  716loPI   C4B 9770   5.989   5.703   7.417 -0.4874 -0.3744 -0.0217
  717loPI    C1 9771  13.984  13.903   5.588  0.1082  0.0947  0.0002
  717loPI    C2 9772  13.650  14.115   5.530  0.0768  0.0616  0.0594
  717loPI    C3 9773  13.896  14.040   5.223 -0.0297 -0.0138 -0.0080
  717loPI   PO4 9774  14.091  14.007   5.810  0.1936 -0.3164  0.0870
  717loPI   GL1 9775  14.130  13.961   6.206 -0.1443  0.0088 -0.0885
  717loPI   GL2 9776  14.187  14.252   6.394 -0.0903 -0.2726 -0.0373
  717loPI   C1A 9777  14.051  13.810   6.668 -0.2688 -0.0948  0.3661
  717loPI   C2A 9778  14.040  13.808   7.105  0.2606  0.0775  0.1225
  717loPI   C3A 9779  14.195  13.849   7.565  0.0541  0.0755  0.2902
  717loPI   C4A 9780  14.232  13.767   7.991  0.1496  0.2556 -0.1123
  717loPI   C5A 9781  14.064  13.577   8.321  0.1475  0.0019  0.1103
  717loPI   C6A 9782  14.260  13.385   8.684  0.1846 -0.0496  0.1827
  717loPI   C1B 9783  14.041  14.346   6.804  0.1330  0.1537  0.1438
  717loPI   C2B 9784  14.037  14.338   7.119 -0.2215 -0.1321  0.0537
  717loPI   C3B 9785  14.098  14.339   7.539 -0.1279  0.1361  0.2865
  717loPI   C4B 9786  14.234  14.440   8.003  0.4738  0.0928  0.1141
  718loPI    C1 9787   7.953  13.624   6.005 -0.2074 -0.0639  0.0876
  718loPI    C2 9788   8.105  13.589   5.637  0.0753 -0.2210  0.2159
  718loPI    C3 9789   7.847  13.316   5.774 -0.0962 -0.1163  0.1058
  718loPI   PO4 9790   8.118  13.796   6.106  0.2030 -0.0449 -0.0955
  718loPI   GL1 9791   8.168  14.096   6.446  0.1987 -0.0697  0.1358
  718loPI   GL2 9792   7.963  14.260   6.682 -0.1662  0.0334  0.3277
  718loPI   C1A 9793   8.430  14.201   6.836  0.1068 -0.1080 -0.2233
  718loPI   C2A 9794   8.410  14.132   7.288 -0.1983 -0.0414  0.1598
  718loPI   C3A 9795   8.457  13.967   7.699 -0.2474 -0.0421 -0.1369
  718loPI   C4A 9796   8.285  13.776   8.138 -0.0311  0.0367  0.1581
  718loPI   C5A 9797   8.495  13.617   8.382  0.3282  0.0801  0.2636
  718loPI   C6A 9798   8.747  13.614   8.772 -0.2680 -0.0014  0.0012
  718loPI   C1B 9799   7.951  14.175   7.133 -0.1605  0.0999 -0.0431
  718loPI   C2B 9800   7.888  14.212   7.558  0.0483  0.0961 -0.0819
  718loPI   C3B 9801   7.870  14.492   7.926  0.2217  0.0451  0.0902
  718loPI   C4B 9802   8.181  14.803   8.069  0.2934 -0.0535  0.2698
  719loPI    C1 9803   3.926   8.057   5.900  0.0955 -0.1488 -0.0287
  719loPI    C2 9804   3.940   8.255   5.553 -0.1336 -0.0622  0.0100
  719loPI    C3 9805   4.145   7.915   5.597  0.0589  0.0327 -0.1416
  719loPI   PO4 9806   3.658   8.009   5.941  0.2264 -0.0230  0.0350
  719loPI   GL1 9807   3.425   8.156   6.255 -0.0449 -0.2232 -0.0980
  719loPI   GL2 9808   3.176   8.314   6.114 -0.0330 -0.1383 -0.2163
  719loPI   C1A 9809   3.728   8.055   6.607  0.1259  0.3147 -0.0699
  719loPI   C2A 9810   3.886   7.959   7.039 -0.1398 -0.1108  0.1626
  719loPI   C3A 9811   4.075   8.021   7.421  0.4893 -0.2277 -0.0759
  719loPI   C4A 9812   4.082   7.798   7.832  0.1842 -0.1605  0.0625
  719loPI   C5A 9813   4.328   7.731   8.139  0.0974  0.0063 -0.0173
  719loPI   C6A 9814   4.785   7.573   8.284  0.2644  0.1220  0.2303
  719loPI   C1B 9815   3.210   8.470   6.558 -0.1308 -0.0082  0.4182
  719loPI   C2B 9816   3.360   8.245   6.927  0.1056 -0.0960 -0.1708
  719loPI   C3B 9817   3.547   8.158   7.326  0.3889 -0.1944 -0.1047
  719loPI   C4B 9818   3.630   8.017   7.713 -0.0004 -0.2696 -0.0860
  720loPI    C1 9819   0.127   5.298   5.433 -0.1811 -0.0965 -0.1166
  720loPI    C2 9820   0.459   5.275   5.655 -0.2981 -0.1700  0.0527
  720loPI    C3 9821   0.478   5.215   5.260 -0.1105 -0.1743  0.0615
  720loPI   PO4 9822  -0.069   5.335   5.615 -0.3970  0.0795  0.2520
  720loPI   GL1 9823  -0.262   5.458   5.937  0.0669  0.0293 -0.1296
  720loPI   GL2 9824  -0.400   5.677   5.900 -0.4960  0.2834  0.2689
  720loPI   C1A 9825  -0.335   5.340   6.405  0.0653 -0.0623 -0.1248
  720loPI   C2A 9826  -0.290   5.380   6.760  0.1651  0.0108  0.0331
  720loPI   C3A 9827  -0.097   5.580   7.132 -0.0623  0.1930  0.1167
  720loPI   C4A 9828  -0.196   5.684   7.526  0.0802  0.0992  0.1344
  720loPI   C5A 9829  -0.491   5.805   7.854 -0.0913  0.1278 -0.1095
  720loPI   C6A 9830  -0.527   5.933   8.228  0.3241  0.2420  0.4741
  720loPI   C1B 9831  -0.329   5.892   6.382 -0.0477  0.3630 -0.1027
  720loPI   C2B 9832  -0.471   5.938   6.763 -0.1950  0.0502  0.1143
  720loPI   C3B 9833  -0.556   5.849   7.195  0.0117 -0.0452  0.2333
  720loPI   C4B 9834  -0.768   5.635   7.484 -0.0625  0.1524  0.0224
  721loPI    C1 9835   0.869   4.916   5.478  0.0644 -0.0527  0.0935
  721loPI    C2 9836   0.978   5.179   5.196 -0.3358  0.0413  0.0211
  721loPI    C3 9837   1.043   4.788   5.141 -0.1211  0.0868 -0.0573
  721loPI   PO4 9838   0.938   5.095   5.680 -0.2152 -0.1342  0.1934
  721loPI   GL1 9839   0.952   5.366   6.029  0.2244 -0.1212  0.0152
  721loPI   GL2 9840   1.031   5.573   5.949 -0.0948  0.0894 -0.1184
  721loPI   C1A 9841   0.832   5.299   6.474  0.1674 -0.2619  0.4948
  721loPI   C2A 9842   0.758   5.160   6.794  0.0329  0.0508 -0.0481
  721loPI   C3A 9843   0.774   4.972   7.150  0.1063 -0.2350 -0.0526
  721loPI   C4A 9844   0.860   4.845   7.575 -0.1131  0.5433  0.1872
  721loPI   C5A 9845   0.882   4.778   8.147 -0.2755  0.0481  0.2662
  721loPI   C6A 9846   0.901   4.834   8.575  0.0769  0.1478  0.0889
  721loPI   C1B 9847   1.140   5.670   6.343 -0.3480 -0.1218 -0.2224
  721loPI   C2B 9848   1.095   5.601   6.772 -0.3593 -0.1476  0.2681
  721loPI   C3B 9849   1.019   5.501   7.169  0.2268 -0.2078 -0.0315
  721loPI   C4B 9850   1.102   5.348   7.607 -0.0534 -0.0729 -0.3065
  722loPI    C1 9851   2.633  10.573   5.707  0.1173  0.1200 -0.0330
  722loPI    C2 9852   2.951  10.487   5.479  0.0821  0.0873 -0.0699
  722loPI    C3 9853   2.733  10.814   5.404 -0.0873 -0.0648 -0.2509
  722loPI   PO4 9854   2.832  10.559   5.967 -0.0507  0.0250  0.1871
  722loPI   GL1 9855   2.928  10.631   6.362 -0.3935 -0.0305  0.2284
  722loPI   GL2 9856   2.869  10.900   6.299  0.0753  0.0630  0.2924
  722loPI   C1A 9857   2.845  10.244   6.749 -0.0431 -0.2058  0.1200
  722loPI   C2A 9858   2.830   9.957   7.056  0.0381  0.1928  0.0041
  722loPI   C3A 9859   2.892   9.879   7.487 -0.0297 -0.0368 -0.0124
  722loPI   C4A 9860   3.051   9.906   7.924 -0.1646 -0.3755  0.0966
  722loPI   C5A 9861   3.395   9.686   8.178 -0.2003 -0.4481 -0.2046
  722loPI   C6A 9862   3.430   9.366   8.459  0.0045 -0.0410  0.3712
  722loPI   C1B 9863   2.837  10.725   6.842  0.2065 -0.0631  0.0696
  722loPI   C2B 9864   2.803  10.830   7.274  0.2021  0.0555 -0.2028
  722loPI   C3B 9865   2.723  10.865   7.670  0.0886  0.0293 -0.2635
  722loPI   C4B 9866   2.621  10.687   8.027 -0.0301 -0.1849  0.1946
  723loPI    C1 9867   3.955  12.062   5.911 -0.0841 -0.0332 -0.2732
  723loPI    C2 9868   4.039  12.453   5.894 -0.2457  0.0193  0.0557
  723loPI    C3 9869   4.021  12.238   5.557  0.5822  0.1307 -0.0800
  723loPI   PO4 9870   3.931  12.009   6.147 -0.1611 -0.0330 -0.1292
  723loPI   GL1 9871   3.597  12.020   6.554 -0.0956 -0.2361 -0.1518
  723loPI   GL2 9872   3.902  12.132   6.701  0.1360  0.2477 -0.0641
  723loPI   C1A 9873   3.507  11.964   6.876  0.0767 -0.0248 -0.1663
  723loPI   C2A 9874   3.558  12.001   7.318 -0.1085 -0.4738  0.0319
  723loPI   C3A 9875   3.463  12.065   7.743 -0.0634 -0.1028 -0.0843
  723loPI   C4A 9876   3.513  12.215   8.076  0.2501  0.0141  0.1107
  723loPI   C5A 9877   3.513  12.368   8.455 -0.0644  0.4087 -0.1908
  723loPI   C6A 9878   3.601  12.318   8.881  0.1618 -0.0564  0.1391
  723loPI   C1B 9879   3.981  12.220   7.052 -0.2763 -0.1315  0.0883
  723loPI   C2B 9880   4.033  12.094   7.447 -0.0324  0.2676  0.0049
  723loPI   C3B 9881   4.000  12.039   7.852  0.1083  0.0615 -0.0866
  723loPI   C4B 9882   4.011  11.966   8.240  0.2954 -0.1265 -0.0768
  724loPI    C1 9883   2.100  12.942   6.135  0.0495 -0.2522  0.0657
  724loPI    C2 9884   2.012  13.259   6.362  0.2063 -0.0419 -0.1620
  724loPI    C3 9885   2.386  13.117   6.353  0.1782 -0.1134 -0.2102
  724loPI   PO4 9886   1.952  12.735   6.164  0.0929  0.1705 -0.1095
  724loPI   GL1 9887   1.576  12.761   6.451  0.0838  0.3724 -0.0219
  724loPI   GL2 9888   1.586  13.046   6.428  0.0229 -0.0911 -0.2527
  724loPI   C1A 9889   1.739  12.675   6.808 -0.1235  0.0536  0.0437
  724loPI   C2A 9890   1.844  12.619   7.166  0.1577 -0.1638 -0.2034
  724loPI   C3A 9891   1.934  12.761   7.530  0.0223  0.0824  0.0381
  724loPI   C4A 9892   1.884  12.864   8.086  0.1647  0.0070  0.2066
  724loPI   C5A 9893   2.258  13.026   8.287  0.4138 -0.0130  0.0997
  724loPI   C6A 9894   2.338  13.474   8.221 -0.1380 -0.2397 -0.2072
  724loPI   C1B 9895   1.693  13.220   6.783  0.0170 -0.0825  0.2885
  724loPI   C2B 9896   1.728  13.142   7.241  0.1126  0.2254  0.3408
  724loPI   C3B 9897   1.597  13.080   7.588  0.2482 -0.1016  0.1903
  724loPI   C4B 9898   1.408  12.809   7.912 -0.2712 -0.3516 -0.0511
  725loPI    C1 9899  14.792  15.725   5.670  0.3421 -0.2563  0.0263
  725loPI    C2 9900  15.003  15.960   5.424 -0.1071  0.0304 -0.0987
  725loPI    C3 9901  14.688  15.756   5.285 -0.0064 -0.2783  0.1147
  725loPI   PO4 9902  14.926  15.701   5.863  0.1067 -0.2897  0.2791
  725loPI   GL1 9903  14.730  15.771   6.272 -0.1325 -0.3689 -0.0395
  725loPI   GL2 9904  14.732  15.529   6.283 -0.1332  0.0393  0.4351
  725loPI   C1A 9905  14.916  15.811   6.715 -0.0699  0.0667 -0.0287
  725loPI   C2A 9906  15.013  15.881   7.138 -0.3214  0.0057  0.0480
  725loPI   C3A 9907  15.089  16.027   7.532 -0.2314  0.2547 -0.0168
  725loPI   C4A 9908  14.957  15.885   7.863 -0.2789 -0.0893  0.2835
  725loPI   C5A 9909  14.571  16.065   8.034 -0.2428  0.1012  0.3503
  725loPI   C6A 9910  14.542  16.179   8.517  0.2794  0.0059  0.0506
  725loPI   C1B 9911  14.501  15.544   6.691 -0.2049 -0.2614 -0.1526
  725loPI   C2B 9912  14.555  15.661   7.185 -0.0563  0.0052  0.2518
  725loPI   C3B 9913  14.533  15.603   7.670 -0.0716  0.0704 -0.1178
  725loPI   C4B 9914  14.447  15.533   8.165  0.0375 -0.2037  0.1547
  726loPI    C1 9915   9.302   4.146   5.740 -0.0977 -0.0508 -0.0330
  726loPI    C2 9916   9.372   4.088   5.351 -0.1976  0.1664 -0.0850
  726loPI    C3 9917   9.305   4.457   5.489  0.1516  0.1317  0.1908
  726loPI   PO4 9918   9.423   4.038   5.863  0.1487 -0.1366 -0.3449
  726loPI   GL1 9919   9.423   3.756   6.238  0.2281 -0.2192  0.0734
  726loPI   GL2 9920   8.985   3.783   6.211 -0.3933  0.2476  0.2161
  726loPI   C1A 9921   9.629   3.774   6.676 -0.1247  0.2061 -0.0457
  726loPI   C2A 9922   9.965   3.859   7.093  0.1885  0.1457  0.2338
  726loPI   C3A 9923   9.694   3.906   7.452 -0.0571 -0.1983  0.2467
  726loPI   C4A 9924   9.615   3.961   7.764  0.1022  0.1972  0.1417
  726loPI   C5A 9925   9.946   4.149   8.060  0.1124  0.2094  0.2851
  726loPI   C6A 9926  10.120   4.483   7.989 -0.2901  0.2384 -0.1336
  726loPI   C1B 9927   8.845   3.786   6.591  0.2445  0.2313 -0.1237
  726loPI   C2B 9928   8.812   3.762   7.048 -0.0533  0.0558  0.2813
  726loPI   C3B 9929   8.803   3.792   7.427  0.0927  0.1837 -0.0371
  726loPI   C4B 9930   8.887   4.091   7.805  0.0655  0.1338 -0.1230
  727loPI    C1 9931   1.237   8.725   5.529  0.0459 -0.0793 -0.0939
  727loPI    C2 9932   1.430   8.945   5.256 -0.1163 -0.0590 -0.1935
  727loPI    C3 9933   1.115   8.722   5.148  0.0008 -0.2835 -0.0794
  727loPI   PO4 9934   1.383   8.581   5.655 -0.1367  0.0932 -0.1885
  727loPI   GL1 9935   1.244   8.617   6.017 -0.1394  0.1864 -0.0195
  727loPI   GL2 9936   1.664   8.676   6.119  0.2368 -0.1786  0.3865
  727loPI   C1A 9937   1.109   8.535   6.392 -0.0027  0.0067  0.0238
  727loPI   C2A 9938   0.980   8.474   6.858 -0.2781 -0.0815  0.3960
  727loPI   C3A 9939   0.840   8.637   7.196 -0.2985  0.1265  0.1245
  727loPI   C4A 9940   1.070   8.745   7.619  0.0949 -0.2197  0.1856
  727loPI   C5A 9941   1.080   8.605   8.079  0.0819 -0.1578  0.1614
  727loPI   C6A 9942   1.151   8.742   8.512 -0.0200 -0.0362 -0.0008
  727loPI   C1B 9943   1.557   8.546   6.549 -0.2654 -0.0462  0.1521
  727loPI   C2B 9944   1.494   8.448   6.932 -0.0887  0.1225 -0.0225
  727loPI   C3B 9945   1.306   8.378   7.243 -0.0956  0.1851  0.1049
  727loPI   C4B 9946   1.220   8.257   7.626 -0.0635 -0.0596  0.3869
  728loPI    C1 9947   3.726   7.535   5.715  0.0222  0.0367 -0.0460
  728loPI    C2 9948   3.891   7.572   5.353 -0.0729 -0.1564 -0.1108
  728loPI    C3 9949   3.581   7.803   5.457  0.1175  0.0788 -0.0561
  728loPI   PO4 9950   3.905   7.564   5.901  0.1029 -0.2474 -0.2221
  728loPI   GL1 9951   4.001   7.500   6.314 -0.2490 -0.0324 -0.2123
  728loPI   GL2 9952   4.084   7.821   6.320  0.1822 -0.1383  0.2041
  728loPI   C1A 9953   3.852   7.416   6.713 -0.0524  0.0625  0.1974
  728loPI   C2A 9954   3.808   7.452   7.084 -0.2314  0.0177 -0.0776
  728loPI   C3A 9955   3.749   7.542   7.501  0.0614 -0.2480 -0.1002
  728loPI   C4A 9956   3.682   7.531   7.897  0.1753  0.1913  0.0670
  728loPI   C5A 9957   3.840   7.467   8.267 -0.2447  0.3641  0.0088
  728loPI   C6A 9958   3.699   7.326   8.745 -0.0908 -0.1786  0.1242
  728loPI   C1B 9959   4.237   7.761   6.714 -0.0306 -0.1136 -0.0872
  728loPI   C2B 9960   4.394   7.745   7.128  0.1964 -0.2379 -0.1524
  728loPI   C3B 9961   4.547   7.724   7.450  0.0619 -0.3804  0.1288
  728loPI   C4B 9962   4.594   7.500   7.785  0.2012  0.1824 -0.0577
  729loPI    C1 9963   1.631  13.433   5.872  0.0307  0.1363  0.3446
  729loPI    C2 9964   2.029  13.397   5.859 -0.0088 -0.2179 -0.1213
  729loPI    C3 9965   1.851  13.713   5.690  0.0716 -0.0636  0.0799
  729loPI   PO4 9966   1.580  13.416   6.103  0.3046  0.2163  0.4457
  729loPI   GL1 9967   1.409  13.541   6.475  0.2857  0.3090  0.0313
  729loPI   GL2 9968   1.567  13.633   6.585  0.1915 -0.0920 -0.0690
  729loPI   C1A 9969   1.021  13.615   6.748 -0.1533 -0.1896 -0.3378
  729loPI   C2A 9970   1.031  13.785   7.154  0.2987  0.2404 -0.0186
  729loPI   C3A 9971   1.156  13.936   7.591 -0.1040  0.1030  0.2853
  729loPI   C4A 9972   0.980  14.189   7.856 -0.2190  0.1825 -0.0876
  729loPI   C5A 9973   1.076  14.153   8.295  0.0550  0.1028  0.0827
  729loPI   C6A 9974   1.095  14.509   8.666 -0.0093  0.0286 -0.0936
  729loPI   C1B 9975   1.560  13.646   7.025  0.0973 -0.2001  0.1968
  729loPI   C2B 9976   1.512  13.569   7.402  0.4035 -0.2289 -0.1810
  729loPI   C3B 9977   1.557  13.564   7.822 -0.0118 -0.0814  0.1629
  729loPI   C4B 9978   1.834  13.335   8.232 -0.1290 -0.0224  0.0809
  730loPI    C1 9979  15.146   4.762   5.957 -0.2194  0.0564 -0.0733
  730loPI    C2 9980  14.959   4.604   5.641 -0.1318  0.0111 -0.1028
  730loPI    C3 9981  15.276   4.841   5.587 -0.0624 -0.0680 -0.0459
  730loPI   PO4 9982  15.128   4.537   6.137  0.1391  0.2559  0.3942
  730loPI   GL1 9983  15.228   4.345   6.509 -0.0668 -0.1426 -0.0704
  730loPI   GL2 9984  15.238   4.733   6.655 -0.3866  0.0521  0.0164
  730loPI   C1A 9985  15.064   4.340   6.944 -0.1645 -0.0727 -0.3145
  730loPI   C2A 9986  15.150   4.318   7.320 -0.3874  0.0462 -0.0316
  730loPI   C3A 9987  15.233   3.884   7.585 -0.3132 -0.0818 -0.0481
  730loPI   C4A 9988  15.544   3.803   7.897 -0.0329  0.0770 -0.5018
  730loPI   C5A 9989  15.785   3.355   7.920  0.2645 -0.2648  0.1396
  730loPI   C6A 9990  15.973   3.241   7.543 -0.3828 -0.1969  0.6143
  730loPI   C1B 9991  15.204   4.800   7.109 -0.3356 -0.1993  0.2161
  730loPI   C2B 9992  15.114   4.976   7.519 -0.2813 -0.1851 -0.3590
  730loPI   C3B 9993  14.946   5.147   7.911 -0.2118  0.0305 -0.0453
  730loPI   C4B 9994  14.656   5.062   8.256 -0.0854  0.1433  0.0772
  731loPI    C1 9995   7.326  15.503   5.710 -0.2567 -0.0194  0.0068
  731loPI    C2 9996   7.392  15.868   5.560  0.0621 -0.1083 -0.0765
  731loPI    C3 9997   7.666  15.581   5.514 -0.0007 -0.2428  0.3530
  731loPI   PO4 9998   7.105  15.598   5.965  0.0747 -0.0513 -0.1850
  731loPI   GL1 9999   6.856  15.628   6.330 -0.0131 -0.0874  0.2030
  731loPI   GL210000   6.620  15.865   6.176 -0.0216  0.0496 -0.0799
  731loPI   C1A10001   7.087  15.894   6.553 -0.1971 -0.1498 -0.3793
  731loPI   C2A10002   7.404  15.843   6.949  0.0131 -0.0069  0.0673
  731loPI   C3A10003   7.413  15.878   7.361  0.0320 -0.3198  0.2471
  731loPI   C4A10004   7.453  16.118   7.624 -0.1601 -0.0378 -0.0551
  731loPI   C5A10005   7.448  16.490   7.883  0.0210 -0.0020 -0.1274
  731loPI   C6A10006   7.380  16.889   8.201  0.4560 -0.1216 -0.1841
  731loPI   C1B10007   6.515  15.958   6.549 -0.0556 -0.1236  0.2701
  731loPI   C2B10008   6.443  15.885   6.897 -0.1353 -0.1467 -0.0203
  731loPI   C3B10009   6.301  15.681   7.378  0.0558 -0.0756  0.1482
  731loPI   C4B10010   6.618  15.505   7.709 -0.1064 -0.0423  0.0652
  732loPI    C110011   8.841   5.734   5.520 -0.0369 -0.3020 -0.0301
  732loPI    C210012   8.657   5.399   5.404 -0.0857 -0.2603 -0.0738
  732loPI    C310013   8.657   5.719   5.165 -0.1187 -0.1993  0.0075
  732loPI   PO410014   8.822   5.728   5.794 -0.4886 -0.2218 -0.1440
  732loPI   GL110015   9.023   5.763   6.200  0.1270 -0.0676 -0.2527
  732loPI   GL210016   8.847   6.068   6.180  0.5412  0.4734  0.1933
  732loPI   C1A10017   8.837   5.579   6.574 -0.0358  0.2604 -0.1643
  732loPI   C2A10018   8.752   5.552   6.991  0.1727  0.3231  0.1652
  732loPI   C3A10019   8.684   5.681   7.358  0.1356 -0.2637  0.1911
  732loPI   C4A10020   8.581   5.623   7.759  0.0193 -0.1351  0.1871
  732loPI   C5A10021   8.656   5.522   8.147  0.1718 -0.0739  0.2715
  732loPI   C6A10022   8.281   5.307   8.111 -0.2120  0.0329  0.0876
  732loPI   C1B10023   8.750   6.050   6.580 -0.0168  0.1654  0.2217
  732loPI   C2B10024   8.644   6.103   6.934 -0.0760 -0.1212 -0.0457
  732loPI   C3B10025   8.620   6.217   7.424  0.0716  0.1550  0.1621
  732loPI   C4B10026   8.676   6.157   7.832  0.3161  0.0469  0.2043
  733loPI    C110027   4.048  10.386   5.432 -0.1323 -0.1058 -0.0685
  733loPI    C210028   3.861  10.239   5.112  0.2193 -0.3204 -0.1814
  733loPI    C310029   4.240  10.135   5.186  0.1648 -0.2165  0.2668
  733loPI   PO410030   3.796  10.385   5.685 -0.0113 -0.2439  0.1979
  733loPI   GL110031   3.774  10.533   6.200 -0.2335  0.0015  0.0810
  733loPI   GL210032   3.644  10.326   6.188  0.0313  0.2264 -0.0211
  733loPI   C1A10033   3.832  10.501   6.599  0.1634  0.2564 -0.0880
  733loPI   C2A10034   3.709  10.559   6.991  0.0106 -0.0932  0.1715
  733loPI   C3A10035   3.628  10.400   7.398 -0.1235  0.0003  0.2391
  733loPI   C4A10036   3.583  10.096   7.752 -0.0835  0.0073  0.3255
  733loPI   C5A10037   3.674  10.224   8.098  0.3601  0.1909 -0.3777
  733loPI   C6A10038   4.009  10.179   8.271 -0.0292 -0.1287  0.3456
  733loPI   C1B10039   4.025  10.087   6.353 -0.1682  0.1145 -0.1523
  733loPI   C2B10040   4.214   9.877   6.813  0.1898  0.0229  0.0080
  733loPI   C3B10041   4.470   9.754   7.142  0.0361 -0.0610 -0.0604
  733loPI   C4B10042   4.517   9.622   7.617 -0.0802  0.0055 -0.1152
  734loPI    C110043   6.694  17.658   5.483 -0.2628 -0.0674 -0.0417
  734loPI    C210044   6.779  17.822   5.129  0.1177 -0.0027  0.0743
  734loPI    C310045   6.723  17.427   5.158  0.0812 -0.0077 -0.0578
  734loPI   PO410046   6.892  17.694   5.638  0.0444 -0.1444  0.1805
  734loPI   GL110047   6.982  17.429   6.042  0.0885  0.0200 -0.4744
  734loPI   GL210048   6.770  17.352   6.092  0.0027 -0.2080 -0.1291
  734loPI   C1A10049   7.102  17.300   6.528  0.0164 -0.4852  0.1108
  734loPI   C2A10050   7.198  17.335   6.965 -0.1543 -0.0233  0.0521
  734loPI   C3A10051   7.291  17.374   7.405 -0.1504  0.1090 -0.0496
  734loPI   C4A10052   7.505  17.223   7.841  0.0797 -0.0997  0.3009
  734loPI   C5A10053   7.576  17.439   8.190  0.1782  0.1424  0.0179
  734loPI   C6A10054   7.506  17.301   8.583 -0.0216 -0.1837 -0.2243
  734loPI   C1B10055   6.614  17.414   6.456 -0.1517 -0.0220  0.2048
  734loPI   C2B10056   6.711  17.264   6.844  0.2665  0.1697  0.1659
  734loPI   C3B10057   6.768  17.239   7.302  0.0958  0.5060  0.5072
  734loPI   C4B10058   6.661  17.065   7.712 -0.1762  0.0575  0.0881
  735loPI    C110059   0.462   6.372   5.427  0.1768  0.0697 -0.0650
  735loPI    C210060   0.432   6.538   5.065  0.3038  0.1509 -0.0390
  735loPI    C310061   0.757   6.604   5.288  0.2690  0.0224  0.0503
  735loPI   PO410062   0.249   6.354   5.599 -0.0754 -0.0778  0.0269
  735loPI   GL110063   0.279   6.227   5.919 -0.2686 -0.2640 -0.2240
  735loPI   GL210064   0.053   5.933   5.857 -0.0784 -0.2184 -0.2739
  735loPI   C1A10065   0.393   6.267   6.362 -0.1490 -0.0240  0.3686
  735loPI   C2A10066   0.455   6.273   6.848 -0.1726  0.1193 -0.0821
  735loPI   C3A10067   0.439   6.332   7.271  0.0334  0.1769  0.1070
  735loPI   C4A10068   0.557   6.235   7.715 -0.0882  0.0825  0.0544
  735loPI   C5A10069   0.729   6.121   8.178 -0.0055  0.2805  0.2307
  735loPI   C6A10070   0.970   6.034   8.638 -0.2790  0.1216  0.4651
  735loPI   C1B10071   0.131   5.858   6.260  0.0237 -0.1563  0.0191
  735loPI   C2B10072   0.062   5.933   6.721  0.1650 -0.1247  0.1095
  735loPI   C3B10073  -0.086   6.076   7.207 -0.0147  0.2233  0.3194
  735loPI   C4B10074  -0.104   6.228   7.617 -0.1523  0.5305  0.1858
  736loPI    C110075  11.274   3.200   5.694  0.0673 -0.0492  0.0209
  736loPI    C210076  11.587   3.331   5.482  0.1231 -0.0702  0.0901
  736loPI    C310077  11.250   3.225   5.296  0.1192  0.0562  0.0238
  736loPI   PO410078  11.308   3.311   5.919  0.0506 -0.1082  0.1660
  736loPI   GL110079  11.131   3.222   6.294  0.1799  0.0760 -0.1966
  736loPI   GL210080  10.898   2.999   6.173 -0.0346 -0.3487  0.0983
  736loPI   C1A10081  11.321   3.261   6.776 -0.0236  0.0245 -0.1671
  736loPI   C2A10082  11.243   3.346   7.106 -0.2526  0.1236  0.2019
  736loPI   C3A10083  11.127   3.367   7.608  0.1132  0.0542  0.0698
  736loPI   C4A10084  10.971   3.522   7.979 -0.4122 -0.0068 -0.0638
  736loPI   C5A10085  10.851   3.559   8.447  0.1348  0.0478 -0.3955
  736loPI   C6A10086  10.946   3.848   8.735  0.1280  0.1124  0.0199
  736loPI   C1B10087  10.944   2.899   6.591  0.2313 -0.0516 -0.0773
  736loPI   C2B10088  10.885   3.043   7.051 -0.3504 -0.0068  0.1478
  736loPI   C3B10089  10.781   3.023   7.571  0.2619  0.2374 -0.0048
  736loPI   C4B10090  10.517   3.335   7.886 -0.0417 -0.0231 -0.0951
  737loPI    C110091  15.621  11.691   5.472 -0.2911  0.0492  0.0497
  737loPI    C210092  15.384  11.779   5.162 -0.2332  0.2630  0.0644
  737loPI    C310093  15.767  11.893   5.159 -0.0572 -0.3034 -0.0742
  737loPI   PO410094  15.500  11.874   5.880  0.2887 -0.1458  0.0891
  737loPI   GL110095  15.500  12.217   6.132  0.2540  0.0672  0.0726
  737loPI   GL210096  15.213  12.490   6.176  0.2262  0.1386  0.3972
  737loPI   C1A10097  15.389  12.077   6.555  0.4506  0.3043 -0.1941
  737loPI   C2A10098  15.323  12.099   7.013 -0.2414  0.3316 -0.1443
  737loPI   C3A10099  15.267  12.121   7.524 -0.0464  0.2206 -0.1940
  737loPI   C4A10100  15.257  11.970   7.888 -0.3538  0.0430 -0.2782
  737loPI   C5A10101  15.210  11.907   8.286 -0.0322 -0.1462 -0.1314
  737loPI   C6A10102  15.162  12.225   8.624  0.2643  0.0379 -0.2992
  737loPI   C1B10103  14.849  12.478   6.468 -0.0817  0.0776 -0.2578
  737loPI   C2B10104  14.437  12.378   6.683 -0.1537 -0.0078  0.4159
  737loPI   C3B10105  14.270  12.066   7.030  0.0130 -0.4594 -0.1166
  737loPI   C4B10106  14.109  12.112   7.488  0.2312  0.0448 -0.3080
  738loPI    C110107   7.113   2.967   5.824 -0.1530 -0.1864  0.2206
  738loPI    C210108   6.816   2.926   5.560 -0.0466 -0.0047  0.0692
  738loPI    C310109   7.194   2.856   5.448  0.0043  0.1247  0.1582
  738loPI   PO410110   7.106   3.127   5.973 -0.2157 -0.1629 -0.3880
  738loPI   GL110111   6.961   3.141   6.310  0.0269  0.1907  0.1640
  738loPI   GL210112   6.754   2.974   6.498  0.1100  0.2620 -0.1542
  738loPI   C1A10113   7.075   3.457   6.698 -0.1088  0.1087  0.0243
  738loPI   C2A10114   7.214   3.693   7.010 -0.4014 -0.3906 -0.0636
  738loPI   C3A10115   7.408   3.654   7.505  0.1047 -0.0974 -0.2724
  738loPI   C4A10116   7.521   3.800   7.853 -0.1323  0.0806 -0.2509
  738loPI   C5A10117   7.234   4.158   7.903 -0.0758  0.0185  0.5337
  738loPI   C6A10118   6.881   4.389   7.649  0.0599  0.1318 -0.1966
  738loPI   C1B10119   6.855   3.090   6.931 -0.0904 -0.0257  0.2077
  738loPI   C2B10120   6.974   3.378   7.293 -0.0235 -0.0750 -0.3532
  738loPI   C3B10121   6.977   3.425   7.740 -0.0422 -0.2818 -0.0864
  738loPI   C4B10122   6.913   3.309   8.143  0.4441  0.2453 -0.1955
  739loPI    C110123   2.976  14.370   6.129 -0.1532  0.0006 -0.1395
  739loPI    C210124   2.906  14.724   6.299 -0.2389 -0.0826 -0.0000
  739loPI    C310125   3.210  14.683   6.042 -0.2105  0.0842  0.0053
  739loPI   PO410126   2.970  14.234   6.317  0.0164 -0.1172  0.1388
  739loPI   GL110127   2.729  14.297   6.708 -0.1392 -0.4209  0.1077
  739loPI   GL210128   3.048  14.448   6.758  0.2322  0.1050 -0.0412
  739loPI   C1A10129   2.600  14.311   7.118  0.0356 -0.1006 -0.1424
  739loPI   C2A10130   2.641  14.308   7.568  0.0549  0.0480 -0.2435
  739loPI   C3A10131   2.556  14.415   8.047  0.0474 -0.2412 -0.2277
  739loPI   C4A10132   2.350  14.441   8.507 -0.0653  0.1130  0.0308
  739loPI   C5A10133   1.954  14.255   8.607 -0.0516  0.2263 -0.2162
  739loPI   C6A10134   1.544  14.389   8.586  0.1882  0.1156  0.1179
  739loPI   C1B10135   3.031  14.516   7.163 -0.0537 -0.3289  0.0448
  739loPI   C2B10136   3.372  14.743   7.456 -0.1797 -0.2013 -0.1484
  739loPI   C3B10137   3.402  14.990   7.889 -0.0304  0.2371 -0.2927
  739loPI   C4B10138   3.224  14.964   8.351 -0.0579 -0.0148  0.0759
  740loPI    C110139   8.197   5.581   5.318 -0.2647  0.2055  0.1528
  740loPI    C210140   8.161   5.855   5.029  0.0659 -0.1538 -0.2418
  740loPI    C310141   8.079   5.471   4.953 -0.2997 -0.1896  0.2788
  740loPI   PO410142   8.289   5.741   5.580  0.2019 -0.1473  0.0743
  740loPI   GL110143   8.463   5.413   5.855  0.3419  0.0592  0.3589
  740loPI   GL210144   8.238   5.371   5.989 -0.0780 -0.1667  0.0043
  740loPI   C1A10145   8.589   5.237   6.276 -0.3421  0.2703 -0.2230
  740loPI   C2A10146   8.537   5.152   6.659  0.0583  0.2003 -0.1925
  740loPI   C3A10147   8.632   5.072   7.107  0.5846  0.2699  0.0990
  740loPI   C4A10148   8.656   5.215   7.531  0.0871 -0.0160 -0.1617
  740loPI   C5A10149   8.852   5.094   7.934 -0.2197 -0.0663 -0.1154
  740loPI   C6A10150   8.763   5.049   8.372  0.0355  0.1006  0.0986
  740loPI   C1B10151   8.021   5.290   6.243 -0.1551  0.2462 -0.1409
  740loPI   C2B10152   7.982   5.192   6.668 -0.1606  0.2224 -0.1881
  740loPI   C3B10153   8.146   5.237   7.026  0.1111  0.1454 -0.1534
  740loPI   C4B10154   8.235   5.432   7.386 -0.2789 -0.1344  0.0739
  741loPI    C110155  16.291   6.154   5.639 -0.2039  0.0390 -0.0998
  741loPI    C210156  16.019   6.314   5.393 -0.1397  0.3293  0.0145
  741loPI    C310157  16.372   6.192   5.249 -0.2834  0.0579 -0.1147
  741loPI   PO410158  16.161   6.262   5.933 -0.3542  0.0527 -0.2082
  741loPI   GL110159  16.047   6.710   6.085 -0.1416 -0.4282  0.0343
  741loPI   GL210160  16.209   6.464   6.360 -0.0691  0.0663 -0.0159
  741loPI   C1A10161  15.855   6.757   6.514  0.0552  0.1149  0.1213
  741loPI   C2A10162  15.828   6.732   7.063 -0.0169  0.1014  0.0540
  741loPI   C3A10163  15.809   6.816   7.336  0.0254  0.1182 -0.0826
  741loPI   C4A10164  15.879   6.769   7.817  0.2507  0.0515 -0.0401
  741loPI   C5A10165  16.174   7.161   8.084  0.0006 -0.1253  0.0651
  741loPI   C6A10166  16.375   7.238   8.432  0.0662 -0.3145 -0.2158
  741loPI   C1B10167  16.221   6.511   6.819  0.1013 -0.0421  0.1618
  741loPI   C2B10168  16.291   6.578   7.301 -0.0111 -0.1062  0.0540
  741loPI   C3B10169  16.408   6.387   7.550  0.1405 -0.1340  0.1621
  741loPI   C4B10170  16.489   6.261   7.826  0.0049 -0.0646  0.1323
  742loPI    C110171   0.406   3.353   5.985  0.1950  0.0449 -0.0296
  742loPI    C210172   0.035   3.340   6.132  0.2123 -0.0575  0.0064
  742loPI    C310173   0.111   3.192   5.768  0.1539  0.2685 -0.1423
  742loPI   PO410174   0.542   3.240   6.089  0.1937 -0.0171  0.1263
  742loPI   GL110175   0.326   2.877   6.384 -0.2348  0.0837  0.3114
  742loPI   GL210176   0.648   2.868   6.364 -0.2838  0.0115 -0.3395
  742loPI   C1A10177   0.234   2.777   6.832  0.0788  0.0170 -0.2262
  742loPI   C2A10178   0.081   2.741   7.267  0.1626  0.0977  0.2154
  742loPI   C3A10179  -0.014   2.698   7.624 -0.2084  0.0193  0.3088
  742loPI   C4A10180  -0.122   2.810   7.977  0.0325  0.2868 -0.1493
  742loPI   C5A10181  -0.261   2.860   8.293 -0.0720 -0.1909 -0.1906
  742loPI   C6A10182  -0.677   2.722   8.190  0.1271 -0.0571 -0.1390
  742loPI   C1B10183   0.707   2.752   6.764 -0.4038 -0.2304 -0.1576
  742loPI   C2B10184   0.642   2.640   7.239 -0.0588  0.0893 -0.1419
  742loPI   C3B10185   0.668   2.432   7.695  0.1500  0.1138 -0.0702
  742loPI   C4B10186   0.450   2.204   8.045 -0.0054  0.1358 -0.1683
  743loPI    C110187   0.007   0.299   5.793  0.0188 -0.0801  0.1366
  743loPI    C210188   0.274   0.084   6.000  0.0064 -0.2146  0.0140
  743loPI    C310189   0.356   0.199   5.626 -0.0538 -0.1444  0.0220
  743loPI   PO410190  -0.094   0.407   6.013  0.0767 -0.4797  0.0904
  743loPI   GL110191   0.047   0.390   6.420  0.0053  0.0336  0.2749
  743loPI   GL210192   0.343   0.383   6.466 -0.0870 -0.0603  0.1827
  743loPI   C1A10193  -0.183   0.202   6.724 -0.2552 -0.2940  0.1975
  743loPI   C2A10194  -0.350   0.227   7.109 -0.1568 -0.0951 -0.0128
  743loPI   C3A10195  -0.356   0.345   7.494  0.1130  0.3037  0.2431
  743loPI   C4A10196  -0.239   0.434   8.010  0.0607 -0.0417  0.1774
  743loPI   C5A10197  -0.007   0.170   8.291  0.2598  0.0460  0.3920
  743loPI   C6A10198   0.258  -0.134   8.516 -0.1962 -0.1994 -0.0430
  743loPI   C1B10199   0.294   0.362   6.941 -0.0415 -0.1242 -0.1496
  743loPI   C2B10200   0.102   0.219   7.331 -0.0374 -0.0790  0.0180
  743loPI   C3B10201   0.284   0.204   7.752 -0.0688 -0.3368  0.3018
  743loPI   C4B10202   0.496   0.199   8.131 -0.2381  0.0993 -0.4112
  744loPI    C110203  13.321  14.597   5.509  0.0998 -0.1074  0.1310
  744loPI    C210204  13.562  14.472   5.215  0.1036 -0.0011  0.0883
  744loPI    C310205  13.165  14.445   5.173  0.1041  0.0179  0.0718
  744loPI   PO410206  13.452  14.557   5.744 -0.0914  0.1042 -0.2833
  744loPI   GL110207  13.324  14.503   6.214  0.1763 -0.0257  0.0640
  744loPI   GL210208  13.052  14.327   6.362 -0.0522  0.0964  0.0091
  744loPI   C1A10209  13.614  14.597   6.677  0.2171  0.0662  0.1879
  744loPI   C2A10210  13.612  14.675   7.112  0.4673  0.0710 -0.0269
  744loPI   C3A10211  13.709  14.581   7.517 -0.0433 -0.0895 -0.0215
  744loPI   C4A10212  13.764  14.609   7.957  0.2592 -0.0057 -0.2719
  744loPI   C5A10213  13.888  14.657   8.368  0.1857  0.0522 -0.0318
  744loPI   C6A10214  13.872  14.651   8.815  0.1080  0.0989  0.1498
  744loPI   C1B10215  13.037  14.336   6.821 -0.0076 -0.3729 -0.0122
  744loPI   C2B10216  13.195  14.330   7.244 -0.1618 -0.1770 -0.0773
  744loPI   C3B10217  13.210  14.120   7.653  0.0474 -0.2451 -0.1672
  744loPI   C4B10218  13.369  14.023   8.072 -0.0695  0.3994 -0.5601
  745loPI    C110219  10.990   4.654   5.782 -0.1563  0.0682 -0.0300
  745loPI    C210220  10.740   4.696   5.472 -0.0786  0.1128 -0.0870
  745loPI    C310221  11.135   4.698   5.412 -0.0643  0.0360  0.0022
  745loPI   PO410222  10.922   4.794   5.916  0.3172  0.1196  0.1233
  745loPI   GL110223  10.910   4.801   6.369 -0.2424 -0.0239 -0.0325
  745loPI   GL210224  11.122   4.756   6.648 -0.0660 -0.0041 -0.1416
  745loPI   C1A10225  10.655   5.034   6.627 -0.0133  0.0948 -0.2408
  745loPI   C2A10226  10.677   5.202   6.987 -0.0551 -0.1566  0.0395
  745loPI   C3A10227  10.380   5.214   7.357  0.2859 -0.0059 -0.2100
  745loPI   C4A10228  10.192   5.074   7.755 -0.5476  0.2205 -0.2638
  745loPI   C5A10229  10.050   4.994   8.239 -0.1103  0.2391  0.1224
  745loPI   C6A10230   9.729   5.117   8.572  0.1951  0.2037  0.2075
  745loPI   C1B10231  10.968   4.790   7.026 -0.0175  0.0553 -0.1574
  745loPI   C2B10232  10.844   4.939   7.438 -0.0054  0.0757  0.1595
  745loPI   C3B10233  10.700   5.121   7.700 -0.1447  0.0106 -0.1254
  745loPI   C4B10234  10.634   5.366   8.072  0.1205 -0.2706 -0.2781
  746loPI    C110235  14.008  17.308   6.079  0.0909 -0.0088  0.0192
  746loPI    C210236  13.819  17.281   5.728 -0.1359  0.0480  0.1344
  746loPI    C310237  14.149  17.505   5.761  0.0567 -0.1913 -0.1108
  746loPI   PO410238  13.761  17.351   6.217 -0.0315 -0.1474  0.0639
  746loPI   GL110239  13.898  17.384   6.614  0.1720 -0.0330 -0.0433
  746loPI   GL210240  14.032  17.630   6.728 -0.2899 -0.1710  0.0442
  746loPI   C1A10241  13.919  17.043   6.925 -0.4274 -0.0890  0.2480
  746loPI   C2A10242  14.112  16.856   7.330  0.0493  0.2787  0.0483
  746loPI   C3A10243  14.099  16.942   7.819 -0.0374  0.1161  0.1151
  746loPI   C4A10244  13.878  17.141   8.149 -0.0640 -0.2473  0.2317
  746loPI   C5A10245  13.537  16.999   8.428  0.0482 -0.0194  0.0581
  746loPI   C6A10246  13.156  16.765   8.397  0.1834 -0.1289 -0.1228
  746loPI   C1B10247  13.977  17.471   7.229 -0.0881 -0.1898 -0.2789
  746loPI   C2B10248  13.750  17.369   7.600 -0.2026 -0.1065 -0.1503
  746loPI   C3B10249  13.579  17.483   8.034 -0.3028 -0.0789  0.2445
  746loPI   C4B10250  13.554  17.555   8.538 -0.3973 -0.0767  0.0575
  747loPI    C110251  10.467   1.402   5.447  0.1092  0.2292 -0.2634
  747loPI    C210252  10.397   1.285   5.071 -0.0818 -0.1977 -0.1006
  747loPI    C310253  10.192   1.591   5.227  0.0752  0.0517 -0.3759
  747loPI   PO410254  10.374   1.255   5.782  0.2418 -0.2205 -0.0718
  747loPI   GL110255  10.567   1.261   6.256 -0.0373 -0.1740  0.0867
  747loPI   GL210256  10.669   1.550   6.142 -0.3248  0.0670  0.0546
  747loPI   C1A10257  10.172   1.184   6.469 -0.1712 -0.1771  0.0385
  747loPI   C2A10258  10.060   1.191   6.947 -0.1110 -0.2648  0.0833
  747loPI   C3A10259  10.104   1.377   7.361  0.2485  0.0389 -0.1819
  747loPI   C4A10260  10.101   1.546   7.801 -0.1015 -0.0621 -0.0304
  747loPI   C5A10261  10.226   1.573   8.311 -0.2584 -0.2121  0.0855
  747loPI   C6A10262  10.593   1.505   8.638  0.2101 -0.0975 -0.1653
  747loPI   C1B10263  10.827   1.453   6.665 -0.5043 -0.1066 -0.1400
  747loPI   C2B10264  11.060   1.313   6.941 -0.1904 -0.0326 -0.2202
  747loPI   C3B10265  11.139   1.113   7.268  0.1511 -0.0814  0.1617
  747loPI   C4B10266  10.980   1.243   7.700 -0.1483  0.1929  0.2812
  748loPI    C110267  10.534   6.175   5.632 -0.0548  0.2312 -0.1468
  748loPI    C210268  10.221   6.130   5.388 -0.1352  0.0522 -0.0126
  748loPI    C310269  10.574   6.243   5.240 -0.1708 -0.1011 -0.2201
  748loPI   PO410270  10.413   6.006   5.910 -0.1001 -0.4714  0.1083
  748loPI   GL110271  10.521   6.198   6.355  0.3075  0.0369 -0.2605
  748loPI   GL210272  10.532   6.484   6.433  0.1031 -0.1562 -0.0034
  748loPI   C1A10273  10.305   6.125   6.812  0.0604  0.1880 -0.2419
  748loPI   C2A10274  10.108   6.220   7.235  0.0657  0.0759 -0.1115
  748loPI   C3A10275  10.334   6.292   7.575 -0.4342  0.2921  0.0897
  748loPI   C4A10276  10.641   6.202   7.925 -0.1525  0.0021 -0.0676
  748loPI   C5A10277  10.668   6.234   8.287  0.0903 -0.0831 -0.2175
  748loPI   C6A10278  10.621   6.487   8.704 -0.2225  0.0962 -0.0361
  748loPI   C1B10279  10.532   6.530   6.945  0.1398  0.0846 -0.1023
  748loPI   C2B10280  10.583   6.669   7.473 -0.1488 -0.2525  0.1061
  748loPI   C3B10281  10.732   6.659   7.832  0.3471  0.1121 -0.0900
  748loPI   C4B10282  10.447   6.658   8.226 -0.1425 -0.1102 -0.0716
  749loPI    C110283   4.479   0.282   5.804  0.2211  0.1510 -0.0497
  749loPI    C210284   4.597   0.000   5.547 -0.0135 -0.0044  0.0095
  749loPI    C310285   4.302   0.251   5.447 -0.0953 -0.0557  0.1199
  749loPI   PO410286   4.683   0.426   5.883  0.2765  0.4374  0.1867
  749loPI   GL110287   5.056   0.369   6.157  0.1626  0.3189  0.2676
  749loPI   GL210288   4.965   0.735   6.302  0.2477 -0.1689  0.1679
  749loPI   C1A10289   5.165   0.106   6.495 -0.0455  0.4248  0.1366
  749loPI   C2A10290   5.317  -0.044   6.928 -0.0346 -0.0450 -0.1443
  749loPI   C3A10291   5.342   0.068   7.392  0.1713 -0.0291 -0.0521
  749loPI   C4A10292   5.470   0.147   7.784  0.1317 -0.2754  0.0277
  749loPI   C5A10293   5.337   0.382   8.149  0.1302  0.1306 -0.2469
  749loPI   C6A10294   5.531   0.691   8.237  0.1945 -0.0272  0.1133
  749loPI   C1B10295   5.123   0.593   6.593  0.1540 -0.0397  0.1755
  749loPI   C2B10296   5.043   0.372   7.072  0.0275  0.1245  0.2251
  749loPI   C3B10297   4.991   0.411   7.556  0.3474 -0.0527  0.0538
  749loPI   C4B10298   4.983   0.188   7.902 -0.1521 -0.1148  0.0283
  750loPI    C110299  13.791   7.324   5.772  0.2193 -0.0519 -0.0031
  750loPI    C210300  13.887   7.636   6.003  0.0599  0.2727 -0.3657
  750loPI    C310301  14.099   7.559   5.673  0.1107 -0.0175 -0.2676
  750loPI   PO410302  13.425   7.397   5.863 -0.0086  0.0144 -0.0681
  750loPI   GL110303  13.180   7.430   6.328 -0.0821  0.4881 -0.0213
  750loPI   GL210304  13.474   7.652   6.282  0.0737 -0.2969  0.3265
  750loPI   C1A10305  13.280   7.585   6.725 -0.5367 -0.1248  0.1479
  750loPI   C2A10306  13.255   7.673   7.151  0.1069 -0.0174  0.0721
  750loPI   C3A10307  13.095   7.858   7.556  0.0258 -0.2012  0.0793
  750loPI   C4A10308  13.142   7.767   7.988 -0.1649  0.0405  0.1036
  750loPI   C5A10309  13.039   7.381   8.164 -0.3161  0.2583 -0.0106
  750loPI   C6A10310  13.039   7.081   8.581 -0.1271 -0.3067  0.2526
  750loPI   C1B10311  13.784   7.902   6.476  0.1616 -0.1853  0.0740
  750loPI   C2B10312  14.173   8.037   6.791  0.0338  0.1971  0.0783
  750loPI   C3B10313  14.120   8.105   7.278 -0.0070 -0.0221  0.0440
  750loPI   C4B10314  14.049   8.128   7.711 -0.1223  0.2800 -0.0559
  751loPI    C110315   1.379   9.547   5.616  0.0976  0.1387 -0.0974
  751loPI    C210316   1.205   9.620   5.263 -0.1872 -0.2789 -0.0502
  751loPI    C310317   1.554   9.425   5.278 -0.0879 -0.1080 -0.1065
  751loPI   PO410318   1.257   9.748   5.807 -0.0652  0.3491  0.0177
  751loPI   GL110319   1.226   9.764   6.272  0.2715 -0.0299  0.0187
  751loPI   GL210320   1.343   9.510   6.225  0.0906 -0.1749  0.1648
  751loPI   C1A10321   1.211   9.655   6.690  0.0480  0.2909  0.2415
  751loPI   C2A10322   1.179   9.666   7.055  0.0108  0.1068 -0.1411
  751loPI   C3A10323   1.177   9.747   7.459  0.0174 -0.4323  0.1097
  751loPI   C4A10324   1.424   9.621   7.961 -0.1221  0.1727 -0.3417
  751loPI   C5A10325   1.651   9.277   8.263  0.2099 -0.1157  0.1007
  751loPI   C6A10326   1.885   9.076   7.897  0.0582 -0.4381 -0.0757
  751loPI   C1B10327   0.884   9.410   6.333 -0.0544 -0.3330 -0.3389
  751loPI   C2B10328   0.757   9.349   6.667 -0.0897 -0.1675  0.1506
  751loPI   C3B10329   0.751   9.455   7.132  0.0759  0.2601  0.1491
  751loPI   C4B10330   0.663   9.547   7.496 -0.2292 -0.0357 -0.1856
  752loPI    C110331   4.569  10.491   5.420  0.0504 -0.0466 -0.1198
  752loPI    C210332   4.650  10.373   5.047  0.1474  0.1680 -0.1680
  752loPI    C310333   4.740  10.745   5.163 -0.0277  0.1525  0.0226
  752loPI   PO410334   4.594  10.330   5.572 -0.1406 -0.0788  0.0781
  752loPI   GL110335   4.730  10.316   6.001  0.4218  0.1000 -0.1799
  752loPI   GL210336   4.794  10.650   6.029  0.2633 -0.2138  0.2408
  752loPI   C1A10337   4.584  10.051   6.398  0.0207  0.1034  0.0217
  752loPI   C2A10338   4.689  10.066   6.812  0.0370 -0.0811 -0.1955
  752loPI   C3A10339   4.800  10.112   7.262 -0.3409 -0.1945 -0.2516
  752loPI   C4A10340   4.721  10.060   7.716  0.2086  0.2771  0.2021
  752loPI   C5A10341   4.419   9.873   8.033  0.3583 -0.0225 -0.0051
  752loPI   C6A10342   4.355   9.441   8.090  0.1670  0.3710  0.2114
  752loPI   C1B10343   4.887  10.463   6.520 -0.1704  0.2615 -0.2439
  752loPI   C2B10344   4.929  10.582   7.010  0.1606  0.2101 -0.0451
  752loPI   C3B10345   5.018  10.506   7.486  0.2201 -0.0020  0.0496
  752loPI   C4B10346   5.126  10.494   7.868 -0.1456 -0.0522 -0.0394
  753loPI    C110347  11.731   4.274   5.913  0.0759 -0.2703 -0.4133
  753loPI    C210348  11.571   4.535   5.656 -0.1183 -0.0907 -0.1160
  753loPI    C310349  11.355   4.223   5.784 -0.0515 -0.1331 -0.1068
  753loPI   PO410350  11.857   4.481   6.087 -0.0359  0.0448 -0.1766
  753loPI   GL110351  11.820   4.949   6.300 -0.0912  0.0647 -0.0370
  753loPI   GL210352  11.597   4.791   6.536  0.0439 -0.6492 -0.1126
  753loPI   C1A10353  11.987   4.965   6.736 -0.2505 -0.3676  0.2263
  753loPI   C2A10354  11.930   5.046   7.111 -0.1146 -0.1703  0.2491
  753loPI   C3A10355  11.811   4.837   7.407 -0.0923  0.0863 -0.2108
  753loPI   C4A10356  11.771   4.990   7.817 -0.0468 -0.1863  0.0681
  753loPI   C5A10357  11.572   5.072   8.116 -0.0396  0.0094 -0.1333
  753loPI   C6A10358  11.371   4.957   8.459 -0.3069 -0.2725  0.0469
  753loPI   C1B10359  11.505   4.686   6.995  0.1303  0.1545  0.0029
  753loPI   C2B10360  11.347   4.990   7.335  0.1438  0.0755  0.1164
  753loPI   C3B10361  11.280   4.957   7.738  0.1444  0.2084 -0.1172
  753loPI   C4B10362  11.026   4.885   8.098 -0.1198  0.1155  0.1070
  754loPI    C110363   0.947   0.099   5.916 -0.1457  0.2421  0.0020
  754loPI    C210364   1.150   0.348   5.678 -0.1250  0.1901 -0.0348
  754loPI    C310365   0.897   0.082   5.520 -0.1755  0.2132  0.0070
  754loPI   PO410366   0.791   0.226   6.033 -0.1515  0.1675 -0.2431
  754loPI   GL110367   0.837   0.322   6.485 -0.0974 -0.2134 -0.2834
  754loPI   GL210368   0.938   0.052   6.675  0.0899  0.2930 -0.1209
  754loPI   C1A10369   0.767   0.504   6.874 -0.2366 -0.0386  0.0201
  754loPI   C2A10370   0.533   0.689   7.215  0.1624  0.0187  0.1747
  754loPI   C3A10371   0.733   0.995   7.442 -0.0321  0.0172  0.0399
  754loPI   C4A10372   0.512   1.039   7.779  0.1234 -0.0203 -0.2840
  754loPI   C5A10373   0.417   1.125   8.234 -0.0218  0.0879  0.0839
  754loPI   C6A10374   0.249   1.023   8.652 -0.2341  0.2441 -0.2610
  754loPI   C1B10375   0.684  -0.000   6.976  0.0165 -0.2431  0.1809
  754loPI   C2B10376   0.670   0.217   7.302 -0.1977  0.1093 -0.0905
  754loPI   C3B10377   0.657   0.541   7.704 -0.0615 -0.1913 -0.2880
  754loPI   C4B10378   0.711   0.686   8.039  0.2327 -0.0460  0.3279
  755loPI    C110379  13.607   6.015   5.671 -0.1561 -0.0291  0.2812
  755loPI    C210380  14.003   6.055   5.631 -0.1779  0.0702  0.1596
  755loPI    C310381  13.763   6.368   5.565 -0.2833 -0.0142  0.1409
  755loPI   PO410382  13.515   5.909   5.816  0.0102  0.0819  0.0355
  755loPI   GL110383  13.537   5.735   6.202  0.0437  0.3688  0.1727
  755loPI   GL210384  13.449   5.509   6.507  0.1216 -0.1037  0.2238
  755loPI   C1A10385  13.661   6.044   6.541  0.0900 -0.0163 -0.1518
  755loPI   C2A10386  13.725   5.879   6.997  0.1342 -0.5265 -0.0717
  755loPI   C3A10387  13.738   5.917   7.406 -0.3675 -0.0273 -0.1512
  755loPI   C4A10388  13.877   5.876   7.712  0.0766 -0.2909  0.1045
  755loPI   C5A10389  13.815   6.121   8.091  0.0218  0.0455 -0.1475
  755loPI   C6A10390  13.773   6.309   8.488 -0.0542 -0.0634  0.1233
  755loPI   C1B10391  13.221   5.399   6.853  0.0294  0.0373  0.0652
  755loPI   C2B10392  13.157   5.227   7.273  0.0022 -0.2874  0.0962
  755loPI   C3B10393  13.278   5.103   7.678 -0.2735  0.3433  0.0727
  755loPI   C4B10394  13.458   5.077   8.052 -0.0779 -0.0840  0.0144
  756loPI    C110395   3.277   1.044   5.942  0.1100 -0.2175 -0.1507
  756loPI    C210396   2.938   0.897   5.788 -0.0337 -0.1495  0.0954
  756loPI    C310397   2.996   1.293   5.805  0.0737 -0.1616  0.0230
  756loPI   PO410398   3.289   0.857   6.150 -0.4457  0.0820 -0.3010
  756loPI   GL110399   3.253   1.101   6.507 -0.0459  0.0473  0.0661
  756loPI   GL210400   3.536   0.817   6.578  0.1424  0.4206  0.1232
  756loPI   C1A10401   3.117   1.253   6.864  0.1565 -0.0546 -0.0729
  756loPI   C2A10402   3.420   1.157   7.224  0.1148  0.1051  0.1419
  756loPI   C3A10403   3.426   1.015   7.625  0.1227  0.1162 -0.2183
  756loPI   C4A10404   3.378   1.045   7.997  0.2203  0.3521 -0.2015
  756loPI   C5A10405   3.594   0.749   8.282  0.1576 -0.0743  0.2050
  756loPI   C6A10406   3.880   0.467   8.400 -0.1345  0.0041 -0.0794
  756loPI   C1B10407   3.525   0.654   6.959 -0.2980  0.1044 -0.0151
  756loPI   C2B10408   3.618   0.632   7.346 -0.1648 -0.0776  0.0864
  756loPI   C3B10409   3.681   0.567   7.776  0.0944  0.1985  0.0910
  756loPI   C4B10410   4.118   0.536   7.890  0.0742 -0.1799  0.1996
  757loPI    C110411   5.412   0.867   5.719  0.2104  0.0628  0.0689
  757loPI    C210412   5.036   0.731   5.698  0.2042  0.0840  0.0413
  757loPI    C310413   5.310   0.606   5.434  0.1892  0.1546 -0.0081
  757loPI   PO410414   5.447   0.800   6.085  0.1600  0.0235 -0.1084
  757loPI   GL110415   5.326   1.078   6.410 -0.0882 -0.0964  0.0354
  757loPI   GL210416   5.529   0.919   6.595  0.1999  0.0631  0.0975
  757loPI   C1A10417   5.558   1.400   6.713  0.0307 -0.0688 -0.1823
  757loPI   C2A10418   5.776   1.524   7.095 -0.0979 -0.1394 -0.0777
  757loPI   C3A10419   5.798   1.465   7.568  0.1131  0.0388 -0.1246
  757loPI   C4A10420   5.827   1.391   7.972  0.1526 -0.2398  0.4203
  757loPI   C5A10421   6.024   1.354   8.419  0.0135  0.1266 -0.0598
  757loPI   C6A10422   6.515   1.386   8.540 -0.0179  0.0986  0.0782
  757loPI   C1B10423   5.451   0.951   6.997  0.1223 -0.0090 -0.0487
  757loPI   C2B10424   5.531   1.109   7.347 -0.2259 -0.1258  0.3524
  757loPI   C3B10425   5.401   1.243   7.818  0.0646 -0.1117 -0.3094
  757loPI   C4B10426   5.516   1.185   8.265 -0.0975 -0.2167 -0.2360
  758loPI    C110427  17.373  12.393   5.799 -0.0026 -0.1340 -0.0275
  758loPI    C210428  17.109  12.459   5.505 -0.0009  0.1133  0.0244
  758loPI    C310429  17.480  12.336   5.418 -0.0087  0.1595 -0.0750
  758loPI   PO410430  17.217  12.194   5.990 -0.5090  0.0364 -0.0616
  758loPI   GL110431  17.203  12.300   6.351 -0.0077  0.0888 -0.0661
  758loPI   GL210432  17.300  12.592   6.340 -0.3484 -0.1022 -0.0786
  758loPI   C1A10433  17.347  12.210   6.752 -0.1393  0.0421  0.0749
  758loPI   C2A10434  17.288  12.363   7.163 -0.3503  0.0671  0.2527
  758loPI   C3A10435  16.976  12.446   7.409 -0.1100 -0.1805 -0.2078
  758loPI   C4A10436  16.828  12.674   7.621  0.0680  0.1583  0.1042
  758loPI   C5A10437  16.600  12.571   8.097  0.3496  0.1228  0.0261
  758loPI   C6A10438  16.653  12.395   8.481 -0.1152 -0.1361 -0.0367
  758loPI   C1B10439  17.127  12.939   6.731 -0.1161  0.2384 -0.0515
  758loPI   C2B10440  17.093  12.819   7.083 -0.0213  0.0180 -0.0390
  758loPI   C3B10441  17.255  12.966   7.437 -0.2726  0.0447 -0.4780
  758loPI   C4B10442  17.320  12.549   7.728  0.0156 -0.2422 -0.2785
  759loPI    C110443  15.641  13.374   6.011 -0.1644  0.0787 -0.2871
  759loPI    C210444  15.787  13.010   5.933 -0.2361  0.0391 -0.2369
  759loPI    C310445  15.731  13.270   5.635 -0.0452  0.0615 -0.2540
  759loPI   PO410446  15.642  13.415   6.195  0.2979 -0.2582  0.3078
  759loPI   GL110447  15.875  13.638   6.553 -0.1448 -0.0930 -0.0543
  759loPI   GL210448  15.945  13.376   6.605 -0.1122 -0.0633  0.3505
  759loPI   C1A10449  15.881  13.810   6.934 -0.1955 -0.2325 -0.0834
  759loPI   C2A10450  15.918  13.877   7.348 -0.2729  0.1295  0.1046
  759loPI   C3A10451  16.104  13.758   7.692  0.1288 -0.1648 -0.0009
  759loPI   C4A10452  16.092  13.590   8.068  0.0085  0.1811 -0.2020
  759loPI   C5A10453  16.451  13.816   8.380 -0.2172 -0.0053 -0.0026
  759loPI   C6A10454  16.816  13.859   8.591  0.3223  0.0328 -0.4879
  759loPI   C1B10455  16.143  13.373   6.982  0.0508  0.0772  0.1353
  759loPI   C2B10456  16.162  13.367   7.422 -0.2398  0.1209  0.3109
  759loPI   C3B10457  15.983  13.086   7.772 -0.2016  0.3389 -0.2225
  759loPI   C4B10458  15.994  13.145   8.263 -0.0518  0.1642 -0.3754
  760loPI    C110459   3.141  16.704   6.389  0.0123  0.0910 -0.1556
  760loPI    C210460   3.291  16.803   6.032  0.2429  0.0264 -0.0780
  760loPI    C310461   3.219  17.087   6.305  0.1934  0.0612 -0.1271
  760loPI   PO410462   3.289  16.463   6.458  0.0923  0.0409  0.2738
  760loPI   GL110463   3.264  16.269   6.931  0.0016 -0.2557 -0.1047
  760loPI   GL210464   3.561  16.454   6.888  0.0308 -0.0627  0.0404
  760loPI   C1A10465   3.110  16.190   7.342 -0.2542 -0.3697  0.2321
  760loPI   C2A10466   2.995  16.075   7.710  0.1862  0.2319 -0.1427
  760loPI   C3A10467   2.929  16.169   8.027  0.0472  0.2430 -0.0224
  760loPI   C4A10468   2.920  16.243   8.457  0.1304 -0.1721  0.2229
  760loPI   C5A10469   2.671  16.561   8.693 -0.0762 -0.0592  0.1821
  760loPI   C6A10470   2.452  16.450   9.204 -0.2620 -0.1461  0.0238
  760loPI   C1B10471   3.542  16.489   7.337  0.3996 -0.1549 -0.0730
  760loPI   C2B10472   3.220  16.538   7.701  0.0083  0.3194  0.2912
  760loPI   C3B10473   3.135  16.693   8.089 -0.1325  0.0662 -0.2167
  760loPI   C4B10474   3.060  16.715   8.409  0.0788  0.3672  0.0938
  761loPI    C110475  13.126  15.832   5.646 -0.0138 -0.1866  0.0366
  761loPI    C210476  13.344  16.070   5.409 -0.0452 -0.2611 -0.0677
  761loPI    C310477  13.490  15.717   5.528 -0.1166 -0.3208 -0.1555
  761loPI   PO410478  13.065  16.046   5.821  0.2316  0.4395 -0.0984
  761loPI   GL110479  13.076  16.135   6.181 -0.1350 -0.1028 -0.0315
  761loPI   GL210480  12.952  15.813   6.257  0.0475  0.0605 -0.0369
  761loPI   C1A10481  13.088  16.146   6.585  0.0546 -0.2125 -0.0218
  761loPI   C2A10482  13.121  16.165   7.014 -0.1081  0.0469  0.1082
  761loPI   C3A10483  13.171  16.078   7.437 -0.4973  0.2228  0.0166
  761loPI   C4A10484  13.135  15.995   7.855  0.0434 -0.3100 -0.2485
  761loPI   C5A10485  13.060  15.728   8.220 -0.1418  0.0109 -0.1160
  761loPI   C6A10486  13.079  15.427   8.572  0.4048  0.0236  0.0480
  761loPI   C1B10487  12.659  15.855   6.672  0.3148  0.0790  0.1083
  761loPI   C2B10488  12.693  15.893   7.100 -0.0836 -0.0007 -0.0189
  761loPI   C3B10489  12.676  16.020   7.569 -0.0281 -0.4147 -0.1335
  761loPI   C4B10490  12.696  16.085   8.061 -0.1647  0.1548 -0.1849
  762loPI    C110491  10.453  14.906   5.645 -0.0266 -0.3998 -0.0448
  762loPI    C210492  10.080  14.761   5.627 -0.2285  0.0913  0.0030
  762loPI    C310493  10.166  15.113   5.457  0.2349 -0.0497 -0.0703
  762loPI   PO410494  10.527  14.894   5.924  0.2983  0.2199 -0.1735
  762loPI   GL110495  10.770  14.741   6.296 -0.0458  0.2752  0.1723
  762loPI   GL210496  11.057  14.609   6.232  0.0641 -0.1068 -0.0118
  762loPI   C1A10497  10.643  14.581   6.723  0.0953  0.1771 -0.1523
  762loPI   C2A10498  10.673  14.651   7.151  0.0005  0.2164  0.0562
  762loPI   C3A10499  10.668  14.504   7.547  0.1028 -0.3544 -0.1502
  762loPI   C4A10500  10.495  14.671   7.901  0.2829 -0.0149 -0.1548
  762loPI   C5A10501  10.203  14.716   8.286 -0.2287  0.0357  0.0041
  762loPI   C6A10502   9.817  14.437   8.377  0.1438  0.0878  0.1587
  762loPI   C1B10503  11.183  14.613   6.612  0.0794 -0.0162  0.0788
  762loPI   C2B10504  11.241  14.745   7.061 -0.2321  0.1657  0.1097
  762loPI   C3B10505  11.036  14.841   7.407  0.1078 -0.4146 -0.5761
  762loPI   C4B10506  11.051  14.688   7.882  0.1373  0.0043 -0.2127
  763loPI    C110507  12.901  14.006   5.861  0.0656 -0.1430  0.0434
  763loPI    C210508  13.129  14.110   5.549 -0.1742  0.3342  0.0183
  763loPI    C310509  13.283  14.111   5.918  0.0448 -0.0053 -0.0669
  763loPI   PO410510  12.725  14.003   5.802  0.0036  0.0012  0.0528
  763loPI   GL110511  12.482  13.957   6.115  0.2690  0.0004  0.2126
  763loPI   GL210512  12.622  14.227   6.216  0.1206 -0.1750 -0.1388
  763loPI   C1A10513  12.447  13.697   6.503  0.1068 -0.1607  0.0868
  763loPI   C2A10514  12.444  13.607   6.903 -0.2954  0.1996  0.1084
  763loPI   C3A10515  12.426  13.660   7.290  0.0256 -0.0052  0.4490
  763loPI   C4A10516  12.726  13.786   7.646 -0.0708  0.1705 -0.3891
  763loPI   C5A10517  12.825  13.850   8.151  0.0467 -0.1335  0.0541
  763loPI   C6A10518  13.123  13.923   8.547 -0.3270  0.0959  0.2109
  763loPI   C1B10519  12.547  14.191   6.624  0.0625  0.0666  0.1524
  763loPI   C2B10520  12.591  14.170   7.092  0.2303 -0.2627 -0.1253
  763loPI   C3B10521  12.746  14.206   7.420 -0.2693  0.1643 -0.1839
  763loPI   C4B10522  12.710  14.286   7.866  0.0781  0.3201  0.0930
  764loPI    C110523   9.379  16.152   5.839  0.1790  0.2075  0.1516
  764loPI    C210524   9.479  16.259   5.467  0.1627 -0.1079  0.0539
  764loPI    C310525   9.680  15.967   5.653 -0.1799 -0.3312  0.0832
  764loPI   PO410526   9.328  16.410   5.932  0.2021 -0.1810  0.5244
  764loPI   GL110527   9.261  16.813   6.058  0.0282  0.2002 -0.0128
  764loPI   GL210528   8.964  16.718   6.047 -0.2190 -0.2550 -0.1688
  764loPI   C1A10529   9.227  16.858   6.451 -0.0748  0.0830 -0.0653
  764loPI   C2A10530   9.151  16.939   6.804 -0.1901  0.1156  0.1027
  764loPI   C3A10531   9.160  17.055   7.238  0.0082 -0.2894 -0.1986
  764loPI   C4A10532   9.212  17.082   7.655 -0.1355  0.0745 -0.1655
  764loPI   C5A10533   9.282  17.104   8.050  0.1153  0.0391 -0.0005
  764loPI   C6A10534   9.640  17.429   8.261  0.2550 -0.2219 -0.0146
  764loPI   C1B10535   8.853  16.589   6.375 -0.0659 -0.0801  0.0019
  764loPI   C2B10536   8.972  16.446   6.769 -0.0273 -0.2105 -0.0180
  764loPI   C3B10537   9.047  16.532   7.221 -0.1523  0.1876 -0.0559
  764loPI   C4B10538   9.075  16.342   7.567 -0.0806 -0.0421  0.2909
  765loPI    C110539  17.501   3.165   5.953  0.0100  0.1174  0.0932
  765loPI    C210540  17.438   3.556   5.900 -0.0545  0.0717 -0.1797
  765loPI    C310541  17.500   3.318   5.584  0.0819 -0.1232 -0.0090
  765loPI   PO410542  17.358   3.123   6.126 -0.1560  0.3751 -0.2997
  765loPI   GL110543  17.417   3.423   6.467  0.0119  0.1174  0.3384
  765loPI   GL210544  17.203   3.227   6.589  0.1534  0.2568 -0.5171
  765loPI   C1A10545  17.576   3.809   6.503  0.0032 -0.3191  0.0930
  765loPI   C2A10546  17.670   4.220   6.766  0.0973  0.2033  0.3965
  765loPI   C3A10547  17.641   4.316   7.196  0.0834 -0.0908 -0.2773
  765loPI   C4A10548  17.568   4.574   7.500  0.0112  0.1011 -0.0151
  765loPI   C5A10549  17.681   4.871   7.834  0.2924 -0.0579 -0.2270
  765loPI   C6A10550  17.580   4.990   8.288 -0.0484  0.0603  0.1995
  765loPI   C1B10551  17.260   3.376   6.977  0.0798  0.1293 -0.1939
  765loPI   C2B10552  17.309   3.523   7.426  0.0385  0.1389 -0.0984
  765loPI   C3B10553  17.153   3.675   7.856 -0.2940  0.1263 -0.2136
  765loPI   C4B10554  17.174   3.552   8.365 -0.0217 -0.0199  0.0926
  766loPI    C110555   0.522   9.848   5.546  0.0450 -0.1438  0.0098
  766loPI    C210556   0.894   9.942   5.433  0.0540  0.0138  0.1650
  766loPI    C310557   0.584  10.157   5.300  0.0397  0.0273  0.2200
  766loPI   PO410558   0.523   9.852   5.838 -0.0282 -0.0406 -0.0153
  766loPI   GL110559   0.420  10.112   6.148  0.1685  0.0485 -0.3318
  766loPI   GL210560   0.104  10.234   6.219  0.2511  0.1015 -0.0825
  766loPI   C1A10561   0.584   9.798   6.535 -0.0631 -0.0598  0.0007
  766loPI   C2A10562   0.723   9.943   6.946  0.2062  0.0118  0.0317
  766loPI   C3A10563   0.850  10.069   7.353  0.2418  0.1079  0.2185
  766loPI   C4A10564   0.876   9.967   7.786  0.1729  0.1351  0.0387
  766loPI   C5A10565   0.712   9.994   8.177  0.0340  0.3043 -0.0221
  766loPI   C6A10566   0.399  10.313   8.332 -0.0147  0.1012  0.0999
  766loPI   C1B10567  -0.130  10.358   6.621  0.0728  0.0326 -0.2398
  766loPI   C2B10568  -0.173  10.304   7.068  0.0405 -0.0084 -0.1438
  766loPI   C3B10569  -0.255  10.138   7.388  0.0176 -0.2088 -0.1189
  766loPI   C4B10570  -0.262   9.913   7.862  0.0294 -0.0034  0.0301
  767loPI    C110571   5.736  13.315   6.049 -0.1188 -0.3281 -0.1565
  767loPI    C210572   5.479  13.332   6.355  0.0315 -0.1119 -0.0398
  767loPI    C310573   5.355  13.420   5.985 -0.0005  0.2708  0.0576
  767loPI   PO410574   5.991  13.429   6.167 -0.1536  0.0373  0.0234
  767loPI   GL110575   6.180  13.473   6.535 -0.1095  0.2811  0.1432
  767loPI   GL210576   6.220  13.681   6.652 -0.1296  0.2745 -0.1225
  767loPI   C1A10577   6.443  13.147   6.792 -0.3294  0.0144  0.1371
  767loPI   C2A10578   6.620  13.167   7.286  0.0726  0.1600  0.1091
  767loPI   C3A10579   6.633  13.263   7.706  0.1085 -0.0731  0.0200
  767loPI   C4A10580   6.449  13.183   8.125 -0.3326 -0.0830  0.0965
  767loPI   C5A10581   6.467  12.958   8.482 -0.0002  0.1629 -0.0638
  767loPI   C6A10582   6.687  12.550   8.566 -0.3210 -0.0038 -0.0777
  767loPI   C1B10583   6.448  13.648   7.071  0.0387  0.4871 -0.0737
  767loPI   C2B10584   6.519  13.691   7.521 -0.1613 -0.0217  0.0576
  767loPI   C3B10585   6.613  13.843   7.923  0.2809 -0.3945 -0.1284
  767loPI   C4B10586   6.705  13.988   8.439 -0.1253  0.0474 -0.0440
  768loPI    C110587   5.913   2.431   5.188 -0.0661 -0.0498  0.0045
  768loPI    C210588   6.283   2.404   5.038 -0.0641  0.1369 -0.0264
  768loPI    C310589   6.105   2.079   5.190  0.0895  0.0338 -0.0642
  768loPI   PO410590   5.934   2.584   5.350  0.2801 -0.0163 -0.1629
  768loPI   GL110591   5.882   2.610   5.821 -0.0201 -0.1983 -0.1034
  768loPI   GL210592   6.082   2.666   6.071 -0.0655 -0.0778  0.1223
  768loPI   C1A10593   5.753   2.847   6.360  0.1172  0.1222 -0.0991
  768loPI   C2A10594   5.736   2.878   6.817 -0.0518  0.1208  0.2595
  768loPI   C3A10595   5.701   2.911   7.248 -0.0139 -0.1317  0.0151
  768loPI   C4A10596   5.904   2.872   7.648  0.2313  0.0172 -0.1235
  768loPI   C5A10597   5.921   3.137   8.031  0.0378  0.1891 -0.2488
  768loPI   C6A10598   6.029   3.406   8.333  0.0462 -0.1205 -0.0355
  768loPI   C1B10599   6.296   2.739   6.437 -0.1400 -0.1291  0.5721
  768loPI   C2B10600   6.231   2.962   6.737  0.2566  0.0115  0.1165
  768loPI   C3B10601   6.174   2.894   7.129  0.1132 -0.0735  0.1454
  768loPI   C4B10602   6.432   3.033   7.502  0.0192 -0.0620 -0.1653
  769loPI    C110603  14.084   2.625   6.360 -0.1043 -0.0183 -0.0213
  769loPI    C210604  13.916   2.438   6.049 -0.1167  0.1120 -0.0939
  769loPI    C310605  14.032   2.819   6.014  0.2697  0.0011 -0.0711
  769loPI   PO410606  13.999   2.623   6.619 -0.0233  0.0870  0.0973
  769loPI   GL110607  13.815   2.424   6.935  0.3241 -0.0677 -0.0692
  769loPI   GL210608  13.752   2.732   7.038  0.1031 -0.0115 -0.1102
  769loPI   C1A10609  13.657   2.321   7.340  0.3073 -0.1974  0.0317
  769loPI   C2A10610  13.637   2.343   7.768  0.0568 -0.0957  0.1325
  769loPI   C3A10611  13.760   2.515   8.192  0.0118  0.2760  0.2020
  769loPI   C4A10612  13.766   2.884   8.492 -0.1000 -0.1674  0.0956
  769loPI   C5A10613  13.560   3.274   8.628 -0.1390  0.1197  0.0399
  769loPI   C6A10614  13.177   3.541   8.604 -0.2472 -0.1584 -0.0374
  769loPI   C1B10615  13.755   2.812   7.460  0.0493  0.2718  0.1233
  769loPI   C2B10616  13.580   2.835   7.797 -0.1669  0.3952 -0.2663
  769loPI   C3B10617  13.370   2.946   8.232 -0.2759 -0.0725 -0.0396
  769loPI   C4B10618  13.083   2.985   8.637 -0.3831 -0.0827  0.1163
  770loPI    C110619   9.782   1.118   5.489 -0.0896  0.0987  0.0288
  770loPI    C210620   9.474   1.148   5.236  0.0113  0.2311 -0.0802
  770loPI    C310621   9.847   1.204   5.104  0.0619  0.3487  0.1072
  770loPI   PO410622   9.615   1.121   5.739 -0.1972  0.0719  0.1525
  770loPI   GL110623   9.696   1.059   6.145  0.0737  0.0822 -0.1642
  770loPI   GL210624   9.827   0.919   6.293 -0.0797 -0.1455 -0.3781
  770loPI   C1A10625   9.457   1.170   6.506 -0.1711  0.0085  0.0780
  770loPI   C2A10626   9.519   1.198   6.846 -0.0154  0.3549  0.1240
  770loPI   C3A10627   9.633   1.112   7.182 -0.1273 -0.1434 -0.1991
  770loPI   C4A10628   9.594   0.993   7.575 -0.3092 -0.1306 -0.0148
  770loPI   C5A10629   9.790   1.116   8.001 -0.1232 -0.1104  0.3381
  770loPI   C6A10630   9.727   1.142   8.494  0.1924 -0.3475  0.0631
  770loPI   C1B10631  10.108   0.699   6.686 -0.2346 -0.4336 -0.2937
  770loPI   C2B10632  10.093   0.771   7.221  0.0089 -0.2132  0.1880
  770loPI   C3B10633  10.148   0.904   7.678  0.1175 -0.1730  0.1341
  770loPI   C4B10634  10.290   1.187   8.089 -0.0956 -0.2044 -0.4902
  771loPI    C110635  16.109  15.036   6.123 -0.2866 -0.0583 -0.0016
  771loPI    C210636  16.377  14.905   5.857 -0.0003 -0.0054  0.2546
  771loPI    C310637  16.020  14.726   5.886 -0.0961  0.0843 -0.2644
  771loPI   PO410638  16.115  15.020   6.336 -0.1085 -0.0732  0.0219
  771loPI   GL110639  16.175  14.706   6.672  0.0353  0.0311  0.1265
  771loPI   GL210640  15.808  14.713   6.656 -0.0987 -0.3200 -0.0944
  771loPI   C1A10641  16.097  15.094   6.972 -0.1030 -0.0116  0.0734
  771loPI   C2A10642  16.119  15.409   7.229 -0.2427 -0.0945  0.1600
  771loPI   C3A10643  16.248  15.690   7.586  0.1469 -0.1698  0.0598
  771loPI   C4A10644  16.541  15.743   7.845 -0.0826  0.1858 -0.0081
  771loPI   C5A10645  16.952  15.696   8.017  0.2044  0.0208 -0.0356
  771loPI   C6A10646  17.295  15.554   8.276 -0.0981 -0.0718  0.0006
  771loPI   C1B10647  15.855  14.656   7.055  0.2725  0.0334  0.0384
  771loPI   C2B10648  15.989  14.841   7.459 -0.3212  0.0664 -0.2356
  771loPI   C3B10649  15.946  14.785   7.917  0.0101  0.0263  0.2142
  771loPI   C4B10650  15.925  15.059   8.200 -0.0703 -0.1280  0.1835
  772loPI    C110651   2.280   7.479   5.760 -0.3721  0.1787 -0.0386
  772loPI    C210652   2.678   7.514   5.734 -0.3001 -0.1928  0.4363
  772loPI    C310653   2.449   7.841   5.746 -0.0525  0.0250 -0.2963
  772loPI   PO410654   2.195   7.271   5.874  0.1110  0.1362  0.0491
  772loPI   GL110655   2.326   7.179   6.196  0.5047 -0.0506 -0.2176
  772loPI   GL210656   2.635   7.107   6.313  0.0450 -0.0487  0.0167
  772loPI   C1A10657   2.261   6.858   6.581 -0.0963 -0.0471 -0.2248
  772loPI   C2A10658   2.389   6.762   6.994  0.2176  0.2226 -0.4288
  772loPI   C3A10659   2.513   6.790   7.370 -0.0245 -0.0702  0.0889
  772loPI   C4A10660   2.333   6.984   7.757 -0.2968 -0.0009  0.0028
  772loPI   C5A10661   2.669   7.263   7.995 -0.2032  0.1560  0.0406
  772loPI   C6A10662   2.811   7.267   8.350 -0.0772 -0.0165  0.1901
  772loPI   C1B10663   2.492   7.214   6.808 -0.0287 -0.0052 -0.1661
  772loPI   C2B10664   2.397   7.240   7.231 -0.1473 -0.1910 -0.1666
  772loPI   C3B10665   2.354   7.447   7.526 -0.1324  0.1014  0.1876
  772loPI   C4B10666   2.023   7.726   7.681 -0.1548  0.0045  0.1288
  773loPI    C110667  16.117   9.148   5.556 -0.0129 -0.0627  0.0305
  773loPI    C210668  16.208   9.415   5.273  0.2498 -0.0922  0.0851
  773loPI    C310669  15.917   9.148   5.210  0.1594  0.0414 -0.0700
  773loPI   PO410670  16.126   9.296   5.794 -0.1168 -0.3382  0.0166
  773loPI   GL110671  15.922   9.370   6.222  0.1269  0.1106 -0.1251
  773loPI   GL210672  15.729   9.649   6.278  0.0306  0.2843 -0.3066
  773loPI   C1A10673  15.793   9.251   6.606 -0.3134 -0.3781 -0.1985
  773loPI   C2A10674  15.787   9.365   7.053 -0.1220 -0.1160  0.0418
  773loPI   C3A10675  15.706   9.340   7.373  0.0154  0.1516  0.0188
  773loPI   C4A10676  15.873   9.296   7.881 -0.0253  0.0585  0.1434
  773loPI   C5A10677  16.098   9.184   8.264  0.0968  0.0400 -0.2922
  773loPI   C6A10678  16.498   9.182   8.151 -0.3157 -0.0400 -0.2926
  773loPI   C1B10679  15.810   9.737   6.690 -0.1025 -0.1834 -0.2531
  773loPI   C2B10680  15.796   9.871   7.163 -0.2065  0.0866  0.1202
  773loPI   C3B10681  16.026   9.819   7.484 -0.0526  0.2867  0.0679
  773loPI   C4B10682  16.405   9.985   7.722 -0.1973 -0.1331 -0.0870
  774loPI    C110683   7.009  12.106   5.674  0.1869 -0.0530 -0.0069
  774loPI    C210684   6.630  12.095   5.801  0.2207 -0.2223  0.0818
  774loPI    C310685   6.721  11.964   5.434  0.1402  0.1618 -0.0802
  774loPI   PO410686   7.127  12.060   5.918  0.2285 -0.0016  0.1845
  774loPI   GL110687   6.777  11.924   6.240  0.1412  0.3320 -0.2260
  774loPI   GL210688   6.736  11.604   6.226  0.1329 -0.1326 -0.0083
  774loPI   C1A10689   6.637  12.129   6.654 -0.4856 -0.0908  0.2516
  774loPI   C2A10690   6.766  12.178   7.048  0.2064 -0.0035  0.0571
  774loPI   C3A10691   6.874  12.176   7.444  0.0127  0.0293 -0.1796
  774loPI   C4A10692   7.009  11.966   7.852  0.0148 -0.1380  0.1821
  774loPI   C5A10693   7.149  12.088   8.263 -0.1375 -0.2957 -0.2410
  774loPI   C6A10694   7.164  12.339   8.578  0.1097  0.0131  0.1324
  774loPI   C1B10695   6.771  11.597   6.624  0.1665  0.1043  0.1715
  774loPI   C2B10696   6.361  11.646   6.818  0.1009 -0.2639 -0.2823
  774loPI   C3B10697   6.357  11.801   7.213 -0.0066  0.1650  0.1717
  774loPI   C4B10698   6.219  11.874   7.665 -0.4397 -0.1824  0.0388
  775loPI    C110699   9.035   8.344   5.469 -0.1885  0.1253  0.0762
  775loPI    C210700   8.723   8.471   5.252 -0.0257  0.0898 -0.1831
  775loPI    C310701   9.043   8.314   5.070  0.1053  0.0377  0.0865
  775loPI   PO410702   8.963   8.331   5.706 -0.1178  0.0054  0.0490
  775loPI   GL110703   8.785   8.182   6.075  0.0424 -0.1337  0.4147
  775loPI   GL210704   8.479   8.024   6.111  0.1945 -0.1886 -0.1681
  775loPI   C1A10705   8.972   8.141   6.467 -0.0077 -0.1184  0.0870
  775loPI   C2A10706   8.982   8.140   6.831  0.3478 -0.1844  0.4341
  775loPI   C3A10707   8.947   8.192   7.203  0.1384 -0.1018 -0.1253
  775loPI   C4A10708   8.989   8.213   7.581 -0.0594 -0.1370  0.0612
  775loPI   C5A10709   9.138   8.154   8.088  0.0472  0.0571  0.1003
  775loPI   C6A10710   9.274   8.101   8.490  0.1274 -0.0225 -0.3690
  775loPI   C1B10711   8.522   7.915   6.572 -0.2108  0.0475  0.2785
  775loPI   C2B10712   8.549   8.052   6.985  0.2731  0.0812  0.1888
  775loPI   C3B10713   8.461   7.984   7.485 -0.2440  0.2018  0.1901
  775loPI   C4B10714   8.550   8.099   7.867 -0.4924  0.1787  0.0258
  776loPI    C110715   7.142   2.170   5.905  0.1082  0.1582  0.1521
  776loPI    C210716   6.946   2.478   5.742 -0.0784  0.0092  0.0915
  776loPI    C310717   7.336   2.510   5.823 -0.0246  0.1511 -0.2099
  776loPI   PO410718   7.026   2.120   6.119  0.1314 -0.1161 -0.1257
  776loPI   GL110719   7.115   2.201   6.528 -0.0031  0.4439  0.2086
  776loPI   GL210720   6.748   2.219   6.486  0.0321 -0.1259 -0.0640
  776loPI   C1A10721   7.085   2.275   6.964 -0.0151 -0.3454  0.0012
  776loPI   C2A10722   6.956   2.301   7.445 -0.0568  0.1819 -0.1101
  776loPI   C3A10723   6.775   2.329   7.784  0.1407  0.1673 -0.0589
  776loPI   C4A10724   6.880   2.362   8.192  0.1405 -0.0429  0.0774
  776loPI   C5A10725   6.992   2.493   8.563  0.0619  0.0309  0.2677
  776loPI   C6A10726   7.004   2.943   8.549  0.1366  0.0550 -0.2504
  776loPI   C1B10727   6.612   2.543   6.752 -0.1042 -0.0992 -0.3722
  776loPI   C2B10728   6.586   2.569   7.070  0.0254 -0.1855 -0.1513
  776loPI   C3B10729   6.448   2.567   7.473 -0.3377 -0.1532 -0.3326
  776loPI   C4B10730   6.346   2.652   7.847 -0.2158 -0.3928  0.1705
  777loPI    C110731  15.461   3.363   5.859  0.0705 -0.1702 -0.2123
  777loPI    C210732  15.064   3.412   5.872  0.0745 -0.1814 -0.0143
  777loPI    C310733  15.244   3.322   5.526 -0.1073 -0.2785 -0.0846
  777loPI   PO410734  15.513   3.507   6.173 -0.1168 -0.1943  0.2649
  777loPI   GL110735  15.622   3.262   6.613  0.1330  0.5383  0.2625
  777loPI   GL210736  15.843   3.053   6.754  0.0736 -0.2231  0.3450
  777loPI   C1A10737  15.498   3.436   6.943  0.0604 -0.0764  0.1373
  777loPI   C2A10738  15.588   3.593   7.389  0.2757  0.3401 -0.1333
  777loPI   C3A10739  15.961   3.734   7.567 -0.2206 -0.2467 -0.2273
  777loPI   C4A10740  16.082   3.727   7.987 -0.1474  0.3197  0.2507
  777loPI   C5A10741  15.947   3.556   8.372  0.2354  0.1841  0.1669
  777loPI   C6A10742  15.917   3.160   8.640 -0.3199 -0.0456 -0.0246
  777loPI   C1B10743  15.942   2.757   7.175 -0.2770  0.2774 -0.0939
  777loPI   C2B10744  16.004   2.707   7.640 -0.2736  0.0445 -0.0025
  777loPI   C3B10745  16.117   2.558   8.047 -0.3381  0.1396  0.0131
  777loPI   C4B10746  16.438   2.356   8.214 -0.0765  0.3381  0.1704
  778loPI    C110747   9.960  17.199   5.733 -0.2077  0.2336  0.0073
  778loPI    C210748   9.657  17.252   5.477 -0.0150  0.0109 -0.2741
  778loPI    C310749  10.012  17.422   5.405  0.0654 -0.1246 -0.2013
  778loPI   PO410750   9.843  17.266   5.904 -0.0271 -0.2691  0.0487
  778loPI   GL110751   9.725  17.008   6.224  0.0238  0.0052 -0.2013
  778loPI   GL210752  10.044  17.050   6.391  0.0249  0.3738 -0.1286
  778loPI   C1A10753   9.572  17.208   6.551 -0.1923 -0.0945  0.1728
  778loPI   C2A10754   9.539  17.378   6.940  0.5451  0.1388 -0.0851
  778loPI   C3A10755   9.527  17.330   7.345 -0.1141 -0.1025 -0.1676
  778loPI   C4A10756   9.571  17.465   7.756  0.2037  0.1077  0.1995
  778loPI   C5A10757   9.430  17.846   8.057  0.1201  0.0575 -0.1699
  778loPI   C6A10758   9.234  17.747   8.434 -0.1030  0.2216  0.0613
  778loPI   C1B10759  10.000  17.354   6.735 -0.1261  0.0558 -0.0621
  778loPI   C2B10760   9.982  17.472   7.203 -0.0375 -0.0671 -0.0285
  778loPI   C3B10761   9.942  17.706   7.499 -0.1029 -0.1074 -0.1436
  778loPI   C4B10762   9.930  17.838   7.864  0.2253  0.3864  0.0634
  779loPI    C110763   9.008   7.392   5.551  0.3081  0.1597 -0.0222
  779loPI    C210764   8.996   7.058   5.330 -0.1936 -0.0669  0.3280
  779loPI    C310765   8.978   7.417   5.153 -0.0920 -0.2319 -0.0251
  779loPI   PO410766   9.158   7.301   5.779  0.0667 -0.1891  0.2754
  779loPI   GL110767   9.269   7.496   6.089 -0.0418  0.1680  0.1043
  779loPI   GL210768   9.007   7.535   6.146 -0.1368  0.1819  0.1705
  779loPI   C1A10769   9.376   7.425   6.513 -0.2353  0.0044 -0.0621
  779loPI   C2A10770   9.324   7.747   6.918  0.0174 -0.1468 -0.0784
  779loPI   C3A10771   9.360   7.799   7.387  0.1876 -0.0596 -0.0082
  779loPI   C4A10772   9.439   7.814   7.805 -0.0414 -0.2704 -0.0813
  779loPI   C5A10773   9.588   7.836   8.197  0.3995  0.1562  0.1864
  779loPI   C6A10774   9.752   7.885   8.620  0.1289 -0.1457  0.0582
  779loPI   C1B10775   8.904   7.610   6.543 -0.0585 -0.0874  0.0951
  779loPI   C2B10776   8.828   7.662   7.039  0.3545  0.0864  0.1586
  779loPI   C3B10777   8.845   7.666   7.382  0.0102 -0.0163  0.2734
  779loPI   C4B10778   8.960   7.619   7.859 -0.1444  0.0133 -0.1018
  780loPI    C110779  13.006  12.977   5.644 -0.0273 -0.1379  0.0071
  780loPI    C210780  13.351  12.784   5.706 -0.0392 -0.0756  0.2826
  780loPI    C310781  13.215  12.837   5.333  0.1888 -0.2034  0.1792
  780loPI   PO410782  12.871  13.116   5.927  0.3329 -0.1243 -0.2749
  780loPI   GL110783  12.929  13.345   6.307  0.1905  0.1876 -0.2518
  780loPI   GL210784  12.812  13.416   6.552  0.1492  0.0035  0.2067
  780loPI   C1A10785  13.242  13.295   6.745  0.3275 -0.0685  0.3463
  780loPI   C2A10786  13.333  13.160   7.159 -0.1020  0.1444 -0.1752
  780loPI   C3A10787  13.299  13.130   7.637  0.0813 -0.1904  0.0366
  780loPI   C4A10788  13.317  13.025   8.076 -0.0933  0.1229  0.0831
  780loPI   C5A10789  12.987  12.743   8.289 -0.2517 -0.4277  0.1437
  780loPI   C6A10790  12.593  12.745   8.429 -0.1194 -0.3671 -0.4226
  780loPI   C1B10791  12.826  13.358   7.056 -0.1327 -0.0528 -0.1289
  780loPI   C2B10792  12.846  13.292   7.426  0.0439  0.0452 -0.1026
  780loPI   C3B10793  12.831  13.383   7.942  0.1008 -0.0256 -0.0918
  780loPI   C4B10794  12.743  13.203   8.253 -0.1520  0.1558  0.1999
  781loPI    C110795  12.994  11.298   5.471  0.2195 -0.0356  0.1310
  781loPI    C210796  12.787  11.433   5.156 -0.0230 -0.0730  0.2715
  781loPI    C310797  13.186  11.462   5.161 -0.0167 -0.0744 -0.0389
  781loPI   PO410798  12.921  11.412   5.746  0.1126  0.1341  0.1220
  781loPI   GL110799  13.040  11.449   6.163 -0.0590 -0.1271  0.0969
  781loPI   GL210800  12.817  11.489   6.211 -0.0509 -0.0025 -0.0789
  781loPI   C1A10801  13.188  11.460   6.557 -0.1455 -0.1576  0.3168
  781loPI   C2A10802  13.080  11.377   6.908  0.0312 -0.4276 -0.3577
  781loPI   C3A10803  13.161  11.144   7.257  0.4650 -0.0110 -0.1514
  781loPI   C4A10804  13.280  10.952   7.595 -0.1569 -0.1430  0.0761
  781loPI   C5A10805  13.602  11.182   7.951  0.0350  0.1561 -0.2620
  781loPI   C6A10806  13.465  11.269   8.432 -0.1575  0.2798 -0.1199
  781loPI   C1B10807  12.694  11.422   6.618 -0.4983  0.0934 -0.0768
  781loPI   C2B10808  12.607  11.521   7.067 -0.3166 -0.3705 -0.2571
  781loPI   C3B10809  12.758  11.428   7.482 -0.1013  0.1076 -0.2415
  781loPI   C4B10810  12.722  11.502   7.857 -0.1300  0.0153  0.0047
  782loPI    C110811   3.221  11.443   5.928  0.0197  0.0439 -0.0323
  782loPI    C210812   2.877  11.407   6.128  0.2057  0.1100  0.3075
  782loPI    C310813   2.938  11.724   5.891 -0.1191 -0.0992 -0.0691
  782loPI   PO410814   3.440  11.371   6.059  0.2606  0.0759 -0.0476
  782loPI   GL110815   3.344  11.209   6.425 -0.2251  0.0115 -0.0596
  782loPI   GL210816   3.348  10.851   6.224  0.0908  0.0734  0.2937
  782loPI   C1A10817   3.221  11.057   6.755  0.0054  0.1883  0.0134
  782loPI   C2A10818   3.297  10.778   7.144 -0.0505 -0.0400 -0.1546
  782loPI   C3A10819   3.306  10.946   7.550 -0.2787 -0.2885 -0.1088
  782loPI   C4A10820   3.192  10.968   7.910 -0.0275 -0.2249 -0.0271
  782loPI   C5A10821   2.978  11.091   8.114 -0.3124 -0.0133 -0.1191
  782loPI   C6A10822   2.896  11.396   8.270 -0.0914 -0.0127 -0.0338
  782loPI   C1B10823   3.325  10.528   6.619 -0.2195 -0.2733 -0.0694
  782loPI   C2B10824   3.288  10.295   6.980 -0.3135  0.0721 -0.0991
  782loPI   C3B10825   3.004  10.352   7.383 -0.3275  0.1665  0.1528
  782loPI   C4B10826   3.079  10.480   7.785 -0.1939 -0.2063  0.0449
  783loPI    C110827  15.778  14.261   5.804 -0.0837 -0.3972 -0.2298
  783loPI    C210828  15.978  14.408   5.490 -0.0558  0.1826  0.0465
  783loPI    C310829  15.644  14.197   5.432 -0.0024  0.2046 -0.3735
  783loPI   PO410830  15.966  14.191   6.043 -0.1822 -0.1328  0.2746
  783loPI   GL110831  15.948  14.232   6.492 -0.0065  0.0615 -0.0156
  783loPI   GL210832  16.173  14.031   6.534 -0.1479 -0.1770 -0.2644
  783loPI   C1A10833  15.618  14.179   6.729 -0.2779  0.0837  0.1422
  783loPI   C2A10834  15.487  14.099   7.173  0.0367 -0.1603 -0.0100
  783loPI   C3A10835  15.533  13.979   7.616 -0.0340  0.0063  0.2451
  783loPI   C4A10836  15.689  13.953   7.989  0.0231  0.0807  0.0691
  783loPI   C5A10837  15.884  13.850   8.396  0.1310 -0.0942 -0.0743
  783loPI   C6A10838  15.680  13.727   8.775 -0.1935  0.2622  0.2348
  783loPI   C1B10839  16.313  14.300   6.871 -0.2784 -0.0341 -0.2033
  783loPI   C2B10840  16.144  14.313   7.255  0.0793  0.2188  0.1397
  783loPI   C3B10841  15.988  14.362   7.656  0.2692  0.1323 -0.1907
  783loPI   C4B10842  15.534  14.417   7.911  0.1348 -0.0558 -0.1594
  784loPI    C110843  11.830  17.050   5.647  0.0049  0.0640  0.0721
  784loPI    C210844  11.545  17.313   5.551 -0.0470  0.0160  0.0943
  784loPI    C310845  11.911  17.349   5.395  0.0132  0.2419  0.2825
  784loPI   PO410846  11.880  17.069   5.987  0.0332 -0.0029 -0.1303
  784loPI   GL110847  11.762  17.059   6.399  0.2505 -0.1053 -0.0801
  784loPI   GL210848  11.816  17.408   6.468 -0.3987  0.0603 -0.1109
  784loPI   C1A10849  11.849  16.915   6.855 -0.2935 -0.1427  0.2007
  784loPI   C2A10850  11.757  16.952   7.270  0.1740  0.1069  0.1809
  784loPI   C3A10851  11.866  17.150   7.661 -0.0184 -0.0100 -0.0652
  784loPI   C4A10852  11.752  17.075   8.070 -0.0547 -0.0920 -0.0372
  784loPI   C5A10853  11.758  17.202   8.516  0.0077 -0.0168 -0.0778
  784loPI   C6A10854  11.516  17.464   8.934  0.0375  0.0830  0.1449
  784loPI   C1B10855  11.880  17.523   6.904  0.1808 -0.0685 -0.4008
  784loPI   C2B10856  11.763  17.519   7.308 -0.1511  0.1201  0.0508
  784loPI   C3B10857  11.860  17.629   7.708 -0.0523 -0.0563  0.0813
  784loPI   C4B10858  11.662  17.707   8.008  0.3989 -0.3085 -0.0311
  785loPI    C110859   7.387  17.694   5.688  0.0818 -0.0537  0.1922
  785loPI    C210860   7.704  17.925   5.609 -0.0382  0.0618  0.0431
  785loPI    C310861   7.626  17.606   5.380  0.0448 -0.0435  0.1603
  785loPI   PO410862   7.438  17.676   5.979  0.0864  0.1157 -0.1926
  785loPI   GL110863   7.508  17.336   6.220  0.0905  0.2154  0.1334
  785loPI   GL210864   7.824  17.494   6.357 -0.0990  0.1571  0.0542
  785loPI   C1A10865   7.612  17.179   6.649  0.1507 -0.1895  0.3947
  785loPI   C2A10866   7.646  17.183   7.055  0.3110  0.0321 -0.1152
  785loPI   C3A10867   7.619  16.910   7.429 -0.1233  0.4508  0.1028
  785loPI   C4A10868   7.795  16.822   7.807 -0.0321  0.0568  0.0454
  785loPI   C5A10869   7.830  16.955   8.278  0.0414 -0.0918  0.0542
  785loPI   C6A10870   7.993  16.841   8.652  0.1279 -0.1678  0.0567
  785loPI   C1B10871   8.010  17.533   6.785 -0.1374 -0.1636  0.1496
  785loPI   C2B10872   8.056  17.502   7.166 -0.2838 -0.0191  0.0830
  785loPI   C3B10873   7.923  17.293   7.540 -0.0366 -0.0741  0.0835
  785loPI   C4B10874   8.199  17.113   7.824 -0.0994 -0.0155 -0.3690
  786loPI    C110875   2.714  15.874   5.861  0.1824 -0.1002 -0.0334
  786loPI    C210876   2.835  16.191   5.648 -0.0300 -0.1422 -0.2199
  786loPI    C310877   2.749  15.846   5.464 -0.3789 -0.1294 -0.0892
  786loPI   PO410878   2.729  15.954   6.147 -0.3620  0.1364 -0.1670
  786loPI   GL110879   2.563  16.160   6.482  0.2813 -0.1715  0.1284
  786loPI   GL210880   2.744  16.404   6.498  0.0102  0.2044  0.0385
  786loPI   C1A10881   2.236  16.145   6.838  0.1834  0.0267  0.1444
  786loPI   C2A10882   2.209  16.346   7.203  0.0838  0.0989 -0.1218
  786loPI   C3A10883   2.157  16.510   7.593 -0.2340  0.1787  0.1495
  786loPI   C4A10884   2.134  16.578   7.992 -0.0789  0.1695  0.2414
  786loPI   C5A10885   2.095  16.577   8.444 -0.3868  0.3646  0.0463
  786loPI   C6A10886   2.151  16.288   8.780 -0.1595  0.0527  0.2001
  786loPI   C1B10887   2.731  16.252   6.976  0.2302 -0.2208 -0.1607
  786loPI   C2B10888   2.640  16.403   7.378 -0.1346  0.1785 -0.1360
  786loPI   C3B10889   2.700  16.553   7.811 -0.1614 -0.0693  0.1828
  786loPI   C4B10890   2.642  16.622   8.222 -0.4649  0.0338  0.5185
  787loPI    C110891  11.314  12.248   5.728 -0.3598  0.0466  0.1840
  787loPI    C210892  11.502  11.951   5.919 -0.2549 -0.0850 -0.1191
  787loPI    C310893  11.691  12.155   5.631 -0.4106  0.1115 -0.0837
  787loPI   PO410894  11.250  12.344   5.905 -0.0476 -0.0056  0.2719
  787loPI   GL110895  11.262  12.235   6.259  0.0928  0.0529 -0.0882
  787loPI   GL210896  11.101  11.926   6.192  0.4139  0.2094 -0.1413
  787loPI   C1A10897  11.442  12.146   6.721  0.1718 -0.0233  0.2654
  787loPI   C2A10898  11.685  11.928   6.996 -0.2830 -0.0137 -0.1167
  787loPI   C3A10899  11.905  11.878   7.433  0.0531  0.0553  0.0751
  787loPI   C4A10900  11.783  11.839   7.980 -0.0304 -0.2320 -0.2501
  787loPI   C5A10901  11.561  11.660   8.276 -0.0493  0.1004 -0.3234
  787loPI   C6A10902  11.203  11.932   8.519 -0.1185 -0.0853 -0.0865
  787loPI   C1B10903  10.978  12.025   6.661 -0.0337  0.1866  0.0707
  787loPI   C2B10904  11.153  11.926   7.080 -0.0444  0.1949 -0.1666
  787loPI   C3B10905  11.411  12.192   7.260 -0.1722  0.1730  0.0892
  787loPI   C4B10906  11.585  12.172   7.599  0.0065 -0.3763 -0.0866
  788loPI    C110907   4.560   1.798   5.535 -0.1232  0.0403 -0.0599
  788loPI    C210908   4.922   1.699   5.397 -0.0027  0.1833  0.1484
  788loPI    C310909   4.601   1.659   5.162  0.0975 -0.2838  0.0808
  788loPI   PO410910   4.660   2.032   5.737 -0.3214  0.0784  0.2724
  788loPI   GL110911   4.442   2.217   6.165  0.1715  0.1769  0.0996
  788loPI   GL210912   4.822   2.059   6.209  0.2171 -0.0914 -0.0751
  788loPI   C1A10913   4.488   2.320   6.553  0.0707 -0.1354  0.0487
  788loPI   C2A10914   4.413   2.249   7.054  0.0994 -0.1620  0.0183
  788loPI   C3A10915   4.377   2.208   7.401 -0.0656 -0.2828 -0.2716
  788loPI   C4A10916   4.456   2.108   7.848 -0.1530 -0.2609  0.1315
  788loPI   C5A10917   4.699   2.371   8.110 -0.0395 -0.2736 -0.1236
  788loPI   C6A10918   5.107   2.544   8.064 -0.2065  0.0137  0.4225
  788loPI   C1B10919   5.081   2.385   6.428  0.0109  0.1784  0.0780
  788loPI   C2B10920   4.951   2.544   6.870  0.2335 -0.1348  0.1485
  788loPI   C3B10921   5.182   2.793   7.224 -0.0596 -0.0643  0.3052
  788loPI   C4B10922   5.098   2.856   7.664 -0.0041 -0.1837 -0.1528
  789loPI    C110923   9.124   1.937   5.471 -0.0110  0.1149  0.0522
  789loPI    C210924   8.748   2.072   5.462 -0.0794 -0.0878 -0.3809
  789loPI    C310925   9.035   2.267   5.264  0.0830  0.1603  0.0836
  789loPI   PO410926   9.121   1.894   5.773  0.0835  0.0508  0.0441
  789loPI   GL110927   8.871   1.709   6.325  0.2894 -0.3466  0.1008
  789loPI   GL210928   8.520   1.639   6.420  0.3417 -0.2061 -0.0708
  789loPI   C1A10929   9.058   1.472   6.706  0.0994 -0.1040  0.2551
  789loPI   C2A10930   9.200   1.485   7.147 -0.2646 -0.0777 -0.5028
  789loPI   C3A10931   9.162   1.241   7.513 -0.0736  0.2260 -0.2009
  789loPI   C4A10932   9.291   1.130   7.939 -0.0664  0.1662  0.2271
  789loPI   C5A10933   9.176   1.081   8.367 -0.0604  0.0997  0.0311
  789loPI   C6A10934   9.330   1.018   8.805  0.1799 -0.1346 -0.0184
  789loPI   C1B10935   8.604   1.684   6.864  0.1082 -0.1988  0.1739
  789loPI   C2B10936   8.768   1.587   7.244  0.0590  0.0721 -0.1037
  789loPI   C3B10937   8.700   1.363   7.657 -0.2915  0.1193  0.2873
  789loPI   C4B10938   8.775   1.065   7.900 -0.2200 -0.0059  0.0035
  790loPI    C110939   1.437  16.286   6.168 -0.0353 -0.0388  0.0867
  790loPI    C210940   1.481  16.683   6.188 -0.0979 -0.0329  0.1103
  790loPI    C310941   1.423  16.505   5.834 -0.3990  0.0147  0.1328
  790loPI   PO410942   1.704  16.112   6.251 -0.0368 -0.1614 -0.0550
  790loPI   GL110943   1.905  15.952   6.576 -0.0513 -0.1373 -0.1722
  790loPI   GL210944   1.788  16.324   6.762 -0.1705  0.3089  0.2352
  790loPI   C1A10945   1.860  16.001   7.104  0.1710  0.2222 -0.0395
  790loPI   C2A10946   1.856  16.073   7.523  0.0717 -0.1244  0.0304
  790loPI   C3A10947   1.846  16.108   7.962 -0.1974  0.1529 -0.2971
  790loPI   C4A10948   1.920  16.088   8.355  0.1713 -0.3411 -0.0528
  790loPI   C5A10949   1.829  15.917   8.875 -0.1180 -0.2107 -0.1198
  790loPI   C6A10950   2.003  16.153   9.260  0.0192 -0.0639  0.2651
  790loPI   C1B10951   1.634  16.462   7.116  0.1083 -0.0944 -0.0134
  790loPI   C2B10952   1.673  16.535   7.610 -0.2393  0.1267 -0.4913
  790loPI   C3B10953   1.575  16.604   8.002 -0.0942  0.1286 -0.0118
  790loPI   C4B10954   1.483  16.362   8.321  0.4279 -0.0314  0.2481
  791loPI    C110955   7.652  10.166   5.561  0.1501  0.0047 -0.0191
  791loPI    C210956   7.559   9.867   5.312  0.0970  0.0779 -0.0878
  791loPI    C310957   7.279  10.133   5.419  0.1132  0.0327  0.0702
  791loPI   PO410958   7.747  10.103   5.703  0.0457  0.1014  0.1943
  791loPI   GL110959   7.683   9.860   6.019  0.4995 -0.1032  0.2339
  791loPI   GL210960   7.530   9.687   6.173 -0.1783  0.2678 -0.1555
  791loPI   C1A10961   7.689  10.084   6.454 -0.2531  0.5223  0.4811
  791loPI   C2A10962   7.494  10.043   6.917  0.2233 -0.1284 -0.1333
  791loPI   C3A10963   7.497   9.979   7.314 -0.1621 -0.3111  0.0412
  791loPI   C4A10964   7.250  10.293   7.533 -0.0378  0.0645 -0.3740
  791loPI   C5A10965   6.881  10.330   7.780  0.1288  0.1128 -0.1377
  791loPI   C6A10966   6.669  10.679   7.878  0.3459  0.2534 -0.0247
  791loPI   C1B10967   7.391   9.606   6.611 -0.1535  0.1140 -0.1735
  791loPI   C2B10968   7.421   9.540   7.071  0.0689 -0.2712 -0.0537
  791loPI   C3B10969   7.435   9.525   7.501 -0.1441 -0.1809 -0.0618
  791loPI   C4B10970   7.262   9.471   7.888 -0.1527  0.2332  0.0210
  792loPI    C110971   7.920   9.571   5.431  0.0475  0.2438  0.0062
  792loPI    C210972   7.665   9.366   5.200  0.0531  0.0601  0.1607
  792loPI    C310973   7.935   9.611   5.033  0.0009 -0.0054 -0.0218
  792loPI   PO410974   7.827   9.520   5.615 -0.2900 -0.1529 -0.1983
  792loPI   GL110975   7.957   9.356   6.022 -0.2995  0.2634 -0.3903
  792loPI   GL210976   7.912   9.048   5.950  0.1765  0.2356 -0.1318
  792loPI   C1A10977   7.729   9.241   6.389 -0.1043 -0.1064  0.1546
  792loPI   C2A10978   7.774   9.119   6.796  0.1507 -0.0420  0.1047
  792loPI   C3A10979   7.793   9.105   7.122 -0.1338  0.0741  0.1188
  792loPI   C4A10980   7.944   9.102   7.551 -0.0625 -0.3115  0.1489
  792loPI   C5A10981   8.101   8.997   7.958 -0.1331 -0.1287  0.3035
  792loPI   C6A10982   8.176   8.928   8.465 -0.1139 -0.0041  0.2730
  792loPI   C1B10983   8.055   8.823   6.323  0.2200 -0.2283 -0.2275
  792loPI   C2B10984   8.143   8.752   6.820 -0.3737  0.0872  0.2112
  792loPI   C3B10985   8.285   8.862   7.215  0.2355 -0.0812 -0.0147
  792loPI   C4B10986   8.517   9.019   7.619 -0.2975  0.1781  0.0839
  793loPI    C110987  13.525  15.406   5.915 -0.0230  0.0856  0.4927
  793loPI    C210988  13.834  15.657   5.956  0.1923 -0.1620  0.4178
  793loPI    C310989  13.892  15.262   5.988 -0.0590 -0.2293  0.0891
  793loPI   PO410990  13.331  15.565   6.002  0.1314  0.1705 -0.1329
  793loPI   GL110991  13.457  15.743   6.386  0.0944  0.4656  0.0996
  793loPI   GL210992  13.697  15.862   6.391 -0.0110 -0.0395 -0.1062
  793loPI   C1A10993  13.214  15.709   6.745 -0.0533  0.0401 -0.0614
  793loPI   C2A10994  13.201  15.689   7.134 -0.1936 -0.4502  0.1400
  793loPI   C3A10995  13.271  15.507   7.535 -0.0722  0.0457  0.4093
  793loPI   C4A10996  13.152  15.163   7.761 -0.1733  0.4006 -0.2410
  793loPI   C5A10997  13.004  15.044   8.145 -0.2316  0.1308 -0.3354
  793loPI   C6A10998  12.861  14.965   8.488  0.0728  0.1362 -0.3197
  793loPI   C1B10999  13.663  15.733   6.911 -0.2685  0.1544 -0.0791
  793loPI   C2B11000  13.761  15.747   7.376  0.2971  0.0443 -0.0123
  793loPI   C3B11001  13.652  15.611   7.812  0.2158 -0.1325  0.0871
  793loPI   C4B11002  13.416  15.420   8.088  0.1942  0.0166  0.0983
  794loPI    C111003  10.024   9.427   5.707 -0.2351  0.2511  0.0458
  794loPI    C211004  10.164   9.114   5.503 -0.2503  0.0969  0.2682
  794loPI    C311005   9.876   9.343   5.346  0.0450  0.2457 -0.0701
  794loPI   PO411006  10.074   9.354   6.006  0.1156  0.1447  0.1706
  794loPI   GL111007  10.008   8.864   6.173 -0.1997 -0.0506 -0.2325
  794loPI   GL211008  10.144   8.610   6.283 -0.2529 -0.1930  0.0668
  794loPI   C1A11009  10.123   8.988   6.565  0.1132  0.0942  0.1632
  794loPI   C2A11010  10.060   9.011   7.072  0.5036  0.2003 -0.0947
  794loPI   C3A11011   9.976   9.118   7.519  0.1539 -0.1995  0.3399
  794loPI   C4A11012   9.927   9.032   7.997 -0.1505 -0.0077 -0.1762
  794loPI   C5A11013   9.700   8.740   8.286 -0.2510  0.0158  0.0813
  794loPI   C6A11014   9.193   8.655   8.288  0.1750 -0.1363 -0.1378
  794loPI   C1B11015  10.157   8.582   6.782 -0.0966 -0.1872  0.0411
  794loPI   C2B11016  10.217   8.560   7.253  0.2334 -0.1274  0.2494
  794loPI   C3B11017  10.183   8.674   7.679  0.0188  0.2201  0.1165
  794loPI   C4B11018  10.142   8.607   8.090 -0.4903 -0.3114 -0.2421
  795loPI    C111019  13.941   8.060   5.524 -0.0762  0.2262 -0.0560
  795loPI    C211020  14.281   8.190   5.358  0.0707 -0.0101  0.0538
  795loPI    C311021  14.082   7.883   5.194 -0.0002  0.0189  0.0851
  795loPI   PO411022  14.010   8.286   5.793  0.1660  0.0369  0.1632
  795loPI   GL111023  14.133   8.218   6.205  0.1259 -0.3558  0.2753
  795loPI   GL211024  14.226   7.926   6.297 -0.0108  0.2469 -0.1890
  795loPI   C1A11025  14.220   8.454   6.525  0.0741  0.0088  0.1692
  795loPI   C2A11026  14.159   8.525   6.912  0.2532 -0.2980  0.0234
  795loPI   C3A11027  14.291   8.659   7.236  0.1383  0.0506  0.1311
  795loPI   C4A11028  14.106   8.683   7.588 -0.0951  0.0632  0.0557
  795loPI   C5A11029  14.248   8.565   8.001 -0.1327  0.0869  0.1631
  795loPI   C6A11030  14.205   8.164   8.299  0.1362  0.2068 -0.1634
  795loPI   C1B11031  14.204   7.563   6.465 -0.1077  0.3171  0.2616
  795loPI   C2B11032  14.128   7.554   6.945 -0.4211 -0.0691  0.0668
  795loPI   C3B11033  14.063   7.569   7.419  0.0080 -0.1040  0.1714
  795loPI   C4B11034  13.920   7.345   7.755  0.1325  0.6025 -0.1887
  796loPI    C111035  11.938  11.447   5.734 -0.0161 -0.0582  0.0814
  796loPI    C211036  12.124  11.198   5.482 -0.2003 -0.2364  0.1182
  796loPI    C311037  11.836  11.441   5.347  0.0328  0.0168  0.0673
  796loPI   PO411038  11.857  11.410   5.924 -0.1356  0.0925  0.1801
  796loPI   GL111039  11.603  11.306   6.180 -0.1609 -0.1132 -0.0137
  796loPI   GL211040  11.399  11.504   6.197  0.3741 -0.3081  0.1407
  796loPI   C1A11041  11.741  11.390   6.669 -0.1697  0.2284 -0.0463
  796loPI   C2A11042  11.925  11.529   7.071 -0.0002  0.0149 -0.1768
  796loPI   C3A11043  12.261  11.492   7.430  0.0994 -0.1652  0.1782
  796loPI   C4A11044  12.219  11.542   7.930  0.0293  0.2033  0.1613
  796loPI   C5A11045  12.136  11.791   8.320 -0.2186 -0.1531  0.0963
  796loPI   C6A11046  11.822  11.969   8.586 -0.0351 -0.1964  0.0390
  796loPI   C1B11047  11.285  11.645   6.678 -0.1013 -0.2180 -0.1083
  796loPI   C2B11048  11.392  11.502   7.061 -0.2270 -0.0174 -0.0973
  796loPI   C3B11049  11.473  11.648   7.400  0.0721  0.0536 -0.0357
  796loPI   C4B11050  11.411  11.606   7.800  0.3178  0.1163 -0.3935
  797loPI    C111051  13.474   3.970   6.300 -0.0178  0.1425 -0.0393
  797loPI    C211052  13.695   4.125   6.005 -0.1167  0.1383 -0.1161
  797loPI    C311053  13.530   3.762   5.963  0.2195 -0.0468  0.1133
  797loPI   PO411054  13.372   4.110   6.404  0.0298  0.0918  0.0475
  797loPI   GL111055  13.197   4.111   6.753 -0.0706 -0.0313  0.1458
  797loPI   GL211056  13.133   3.783   6.719 -0.1732 -0.0435  0.3256
  797loPI   C1A11057  13.134   4.079   7.130  0.1576  0.0356 -0.1841
  797loPI   C2A11058  13.141   4.147   7.552 -0.1871 -0.0799  0.0047
  797loPI   C3A11059  13.021   4.285   8.022  0.0938 -0.0856  0.0857
  797loPI   C4A11060  13.141   4.364   8.478 -0.2534 -0.1212 -0.4304
  797loPI   C5A11061  13.225   4.692   8.831 -0.0725  0.2279  0.1623
  797loPI   C6A11062  13.189   4.783   9.231 -0.1045  0.1086  0.0762
  797loPI   C1B11063  13.196   3.569   7.092 -0.1109 -0.0656 -0.0915
  797loPI   C2B11064  13.152   3.593   7.519  0.1311 -0.0492  0.0862
  797loPI   C3B11065  12.965   3.796   7.869 -0.3045 -0.4567  0.1577
  797loPI   C4B11066  12.604   3.739   7.867  0.3981  0.1291  0.0423
  798loPI    C111067   2.672   8.826   5.568 -0.1597  0.0636  0.0338
  798loPI    C211068   2.337   8.762   5.360 -0.1133 -0.0474 -0.0073
  798loPI    C311069   2.653   8.932   5.183 -0.1307  0.0112  0.0178
  798loPI   PO411070   2.523   8.771   5.828  0.2288  0.1882 -0.2298
  798loPI   GL111071   2.593   8.594   6.124  0.0095  0.2397  0.0717
  798loPI   GL211072   2.618   8.267   6.061 -0.0105  0.1427 -0.2222
  798loPI   C1A11073   2.630   8.526   6.556 -0.0423  0.1293  0.0896
  798loPI   C2A11074   2.849   8.624   6.940 -0.2397 -0.3163  0.0988
  798loPI   C3A11075   3.184   8.546   7.222  0.0261 -0.1429 -0.1860
  798loPI   C4A11076   3.348   8.456   7.681  0.3890 -0.3882  0.2993
  798loPI   C5A11077   3.472   8.334   8.147 -0.1708 -0.2891  0.3699
  798loPI   C6A11078   3.421   7.886   8.359  0.2377 -0.1638 -0.0474
  798loPI   C1B11079   2.374   8.113   6.489 -0.0784 -0.1989  0.1001
  798loPI   C2B11080   2.460   8.265   6.963  0.1379 -0.2251  0.0096
  798loPI   C3B11081   2.549   8.452   7.391  0.1218  0.0772  0.2038
  798loPI   C4B11082   2.789   8.435   7.886 -0.0081  0.0562 -0.2506
  799loPI    C111083  13.520   0.261   6.213 -0.1501 -0.0823  0.0862
  799loPI    C211084  13.847   0.476   6.292 -0.1791 -0.0116  0.0148
  799loPI    C311085  13.766   0.367   5.916 -0.2595  0.0070  0.0267
  799loPI   PO411086  13.456   0.042   6.301  0.1685 -0.2420  0.0151
  799loPI   GL111087  13.549  -0.118   6.559  0.3171 -0.0659  0.0172
  799loPI   GL211088  13.778   0.211   6.690 -0.0984  0.2085 -0.1075
  799loPI   C1A11089  13.628  -0.208   6.979 -0.1502  0.1134 -0.2400
  799loPI   C2A11090  13.519  -0.148   7.338  0.2116 -0.0760  0.1858
  799loPI   C3A11091  13.359  -0.117   7.663 -0.1495 -0.1093  0.0697
  799loPI   C4A11092  13.301   0.072   8.064 -0.0449  0.3381 -0.0775
  799loPI   C5A11093  13.298   0.252   8.498  0.2542 -0.2202 -0.0821
  799loPI   C6A11094  13.577   0.644   8.743  0.5363 -0.1995  0.0116
  799loPI   C1B11095  13.962   0.138   7.138  0.2466  0.2145 -0.0870
  799loPI   C2B11096  13.913   0.010   7.586 -0.2302 -0.1934  0.0382
  799loPI   C3B11097  14.068  -0.069   7.991  0.2538  0.1611 -0.1400
  799loPI   C4B11098  14.132  -0.291   8.261 -0.0995  0.1189  0.1278
  800loPI    C111099   4.634  12.126   6.048 -0.1593  0.0220  0.1160
  800loPI    C211100   4.933  12.222   5.800 -0.1145 -0.0729  0.1326
  800loPI    C311101   4.558  12.327   5.711 -0.1088 -0.1768 -0.0157
  800loPI   PO411102   4.821  12.098   6.330  0.3311 -0.0855 -0.0933
  800loPI   GL111103   5.188  12.067   6.630 -0.2884  0.3925  0.1598
  800loPI   GL211104   5.441  12.096   6.637 -0.0815  0.0557 -0.0519
  800loPI   C1A11105   4.909  12.157   7.018  0.3299 -0.1744 -0.0721
  800loPI   C2A11106   4.859  12.131   7.524 -0.2402 -0.1462 -0.0190
  800loPI   C3A11107   4.985  11.953   7.875  0.0219  0.0782 -0.2389
  800loPI   C4A11108   5.042  11.715   8.227  0.1821 -0.0657 -0.2523
  800loPI   C5A11109   4.688  11.533   8.496 -0.0258  0.0775  0.0061
  800loPI   C6A11110   4.298  11.292   8.402 -0.2674  0.1223  0.1577
  800loPI   C1B11111   5.362  11.986   7.049 -0.1514  0.1644  0.0427
  800loPI   C2B11112   5.327  11.883   7.497  0.0796 -0.1659 -0.2953
  800loPI   C3B11113   5.508  12.001   7.874 -0.0014 -0.2077 -0.1682
  800loPI   C4B11114   5.674  11.950   8.336  0.0935  0.0054 -0.0153
  801loPI    C111115  14.699   9.723   5.655  0.0689 -0.1936  0.2186
  801loPI    C211116  15.007   9.903   5.836  0.1309 -0.0968  0.0197
  801loPI    C311117  14.847  10.064   5.506 -0.1807 -0.1078  0.1623
  801loPI   PO411118  14.737   9.430   5.787 -0.0830  0.0231  0.2109
  801loPI   GL111119  14.785   9.169   6.195  0.2069 -0.1795  0.3847
  801loPI   GL211120  14.750   8.884   6.173 -0.4385  0.1701 -0.2150
  801loPI   C1A11121  14.854   9.418   6.539  0.2331 -0.0314 -0.0663
  801loPI   C2A11122  14.839   9.498   6.953 -0.1663  0.2043  0.0750
  801loPI   C3A11123  14.841   9.584   7.344 -0.3026 -0.1376  0.0465
  801loPI   C4A11124  14.954   9.722   7.774  0.1890  0.1695  0.0561
  801loPI   C5A11125  15.163  10.002   8.011  0.2538  0.0253 -0.1700
  801loPI   C6A11126  15.324  10.379   8.064  0.1631  0.0230  0.1084
  801loPI   C1B11127  14.512   8.890   6.535  0.0603 -0.0827  0.3452
  801loPI   C2B11128  14.594   8.925   6.873 -0.4385  0.1236  0.0853
  801loPI   C3B11129  14.551   9.076   7.159  0.0671 -0.1493  0.1729
  801loPI   C4B11130  14.662   9.193   7.590 -0.0969 -0.2804  0.1145
  802loPI    C111131   2.150   3.078   5.447 -0.0032 -0.3579 -0.0351
  802loPI    C211132   1.821   3.134   5.228  0.0869 -0.1847 -0.1284
  802loPI    C311133   1.929   2.765   5.335 -0.0901 -0.2495 -0.1694
  802loPI   PO411134   2.173   3.293   5.687  0.0044 -0.2706 -0.0234
  802loPI   GL111135   2.304   3.085   6.180 -0.2935  0.1615 -0.0144
  802loPI   GL211136   2.611   2.920   6.288 -0.0327 -0.1644 -0.1755
  802loPI   C1A11137   2.432   3.253   6.596  0.0159 -0.0645  0.1189
  802loPI   C2A11138   2.496   3.362   6.914  0.0104  0.1683  0.1950
  802loPI   C3A11139   2.628   3.446   7.290  0.2496  0.3062 -0.2089
  802loPI   C4A11140   2.424   3.348   7.655  0.0461 -0.0783  0.2393
  802loPI   C5A11141   2.247   3.610   8.041  0.4807  0.0868  0.1893
  802loPI   C6A11142   2.398   3.923   8.221  0.0406 -0.2606 -0.1258
  802loPI   C1B11143   2.881   2.997   6.650  0.0981 -0.1755  0.0564
  802loPI   C2B11144   2.895   3.020   6.992  0.0963 -0.0071 -0.1468
  802loPI   C3B11145   2.972   2.930   7.392 -0.0264 -0.4224 -0.1574
  802loPI   C4B11146   3.040   3.163   7.670  0.2060 -0.2537 -0.1880
  803loPI    C111147   3.833   2.467   5.594  0.0265  0.0586  0.2047
  803loPI    C211148   4.037   2.355   5.269  0.0376 -0.0100  0.2351
  803loPI    C311149   3.743   2.123   5.411  0.0276  0.0236  0.2696
  803loPI   PO411150   3.908   2.499   5.816 -0.1275 -0.0600  0.1976
  803loPI   GL111151   4.244   2.668   6.083 -0.0998 -0.1159  0.4047
  803loPI   GL211152   4.043   2.995   6.101 -0.5461  0.1525  0.4747
  803loPI   C1A11153   4.095   2.597   6.411  0.3865 -0.1413  0.2409
  803loPI   C2A11154   4.024   2.397   6.789  0.3546  0.1850  0.3781
  803loPI   C3A11155   3.908   2.487   7.175  0.1302  0.0750  0.0339
  803loPI   C4A11156   3.878   2.361   7.573 -0.2409 -0.1227 -0.0475
  803loPI   C5A11157   4.075   2.502   7.912  0.2693 -0.0526 -0.0397
  803loPI   C6A11158   4.275   2.874   7.940  0.3308 -0.2805 -0.2346
  803loPI   C1B11159   4.303   3.008   6.512  0.0100 -0.1620 -0.1846
  803loPI   C2B11160   4.474   2.699   6.862  0.2001  0.4814  0.0867
  803loPI   C3B11161   4.656   2.630   7.305  0.1656  0.0484 -0.0461
  803loPI   C4B11162   4.634   2.660   7.721  0.3804  0.0356 -0.1771
  804loPI    C111163   8.538  14.464   5.549 -0.0192  0.0724 -0.1094
  804loPI    C211164   8.305  14.751   5.703 -0.0711 -0.1875  0.3119
  804loPI    C311165   8.145  14.463   5.476 -0.0296  0.0694 -0.0532
  804loPI   PO411166   8.641  14.398   5.777 -0.0636 -0.0554 -0.4012
  804loPI   GL111167   8.634  14.722   6.099 -0.2321  0.0882 -0.3017
  804loPI   GL211168   8.941  14.649   6.178 -0.1242 -0.0910 -0.0396
  804loPI   C1A11169   8.730  14.930   6.557 -0.1506  0.1564  0.0939
  804loPI   C2A11170   8.620  15.036   6.928 -0.1007  0.3699 -0.0213
  804loPI   C3A11171   8.602  15.027   7.364  0.0206 -0.0208  0.1916
  804loPI   C4A11172   8.606  14.900   7.736 -0.1491 -0.0665  0.3448
  804loPI   C5A11173   8.724  14.906   8.093 -0.0333 -0.0994 -0.1324
  804loPI   C6A11174   8.539  14.639   8.445  0.0284 -0.1718  0.3299
  804loPI   C1B11175   9.172  14.622   6.472  0.0389 -0.0231 -0.3559
  804loPI   C2B11176   9.248  14.415   6.784  0.0666 -0.1923 -0.0278
  804loPI   C3B11177   9.262  14.386   7.182 -0.2027  0.0787  0.1477
  804loPI   C4B11178   9.342  14.360   7.534  0.1369  0.2415 -0.2109
  805loPI    C111179  15.846   4.247   6.008  0.2563 -0.0993 -0.1113
  805loPI    C211180  15.683   3.918   5.850  0.0675  0.0260 -0.1812
  805loPI    C311181  15.897   4.165   5.619  0.1065  0.0158 -0.1561
  805loPI   PO411182  15.624   4.281   6.195  0.3989 -0.1230 -0.1491
  805loPI   GL111183  15.730   4.290   6.661  0.2642  0.0161 -0.0498
  805loPI   GL211184  15.760   4.640   6.638  0.0486 -0.2093  0.3044
  805loPI   C1A11185  15.582   3.996   7.040  0.0597 -0.2518 -0.0814
  805loPI   C2A11186  15.699   4.109   7.473  0.1409 -0.1897  0.1842
  805loPI   C3A11187  15.869   4.220   7.820  0.1151  0.0891 -0.1852
  805loPI   C4A11188  15.727   4.070   8.318 -0.0608  0.2444 -0.1149
  805loPI   C5A11189  16.033   4.048   8.591  0.0856 -0.5343  0.1659
  805loPI   C6A11190  16.397   3.819   8.435  0.0167 -0.1904 -0.5017
  805loPI   C1B11191  15.649   4.499   7.141  0.1312  0.1468 -0.1098
  805loPI   C2B11192  15.567   4.587   7.541  0.2098 -0.0747 -0.0877
  805loPI   C3B11193  15.381   4.371   7.883  0.1600 -0.0228 -0.0567
  805loPI   C4B11194  15.134   4.005   8.146  0.1327 -0.0168  0.1794
  806loPI    C111195   5.408  15.981   5.879 -0.2558 -0.2097  0.0098
  806loPI    C211196   5.577  15.726   5.621  0.1105  0.1416 -0.1095
  806loPI    C311197   5.419  16.068   5.489 -0.0746  0.1347  0.0875
  806loPI   PO411198   5.369  15.859   6.109  0.1501  0.1094 -0.0658
  806loPI   GL111199   5.395  15.790   6.515  0.4139  0.1751 -0.2756
  806loPI   GL211200   5.309  16.131   6.607 -0.1669 -0.2578 -0.2566
  806loPI   C1A11201   5.598  15.414   6.763 -0.2564 -0.0385  0.2051
  806loPI   C2A11202   5.577  15.033   7.015 -0.1287 -0.0890  0.1475
  806loPI   C3A11203   5.347  14.778   7.285 -0.0609  0.1726 -0.1044
  806loPI   C4A11204   5.309  14.579   7.657  0.0388 -0.0793 -0.3120
  806loPI   C5A11205   5.227  14.351   8.060  0.2587  0.1663 -0.0035
  806loPI   C6A11206   5.037  14.107   8.342 -0.0009 -0.0374  0.1381
  806loPI   C1B11207   5.499  15.903   6.968 -0.1895  0.2165  0.1741
  806loPI   C2B11208   5.436  15.712   7.282 -0.0630  0.2160  0.2538
  806loPI   C3B11209   5.404  15.633   7.820 -0.1282  0.0927  0.1937
  806loPI   C4B11210   5.210  15.643   8.269  0.0111  0.4993 -0.0148
  807loPI    C111211   7.978   6.196   5.625  0.0445  0.1920  0.0166
  807loPI    C211212   7.789   5.947   5.376 -0.1253  0.0542  0.2782
  807loPI    C311213   7.956   6.282   5.235 -0.1748 -0.0456 -0.0262
  807loPI   PO411214   7.975   6.081   5.900 -0.0261 -0.2101 -0.2456
  807loPI   GL111215   7.796   5.949   6.248 -0.2871 -0.1379 -0.0240
  807loPI   GL211216   7.754   6.256   6.318  0.0069  0.0008  0.1314
  807loPI   C1A11217   7.775   5.716   6.539  0.1815  0.1546 -0.0535
  807loPI   C2A11218   7.682   5.603   6.963  0.2598  0.0932  0.1377
  807loPI   C3A11219   7.721   5.625   7.390 -0.0809  0.0644  0.1242
  807loPI   C4A11220   7.929   5.553   7.763  0.1123  0.1760 -0.2011
  807loPI   C5A11221   7.754   5.361   8.078  0.3751  0.0114  0.2330
  807loPI   C6A11222   7.404   5.251   8.245  0.0028  0.0310  0.3148
  807loPI   C1B11223   7.730   6.191   6.756 -0.1236  0.0411  0.1853
  807loPI   C2B11224   7.731   6.225   7.152  0.1207  0.0225 -0.0815
  807loPI   C3B11225   7.664   6.122   7.578 -0.2091 -0.0501  0.0509
  807loPI   C4B11226   7.250   6.210   7.800  0.0408 -0.1321  0.0018
  808loPI    C111227   1.303  13.836   5.940  0.0310 -0.3284 -0.2130
  808loPI    C211228   1.363  13.823   5.544 -0.0146 -0.2438 -0.2231
  808loPI    C311229   1.003  13.920   5.688  0.0570 -0.0675 -0.1599
  808loPI   PO411230   1.510  14.007   5.989 -0.0184 -0.3850 -0.1515
  808loPI   GL111231   1.484  14.206   6.384 -0.0754 -0.0914 -0.2775
  808loPI   GL211232   1.255  14.022   6.515  0.3480  0.2542  0.0120
  808loPI   C1A11233   1.512  14.529   6.552  0.2023 -0.4359  0.2144
  808loPI   C2A11234   1.485  14.908   6.766 -0.1239  0.0877 -0.1898
  808loPI   C3A11235   1.397  15.018   7.170 -0.0450 -0.1819  0.2533
  808loPI   C4A11236   1.417  15.160   7.595  0.1030 -0.0663 -0.0653
  808loPI   C5A11237   1.366  15.161   7.928  0.1146  0.1109 -0.1592
  808loPI   C6A11238   1.385  14.895   8.344  0.2531  0.1724 -0.0317
  808loPI   C1B11239   1.354  14.089   6.844 -0.2733 -0.1774 -0.1548
  808loPI   C2B11240   1.470  14.073   7.261 -0.1407  0.1404 -0.1950
  808loPI   C3B11241   1.648  14.036   7.720 -0.1836  0.2049 -0.4111
  808loPI   C4B11242   1.958  13.811   7.953  0.1921 -0.0357  0.1970
  809loPI    C111243   9.615   1.910   5.633 -0.2028  0.1282 -0.0863
  809loPI    C211244   9.868   1.609   5.705 -0.2343  0.1730  0.2278
  809loPI    C311245   9.502   1.533   5.562 -0.1536  0.0843  0.0649
  809loPI   PO411246   9.652   2.010   5.915  0.0222 -0.0838  0.3991
  809loPI   GL111247   9.859   1.820   6.275 -0.1501 -0.1289 -0.1908
  809loPI   GL211248   9.741   2.024   6.373 -0.4064 -0.2941  0.3905
  809loPI   C1A11249   9.858   1.583   6.635  0.0922  0.0583 -0.1800
  809loPI   C2A11250   9.727   1.590   7.052 -0.3555 -0.0297  0.0798
  809loPI   C3A11251   9.562   1.546   7.435  0.0634 -0.0393  0.1053
  809loPI   C4A11252   9.573   1.566   7.824 -0.2256  0.1008  0.1322
  809loPI   C5A11253   9.463   1.569   8.266  0.0801 -0.0784  0.1777
  809loPI   C6A11254   9.223   1.546   8.604  0.2114 -0.3702  0.1308
  809loPI   C1B11255   9.554   2.023   6.764  0.1021  0.0576  0.0857
  809loPI   C2B11256   9.480   2.017   7.150 -0.1678  0.1330 -0.1946
  809loPI   C3B11257   9.416   2.112   7.565  0.1550  0.1317 -0.1148
  809loPI   C4B11258   9.428   2.078   8.004 -0.0500 -0.2959  0.0607
  810loPI    C111259   0.354   2.440   5.899  0.0684  0.1602  0.2010
  810loPI    C211260   0.445   2.826   5.846  0.1802  0.0717 -0.3029
  810loPI    C311261   0.118   2.672   5.674 -0.1071  0.0334  0.2516
  810loPI   PO411262   0.314   2.434   6.212  0.0639  0.0485 -0.1487
  810loPI   GL111263   0.536   2.325   6.540  0.3016  0.1184  0.0916
  810loPI   GL211264   0.838   2.327   6.578 -0.1437  0.0753  0.2356
  810loPI   C1A11265   0.375   2.324   6.981  0.2411 -0.0660  0.0048
  810loPI   C2A11266   0.273   2.303   7.414 -0.0804  0.2462 -0.1601
  810loPI   C3A11267   0.003   2.163   7.706  0.1575  0.0814 -0.0362
  810loPI   C4A11268  -0.144   2.352   8.072 -0.0039  0.0126  0.3230
  810loPI   C5A11269  -0.448   2.377   8.368  0.0175 -0.1862 -0.0550
  810loPI   C6A11270  -0.909   2.297   8.386 -0.0564 -0.1897  0.2274
  810loPI   C1B11271   1.085   2.400   6.961  0.0176  0.0509  0.0229
  810loPI   C2B11272   1.159   2.540   7.384  0.1980 -0.0148  0.1187
  810loPI   C3B11273   1.188   2.577   7.833 -0.0480  0.3757  0.0539
  810loPI   C4B11274   1.308   2.693   8.310 -0.2273  0.2538  0.0242
  811loPI    C111275   5.408  11.566   5.731 -0.0797 -0.1109  0.1848
  811loPI    C211276   5.239  11.884   5.558  0.2554 -0.0421 -0.0249
  811loPI    C311277   5.320  11.558   5.341  0.1678 -0.1669  0.1282
  811loPI   PO411278   5.342  11.526   5.922  0.2572 -0.1163 -0.1190
  811loPI   GL111279   5.246  11.672   6.360  0.0990  0.0134  0.2678
  811loPI   GL211280   5.268  11.269   6.295  0.0908 -0.0623  0.0569
  811loPI   C1A11281   5.481  11.626   6.679  0.2991 -0.0523  0.0134
  811loPI   C2A11282   5.401  11.411   7.007  0.3097 -0.1321  0.1973
  811loPI   C3A11283   5.298  11.411   7.443  0.2824  0.1066  0.0576
  811loPI   C4A11284   5.352  11.496   7.887  0.0186 -0.0007  0.0968
  811loPI   C5A11285   5.471  11.512   8.289 -0.0466  0.1482  0.2466
  811loPI   C6A11286   5.321  11.766   8.712 -0.1059  0.0628  0.1701
  811loPI   C1B11287   5.543  11.154   6.510 -0.1025 -0.0064  0.0207
  811loPI   C2B11288   5.639  10.902   6.790 -0.2192 -0.0321 -0.0578
  811loPI   C3B11289   5.818  10.464   7.029 -0.0072 -0.3229 -0.1765
  811loPI   C4B11290   5.841  10.160   7.371 -0.1395  0.1459 -0.3418
  812loPI    C111291   8.410   4.117   5.491 -0.0749 -0.0282  0.0074
  812loPI    C211292   8.122   4.066   5.218 -0.0293 -0.0716 -0.0329
  812loPI    C311293   8.429   3.811   5.233  0.1927  0.1786 -0.2239
  812loPI   PO411294   8.353   4.086   5.669  0.2743 -0.0791 -0.1159
  812loPI   GL111295   8.420   4.047   6.215  0.1960 -0.0560  0.1802
  812loPI   GL211296   8.553   4.240   6.329 -0.0460 -0.2578 -0.0806
  812loPI   C1A11297   8.076   4.130   6.479  0.1921 -0.0488 -0.0041
  812loPI   C2A11298   8.094   4.281   6.902  0.1746 -0.3113  0.0958
  812loPI   C3A11299   7.902   4.072   7.326 -0.0533 -0.3164 -0.0714
  812loPI   C4A11300   7.979   3.961   7.750 -0.0296 -0.1575 -0.0704
  812loPI   C5A11301   7.974   3.788   8.138  0.0175  0.2466  0.0578
  812loPI   C6A11302   7.666   3.445   8.276  0.0218  0.0031 -0.1024
  812loPI   C1B11303   8.562   4.237   6.736  0.1054  0.0978 -0.2637
  812loPI   C2B11304   8.437   4.298   7.200 -0.0915  0.1823 -0.0482
  812loPI   C3B11305   8.415   4.111   7.606  0.0560 -0.0314  0.1661
  812loPI   C4B11306   8.435   4.128   8.071 -0.1409  0.2034 -0.2713
  813loPI    C111307   6.316   6.756   5.865  0.2352 -0.0203 -0.2392
  813loPI    C211308   6.106   7.035   5.671  0.0296  0.0507  0.0770
  813loPI    C311309   6.265   6.728   5.470 -0.1959  0.1102 -0.1976
  813loPI   PO411310   6.526   6.872   6.028 -0.2078  0.2343  0.1167
  813loPI   GL111311   6.668   6.869   6.410 -0.0173  0.1529  0.1808
  813loPI   GL211312   6.626   7.166   6.457 -0.2098  0.0192 -0.2108
  813loPI   C1A11313   6.681   6.750   6.823 -0.2268 -0.0124  0.3749
  813loPI   C2A11314   6.788   6.687   7.251 -0.1233  0.0450 -0.1000
  813loPI   C3A11315   6.534   6.662   7.610  0.1663  0.2155  0.1020
  813loPI   C4A11316   6.343   6.695   7.927  0.0174  0.0918 -0.0559
  813loPI   C5A11317   5.989   6.807   8.070 -0.0888 -0.0207 -0.0089
  813loPI   C6A11318   5.815   6.835   8.410  0.1268  0.0967  0.1938
  813loPI   C1B11319   6.605   7.257   6.911  0.0172  0.1766  0.3366
  813loPI   C2B11320   6.573   7.114   7.338 -0.0134  0.0533  0.0658
  813loPI   C3B11321   6.686   7.076   7.765 -0.1133  0.1116  0.2916
  813loPI   C4B11322   6.443   7.262   8.193  0.0498  0.0882  0.0647
  814loPI    C111323  12.086  13.489   5.676 -0.1829  0.2954  0.2212
  814loPI    C211324  12.359  13.715   5.492 -0.1072  0.0910  0.0780
  814loPI    C311325  11.975  13.739   5.384 -0.0698  0.0040 -0.0781
  814loPI   PO411326  12.123  13.486   5.937  0.0505 -0.1972  0.0908
  814loPI   GL111327  11.983  13.467   6.396 -0.3413  0.0556 -0.0424
  814loPI   GL211328  12.218  13.269   6.436  0.1642  0.2169 -0.3594
  814loPI   C1A11329  11.899  13.393   6.797 -0.0764 -0.2246 -0.2231
  814loPI   C2A11330  11.913  13.421   7.149 -0.0352  0.0870 -0.0839
  814loPI   C3A11331  12.062  13.411   7.522 -0.2099 -0.1371  0.0568
  814loPI   C4A11332  12.045  13.186   7.843 -0.0463  0.1011 -0.0616
  814loPI   C5A11333  12.139  13.034   8.265 -0.0033 -0.1440 -0.0908
  814loPI   C6A11334  12.147  12.738   8.619  0.0702  0.1273  0.3334
  814loPI   C1B11335  12.469  13.096   6.735  0.0251 -0.0916  0.0546
  814loPI   C2B11336  12.410  13.127   7.120  0.1168  0.1997 -0.0796
  814loPI   C3B11337  12.397  12.942   7.564 -0.2263 -0.0361 -0.1023
  814loPI   C4B11338  12.485  12.952   7.900 -0.1434 -0.0447  0.1211
  815loPI    C111339  16.518   9.602   5.760  0.0894 -0.1939  0.1133
  815loPI    C211340  16.302   9.824   5.507 -0.0361 -0.3325  0.0976
  815loPI    C311341  16.700   9.815   5.476 -0.0319 -0.1303  0.0823
  815loPI   PO411342  16.436   9.558   6.113 -0.0045 -0.0213 -0.0529
  815loPI   GL111343  16.386   9.238   6.348 -0.2223  0.2690 -0.1591
  815loPI   GL211344  16.365   8.965   6.296  0.0531  0.1199 -0.3106
  815loPI   C1A11345  16.260   9.404   6.788 -0.0012 -0.1363  0.0579
  815loPI   C2A11346  16.308   9.479   7.246  0.3340 -0.4246 -0.0943
  815loPI   C3A11347  16.271   9.386   7.715  0.1926  0.2921  0.1439
  815loPI   C4A11348  16.182   9.626   8.010 -0.1054  0.1187 -0.1398
  815loPI   C5A11349  16.423   9.665   8.314 -0.0024  0.2298 -0.2075
  815loPI   C6A11350  16.770   9.874   8.506  0.0102  0.2306 -0.1521
  815loPI   C1B11351  16.203   8.872   6.697 -0.1460  0.0324 -0.3294
  815loPI   C2B11352  16.126   8.984   7.066 -0.0864 -0.0078 -0.0810
  815loPI   C3B11353  16.050   8.980   7.479  0.4206  0.2101  0.0624
  815loPI   C4B11354  16.331   8.857   7.797 -0.2175 -0.2933 -0.0117
  816loPI    C111355  12.067  12.437   5.725 -0.2413 -0.1029  0.0049
  816loPI    C211356  12.219  12.721   5.488 -0.3683  0.1466  0.2174
  816loPI    C311357  12.145  12.356   5.341  0.1759  0.0971  0.0425
  816loPI   PO411358  12.196  12.462   5.986  0.0060 -0.0434  0.1994
  816loPI   GL111359  12.131  12.329   6.385 -0.2060 -0.1623  0.0867
  816loPI   GL211360  12.487  12.188   6.251 -0.1034 -0.2673 -0.3416
  816loPI   C1A11361  11.933  12.366   6.843 -0.1880 -0.0805 -0.1234
  816loPI   C2A11362  11.895  12.384   7.262  0.1849  0.1111 -0.1543
  816loPI   C3A11363  12.187  12.301   7.470 -0.2205  0.0017 -0.1560
  816loPI   C4A11364  12.204  12.073   7.776 -0.0376 -0.3461 -0.1279
  816loPI   C5A11365  11.956  12.280   8.094 -0.1050 -0.0900 -0.0140
  816loPI   C6A11366  11.481  12.196   8.183 -0.0910 -0.1370 -0.1355
  816loPI   C1B11367  12.766  11.966   6.496  0.3188 -0.3114 -0.0786
  816loPI   C2B11368  12.944  11.884   6.895 -0.0259 -0.1179  0.2202
  816loPI   C3B11369  13.007  11.832   7.206 -0.0316 -0.1789 -0.0457
  816loPI   C4B11370  13.096  11.959   7.681 -0.0092 -0.0028  0.1464
  817loPI    C111371  14.387  13.131   5.735 -0.1333  0.1173  0.0283
  817loPI    C211372  14.295  12.993   6.099  0.0509  0.0617  0.0548
  817loPI    C311373  14.355  12.737   5.797  0.0951  0.0980  0.0327
  817loPI   PO411374  14.631  13.353   5.892  0.1542  0.1916  0.0570
  817loPI   GL111375  14.660  13.217   6.312  0.0341  0.1354 -0.1206
  817loPI   GL211376  14.355  13.399   6.374 -0.0843  0.2449 -0.1446
  817loPI   C1A11377  14.919  13.275   6.694 -0.2400  0.0127  0.1669
  817loPI   C2A11378  14.911  13.381   7.092 -0.3009  0.0825  0.0371
  817loPI   C3A11379  14.858  13.410   7.480  0.0647 -0.2539 -0.1363
  817loPI   C4A11380  14.676  13.078   7.778 -0.0893  0.2964  0.2053
  817loPI   C5A11381  14.781  12.822   8.049 -0.0735  0.2186 -0.1381
  817loPI   C6A11382  15.108  12.700   8.272 -0.0561  0.0676  0.1503
  817loPI   C1B11383  14.478  13.525   6.795 -0.0156 -0.1870 -0.4615
  817loPI   C2B11384  14.499  13.583   7.178  0.1081 -0.0245 -0.2211
  817loPI   C3B11385  14.325  13.396   7.481  0.0489 -0.0350  0.3120
  817loPI   C4B11386  14.240  13.268   7.872  0.0121 -0.1571 -0.2596
  818loPI    C111387  12.844  10.591   5.730 -0.2035  0.1278 -0.1464
  818loPI    C211388  13.101  10.693   5.441  0.2791 -0.3520  0.0959
  818loPI    C311389  13.085  10.906   5.779  0.0722 -0.0902 -0.0749
  818loPI   PO411390  12.886  10.323   5.842 -0.2686  0.2251 -0.2846
  818loPI   GL111391  12.985  10.069   6.192 -0.0251 -0.1485  0.0127
  818loPI   GL211392  12.949   9.701   6.235  0.2479  0.1233  0.1299
  818loPI   C1A11393  12.993  10.012   6.643  0.1194  0.1137  0.1435
  818loPI   C2A11394  12.934  10.059   7.080 -0.3061 -0.0568 -0.2788
  818loPI   C3A11395  12.842   9.954   7.401 -0.1080 -0.0683 -0.0359
  818loPI   C4A11396  12.893   9.688   7.782  0.1812 -0.1660  0.2115
  818loPI   C5A11397  12.943   9.795   8.158  0.6193  0.1923  0.2302
  818loPI   C6A11398  12.870   9.891   8.607 -0.1445 -0.0509 -0.0905
  818loPI   C1B11399  13.042   9.526   6.687  0.1828  0.0501 -0.1208
  818loPI   C2B11400  12.932   9.497   7.061  0.3464 -0.3675 -0.0832
  818loPI   C3B11401  13.128   9.407   7.400 -0.3560  0.1232 -0.0959
  818loPI   C4B11402  13.037   9.223   7.883 -0.0002  0.0969  0.1399
  819loPI    C111403  17.295  14.394   5.520 -0.1180  0.0955 -0.0319
  819loPI    C211404  17.281  14.620   5.190 -0.1985 -0.1414 -0.1936
  819loPI    C311405  17.277  14.221   5.160  0.0911 -0.1692  0.0812
  819loPI   PO411406  17.479  14.467   5.721  0.2473 -0.0966  0.0567
  819loPI   GL111407  17.385  14.348   6.141  0.1653  0.0896 -0.1554
  819loPI   GL211408  17.165  14.424   6.324  0.1068  0.0276 -0.0564
  819loPI   C1A11409  17.536  14.086   6.462 -0.2876 -0.0475  0.2017
  819loPI   C2A11410  17.582  14.162   6.930 -0.4545  0.2637  0.1890
  819loPI   C3A11411  17.635  13.961   7.288  0.0048  0.1392 -0.0719
  819loPI   C4A11412  17.398  13.918   7.659 -0.0428  0.1861 -0.1319
  819loPI   C5A11413  17.362  13.949   8.166  0.1798  0.2451 -0.1910
  819loPI   C6A11414  17.237  14.090   8.618  0.2347  0.0257 -0.1446
  819loPI   C1B11415  17.113  14.460   6.660 -0.3390 -0.0672  0.1201
  819loPI   C2B11416  17.192  14.404   7.138  0.1525  0.2175 -0.2741
  819loPI   C3B11417  17.122  14.458   7.565 -0.1429  0.1438  0.4453
  819loPI   C4B11418  16.850  14.632   7.965 -0.2589 -0.0369 -0.0971
  820loPI    C111419   4.095  14.677   6.335 -0.0866  0.1171  0.1327
  820loPI    C211420   4.075  14.998   6.098 -0.0776  0.0870  0.0911
  820loPI    C311421   4.427  14.819   6.162 -0.0788  0.0997  0.1334
  820loPI   PO411422   3.928  14.739   6.499 -0.0920 -0.0446 -0.0704
  820loPI   GL111423   4.058  14.815   6.861  0.2834  0.1848  0.1835
  820loPI   GL211424   4.076  14.988   7.002  0.0388  0.2744  0.0337
  820loPI   C1A11425   3.844  14.603   7.221 -0.1910  0.0278  0.0103
  820loPI   C2A11426   3.898  14.510   7.608  0.0514 -0.2049 -0.0366
  820loPI   C3A11427   3.660  14.415   8.064 -0.1492 -0.1998  0.0399
  820loPI   C4A11428   3.668  14.691   8.381 -0.1221 -0.1035  0.0049
  820loPI   C5A11429   3.779  14.922   8.803  0.0500 -0.2906 -0.1351
  820loPI   C6A11430   3.735  15.190   9.189 -0.2594  0.0332  0.0475
  820loPI   C1B11431   3.944  15.030   7.448  0.1905 -0.1363 -0.1843
  820loPI   C2B11432   4.112  15.208   7.883  0.2298 -0.1034 -0.0556
  820loPI   C3B11433   3.985  15.154   8.337 -0.0099  0.0407  0.1227
  820loPI   C4B11434   4.171  15.290   8.743 -0.2253  0.1472  0.1486
  821loPI    C111435   6.142  11.301   5.445 -0.1588 -0.4019 -0.0410
  821loPI    C211436   5.769  11.442   5.422 -0.0636 -0.1417 -0.0206
  821loPI    C311437   5.969  11.350   5.088 -0.0767 -0.0945 -0.0416
  821loPI   PO411438   6.158  11.082   5.736 -0.2119 -0.0337 -0.0251
  821loPI   GL111439   6.414  11.140   6.081  0.3719 -0.0098  0.4462
  821loPI   GL211440   6.390  10.742   6.143 -0.1683 -0.3155 -0.0454
  821loPI   C1A11441   6.326  11.169   6.540 -0.1109 -0.0328 -0.0572
  821loPI   C2A11442   6.374  11.184   6.975  0.0398  0.1347 -0.3036
  821loPI   C3A11443   6.209  11.280   7.374 -0.0275 -0.0776 -0.0466
  821loPI   C4A11444   6.328  11.385   7.781  0.1018 -0.3760 -0.0031
  821loPI   C5A11445   6.462  11.241   8.121 -0.1236  0.2771 -0.0637
  821loPI   C6A11446   6.760  10.910   8.311 -0.1113 -0.3701 -0.2181
  821loPI   C1B11447   6.222  10.403   6.414 -0.0583  0.3532  0.2403
  821loPI   C2B11448   5.896  10.205   6.527 -0.0167 -0.0562  0.1995
  821loPI   C3B11449   5.606  10.041   6.795  0.1566  0.1437 -0.3079
  821loPI   C4B11450   5.210   9.976   6.649  0.2487  0.4986  0.0303
  822loPI    C111451   5.534  13.926   6.042  0.0042 -0.3333  0.0530
  822loPI    C211452   5.425  13.810   5.675  0.1395  0.0498 -0.1136
  822loPI    C311453   5.795  13.732   5.808  0.0772 -0.1257 -0.0401
  822loPI   PO411454   5.421  13.811   6.284  0.4131 -0.0040 -0.0303
  822loPI   GL111455   5.469  13.684   6.751  0.0445 -0.0341 -0.0155
  822loPI   GL211456   5.742  13.604   6.652  0.0998 -0.0172 -0.3605
  822loPI   C1A11457   5.279  13.970   7.074 -0.2964  0.0777  0.1664
  822loPI   C2A11458   5.457  14.170   7.385 -0.2855 -0.0637  0.0106
  822loPI   C3A11459   5.697  14.177   7.776 -0.2844 -0.0746  0.0506
  822loPI   C4A11460   5.805  14.455   8.044 -0.1688 -0.1414  0.0569
  822loPI   C5A11461   5.960  14.860   8.089  0.0872 -0.2260 -0.1749
  822loPI   C6A11462   6.190  15.217   8.003  0.1460  0.2824 -0.0841
  822loPI   C1B11463   6.039  13.373   7.010  0.0310  0.1562 -0.1196
  822loPI   C2B11464   6.113  13.430   7.474 -0.0939 -0.2298 -0.1467
  822loPI   C3B11465   6.190  13.514   7.838  0.2386 -0.0665  0.1224
  822loPI   C4B11466   6.260  13.689   8.275 -0.4033  0.0611 -0.2629
  823loPI    C111467   1.321   4.583   5.498 -0.3199 -0.1441  0.1217
  823loPI    C211468   1.499   4.228   5.454 -0.2155 -0.0598 -0.1526
  823loPI    C311469   1.120   4.277   5.336 -0.1013  0.0255 -0.4961
  823loPI   PO411470   1.398   4.627   5.833 -0.0179  0.3042  0.0506
  823loPI   GL111471   1.643   4.738   6.106  0.1027  0.1641  0.2430
  823loPI   GL211472   1.567   4.426   6.283 -0.1087 -0.3668 -0.1015
  823loPI   C1A11473   1.712   4.846   6.478 -0.0064  0.1649 -0.0949
  823loPI   C2A11474   1.850   5.074   6.747 -0.1637  0.4906 -0.1274
  823loPI   C3A11475   1.873   5.107   7.108 -0.0643  0.3298  0.2083
  823loPI   C4A11476   1.825   4.975   7.549  0.0223 -0.1309  0.0532
  823loPI   C5A11477   1.796   4.919   7.963  0.4355  0.2304 -0.0456
  823loPI   C6A11478   2.030   4.858   8.359 -0.0829  0.0817 -0.1425
  823loPI   C1B11479   1.407   4.442   6.608 -0.1666  0.2196  0.0922
  823loPI   C2B11480   1.389   4.362   7.090 -0.1217 -0.4061 -0.3229
  823loPI   C3B11481   1.177   4.463   7.468 -0.0337  0.1067  0.3066
  823loPI   C4B11482   1.096   4.355   7.946  0.0053 -0.1955  0.2184
  824loPI    C111483   7.976  15.237   5.670  0.1811  0.3845  0.2034
  824loPI    C211484   8.324  15.233   5.474  0.0515  0.0570 -0.0277
  824loPI    C311485   7.981  15.263   5.271 -0.0692  0.0642  0.1755
  824loPI   PO411486   7.948  15.425   5.889 -0.0145  0.1286  0.0147
  824loPI   GL111487   7.779  15.436   6.281 -0.0173  0.0953 -0.5803
  824loPI   GL211488   7.426  15.484   6.333 -0.2637  0.1771  0.0403
  824loPI   C1A11489   7.877  15.524   6.747 -0.1111  0.0210 -0.1922
  824loPI   C2A11490   7.833  15.640   7.289 -0.0210  0.1801  0.0767
  824loPI   C3A11491   7.794  15.748   7.706 -0.1003 -0.1360  0.2413
  824loPI   C4A11492   7.805  15.840   8.098  0.0986  0.1484 -0.1976
  824loPI   C5A11493   8.101  15.903   8.348  0.0311  0.1270  0.1701
  824loPI   C6A11494   8.356  15.844   8.711  0.2966  0.1042 -0.1594
  824loPI   C1B11495   7.407  15.408   6.748  0.0296  0.3221  0.1521
  824loPI   C2B11496   7.325  15.420   7.189  0.0437 -0.1867  0.0046
  824loPI   C3B11497   7.466  15.363   7.669  0.1101 -0.0281 -0.1680
  824loPI   C4B11498   7.312  15.579   8.030 -0.1820  0.0585 -0.0828
  825loPI    C111499   5.133   6.390   5.587  0.1834  0.2464 -0.2002
  825loPI    C211500   4.747   6.479   5.526  0.1103  0.0416 -0.0481
  825loPI    C311501   4.972   6.342   5.224  0.0302  0.0392 -0.1068
  825loPI   PO411502   5.049   6.360   5.918  0.2391  0.1622 -0.3252
  825loPI   GL111503   5.233   6.378   6.398  0.1131  0.0294 -0.0658
  825loPI   GL211504   5.340   6.014   6.358  0.0087 -0.2281 -0.0655
  825loPI   C1A11505   5.070   6.487   6.729 -0.0205 -0.0700 -0.1033
  825loPI   C2A11506   5.244   6.391   7.135  0.1422 -0.2400  0.2072
  825loPI   C3A11507   5.228   6.352   7.640  0.2563  0.0765 -0.1475
  825loPI   C4A11508   5.024   6.142   8.085  0.0328 -0.1133 -0.3004
  825loPI   C5A11509   4.876   6.027   8.503  0.1930 -0.0387 -0.1508
  825loPI   C6A11510   4.731   5.668   8.707  0.1017  0.2446 -0.3233
  825loPI   C1B11511   5.309   6.030   6.790  0.2475  0.4108  0.2255
  825loPI   C2B11512   5.248   5.885   7.226  0.0809 -0.1205 -0.2394
  825loPI   C3B11513   5.202   5.833   7.595  0.1226  0.1631 -0.1367
  825loPI   C4B11514   5.057   5.674   7.964 -0.1902 -0.2665 -0.2440
  826loPI    C111515  14.942   8.538   5.799 -0.0428  0.0277 -0.0015
  826loPI    C211516  14.668   8.798   5.666 -0.0404  0.0282 -0.0055
  826loPI    C311517  14.571   8.413   5.717 -0.1269  0.0855  0.2811
  826loPI   PO411518  15.070   8.547   5.930  0.1447  0.0269 -0.0362
  826loPI   GL111519  15.237   8.796   6.209 -0.3080 -0.1824  0.4074
  826loPI   GL211520  15.358   8.513   6.363  0.2147  0.2212 -0.0951
  826loPI   C1A11521  15.056   8.919   6.585  0.1210  0.1066  0.0329
  826loPI   C2A11522  15.041   8.867   6.980 -0.0620  0.2201  0.1241
  826loPI   C3A11523  14.882   8.756   7.406 -0.0984  0.2464 -0.0591
  826loPI   C4A11524  15.014   8.867   7.762  0.0600 -0.1651  0.1264
  826loPI   C5A11525  14.666   8.830   8.007  0.0398  0.0450  0.0525
  826loPI   C6A11526  14.457   8.993   8.303 -0.0569 -0.1011  0.1716
  826loPI   C1B11527  15.234   8.445   6.832 -0.1977 -0.1480 -0.0214
  826loPI   C2B11528  15.177   8.411   7.276  0.0907  0.1419  0.2263
  826loPI   C3B11529  15.108   8.394   7.759 -0.1925  0.1423  0.2141
  826loPI   C4B11530  15.109   8.118   8.167  0.0991  0.1241 -0.2826
  827loPI    C111531  16.635   7.933   5.443  0.0062  0.0096 -0.1103
  827loPI    C211532  16.899   8.175   5.264 -0.1457  0.1247 -0.1812
  827loPI    C311533  16.911   7.780   5.197  0.3259  0.0645  0.2072
  827loPI   PO411534  16.625   7.901   5.692 -0.0602 -0.2302  0.1636
  827loPI   GL111535  16.610   8.144   6.049 -0.1092  0.0696  0.0542
  827loPI   GL211536  16.397   7.996   6.304 -0.1456  0.2187 -0.1264
  827loPI   C1A11537  16.608   8.469   6.438  0.0669  0.1624  0.0513
  827loPI   C2A11538  16.588   8.546   6.819 -0.0826 -0.0389  0.0686
  827loPI   C3A11539  16.558   8.658   7.156  0.0411  0.0569 -0.0380
  827loPI   C4A11540  16.584   8.498   7.543  0.1136 -0.4505  0.3394
  827loPI   C5A11541  16.433   8.317   7.918  0.0970  0.1246 -0.2445
  827loPI   C6A11542  16.665   8.026   8.194  0.3723 -0.1652 -0.0553
  827loPI   C1B11543  16.519   7.872   6.697  0.0514  0.2471  0.0782
  827loPI   C2B11544  16.466   7.684   7.110 -0.0686  0.3502  0.0031
  827loPI   C3B11545  16.386   7.519   7.633 -0.1223  0.0661 -0.2111
  827loPI   C4B11546  16.616   7.349   7.949  0.1174 -0.2379  0.0579
  828loPI    C111547   3.619   9.165   5.596 -0.1202  0.0173  0.1092
  828loPI    C211548   3.671   9.532   5.744 -0.0871 -0.0126  0.1722
  828loPI    C311549   3.444   9.478   5.419  0.0821  0.0900  0.0350
  828loPI   PO411550   3.782   9.034   5.768  0.1089  0.0011  0.0691
  828loPI   GL111551   3.868   9.100   6.163 -0.1709 -0.1475  0.2036
  828loPI   GL211552   3.874   9.377   6.166  0.0735 -0.2127 -0.0004
  828loPI   C1A11553   3.882   9.076   6.589  0.2175 -0.0912  0.1079
  828loPI   C2A11554   3.829   9.068   6.992 -0.1531 -0.1741  0.1380
  828loPI   C3A11555   3.817   9.031   7.447 -0.2148 -0.3817  0.3177
  828loPI   C4A11556   3.747   8.800   7.893  0.1315 -0.0005 -0.0029
  828loPI   C5A11557   3.941   8.538   8.248  0.1647 -0.2028  0.1968
  828loPI   C6A11558   3.914   8.017   8.224  0.2560  0.2468 -0.0617
  828loPI   C1B11559   3.906   9.599   6.574  0.1931 -0.3553 -0.1426
  828loPI   C2B11560   3.838   9.560   7.001  0.1535  0.0636  0.1622
  828loPI   C3B11561   3.592   9.430   7.285 -0.0830  0.0950 -0.2114
  828loPI   C4B11562   3.468   9.521   7.728 -0.0020 -0.1771 -0.3015
  829loPI    C111563   7.512   1.818   5.848  0.2327 -0.0059 -0.2888
  829loPI    C211564   7.321   1.782   5.499 -0.0684  0.0637 -0.1346
  829loPI    C311565   7.571   2.088   5.559 -0.2502  0.2237 -0.1827
  829loPI   PO411566   7.513   1.533   5.916  0.4287 -0.0154 -0.1009
  829loPI   GL111567   7.597   1.432   6.258  0.0050 -0.1409  0.0935
  829loPI   GL211568   7.768   1.224   6.383 -0.1214 -0.2593  0.0411
  829loPI   C1A11569   7.385   1.415   6.665 -0.1862 -0.0595 -0.3118
  829loPI   C2A11570   7.258   1.401   7.072 -0.0619  0.1695  0.3313
  829loPI   C3A11571   7.349   1.273   7.569  0.1764  0.4396  0.2766
  829loPI   C4A11572   7.245   1.498   7.848 -0.0835  0.1363 -0.1616
  829loPI   C5A11573   7.166   1.822   8.150  0.0423  0.0480 -0.0398
  829loPI   C6A11574   6.896   1.934   8.484  0.2605 -0.0242 -0.0379
  829loPI   C1B11575   8.119   1.358   6.653  0.0961  0.0735  0.1106
  829loPI   C2B11576   8.211   1.351   7.064  0.1061 -0.2106  0.0725
  829loPI   C3B11577   8.234   1.403   7.458 -0.3495  0.1943  0.0783
  829loPI   C4B11578   8.277   1.268   7.968 -0.0842 -0.2982  0.1387
  830loPI    C111579  10.125   2.236   5.952 -0.0338  0.1634 -0.1173
  830loPI    C211580  10.088   2.627   5.880 -0.0974  0.0773 -0.5868
  830loPI    C311581   9.862   2.365   5.680 -0.1078 -0.1986 -0.2238
  830loPI   PO411582  10.171   2.210   6.140  0.0943 -0.0229  0.2355
  830loPI   GL111583  10.272   2.509   6.423 -0.0759  0.1929 -0.1952
  830loPI   GL211584   9.943   2.487   6.542  0.1184  0.0542 -0.1505
  830loPI   C1A11585  10.336   2.523   6.853  0.1470 -0.0964  0.2181
  830loPI   C2A11586  10.238   2.481   7.337  0.1897 -0.0295  0.0631
  830loPI   C3A11587  10.297   2.313   7.637  0.4076  0.1333  0.2407
  830loPI   C4A11588  10.432   2.037   7.979  0.0423 -0.3534 -0.4305
  830loPI   C5A11589  10.502   2.032   8.385 -0.2639  0.0446  0.0082
  830loPI   C6A11590  10.618   2.069   8.743 -0.2313 -0.2583 -0.0776
  830loPI   C1B11591   9.842   2.384   6.952  0.0478  0.3797 -0.1629
  830loPI   C2B11592   9.736   2.397   7.346 -0.0664  0.0511 -0.0232
  830loPI   C3B11593   9.839   2.522   7.768 -0.3107 -0.0687 -0.1678
  830loPI   C4B11594   9.636   2.567   8.209  0.1420  0.1518  0.0720
  831loPI    C111595  16.355   4.747   5.846 -0.3198  0.2538 -0.0598
  831loPI    C211596  16.260   5.011   5.561 -0.1350  0.0895 -0.2776
  831loPI    C311597  16.390   4.647   5.460  0.1499  0.1055  0.0160
  831loPI   PO411598  16.188   4.725   6.038  0.1038  0.1783 -0.2336
  831loPI   GL111599  16.387   4.555   6.422  0.2116  0.3539  0.2412
  831loPI   GL211600  16.146   4.354   6.386 -0.1718  0.0612  0.0366
  831loPI   C1A11601  16.735   4.631   6.767 -0.3104  0.2361 -0.0209
  831loPI   C2A11602  16.663   4.574   7.232  0.1804 -0.1828  0.2564
  831loPI   C3A11603  16.646   4.634   7.712  0.0790  0.2232 -0.1973
  831loPI   C4A11604  16.744   4.343   8.162 -0.0903 -0.0827  0.1841
  831loPI   C5A11605  16.539   4.337   8.515 -0.0587 -0.1356 -0.0512
  831loPI   C6A11606  16.465   4.419   8.922 -0.2044  0.3296  0.1387
  831loPI   C1B11607  16.230   4.396   6.855 -0.0791  0.1479 -0.0224
  831loPI   C2B11608  16.155   4.500   7.286  0.1259 -0.0236  0.0283
  831loPI   C3B11609  16.141   4.616   7.686 -0.3296  0.0558 -0.0551
  831loPI   C4B11610  16.352   4.733   8.101 -0.4198  0.1526  0.0316
  832loPI    C111611   8.277   0.743   5.689  0.0297 -0.1874  0.0281
  832loPI    C211612   7.906   0.629   5.786 -0.1589  0.2149 -0.1957
  832loPI    C311613   8.066   0.516   5.437 -0.0557  0.0166 -0.0862
  832loPI   PO411614   8.389   0.660   5.866 -0.0176  0.0891  0.1239
  832loPI   GL111615   8.271   0.557   6.311 -0.1174  0.1372  0.0534
  832loPI   GL211616   8.019   0.796   6.271 -0.2731  0.0816  0.1440
  832loPI   C1A11617   8.265   0.549   6.745 -0.0371  0.1075 -0.1549
  832loPI   C2A11618   8.301   0.530   7.270 -0.1505 -0.3882  0.1895
  832loPI   C3A11619   8.193   0.470   7.766  0.0833  0.0243 -0.3905
  832loPI   C4A11620   8.371   0.314   8.171 -0.0513  0.2627  0.5273
  832loPI   C5A11621   8.482  -0.037   8.366 -0.1379 -0.3139 -0.0360
  832loPI   C6A11622   8.570  -0.438   8.253  0.0827 -0.0431 -0.0215
  832loPI   C1B11623   7.918   0.871   6.657  0.1444  0.2089  0.1564
  832loPI   C2B11624   8.013   0.927   7.093  0.0886  0.3225  0.0973
  832loPI   C3B11625   7.944   0.961   7.581 -0.1568  0.2024 -0.0444
  832loPI   C4B11626   7.918   0.915   8.004 -0.1513 -0.1585  0.0511
  833loPI    C111627   3.909   0.200   5.826  0.1073  0.0075  0.2405
  833loPI    C211628   3.534   0.072   5.775  0.1165  0.0481  0.0625
  833loPI    C311629   3.792   0.059   5.470  0.2822 -0.0511  0.2053
  833loPI   PO411630   3.903   0.167   6.081  0.0084 -0.0816  0.0860
  833loPI   GL111631   4.241   0.116   6.335  0.0710  0.0297 -0.1054
  833loPI   GL211632   4.465   0.362   6.364  0.1434 -0.2178  0.0226
  833loPI   C1A11633   4.269  -0.056   6.783 -0.0107  0.2816 -0.1162
  833loPI   C2A11634   4.390  -0.240   7.212  0.1880  0.1708  0.0694
  833loPI   C3A11635   4.467  -0.527   7.576  0.2039  0.0248 -0.2863
  833loPI   C4A11636   4.380  -0.554   8.048 -0.2003  0.4270 -0.2533
  833loPI   C5A11637   4.280  -0.364   8.506  0.3685 -0.2236  0.1713
  833loPI   C6A11638   4.152  -0.004   8.459 -0.1568 -0.1448  0.0317
  833loPI   C1B11639   4.660   0.389   6.679 -0.2559 -0.2743 -0.2150
  833loPI   C2B11640   4.588   0.351   7.145 -0.1082 -0.3224  0.0288
  833loPI   C3B11641   4.459   0.162   7.577 -0.1111  0.0905 -0.1022
  833loPI   C4B11642   4.241  -0.107   7.855 -0.2423 -0.1568 -0.0487
  834loPI    C111643  11.158   5.633   5.932 -0.0352 -0.1267 -0.0544
  834loPI    C211644  11.001   5.981   5.816  0.1255 -0.0702 -0.1055
  834loPI    C311645  10.788   5.644   5.782 -0.1050  0.0484  0.1270
  834loPI   PO411646  11.271   5.685   6.170  0.2156 -0.3314  0.0095
  834loPI   GL111647  11.218   5.819   6.510  0.0049  0.0979  0.2373
  834loPI   GL211648  11.114   6.149   6.370  0.0566  0.2338 -0.0025
  834loPI   C1A11649  11.548   5.766   6.690  0.2884 -0.0693  0.1502
  834loPI   C2A11650  11.808   5.654   7.022  0.0330  0.0901  0.2133
  834loPI   C3A11651  12.210   5.746   7.299  0.2663 -0.0194  0.3801
  834loPI   C4A11652  12.305   5.938   7.649  0.2304  0.0789 -0.1149
  834loPI   C5A11653  12.149   5.993   8.094  0.3744 -0.1191  0.0481
  834loPI   C6A11654  12.142   6.219   8.289 -0.2698 -0.0673 -0.2776
  834loPI   C1B11655  10.839   6.138   6.725 -0.0316  0.1244 -0.0852
  834loPI   C2B11656  10.705   6.101   7.178 -0.0512 -0.2841 -0.0787
  834loPI   C3B11657  10.789   5.869   7.539 -0.1295 -0.2185  0.2715
  834loPI   C4B11658  10.462   5.740   7.714  0.0020 -0.2852 -0.1647
  835loPI    C111659  12.522  17.316   5.736 -0.2588  0.1190 -0.0414
  835loPI    C211660  12.819  17.431   5.978 -0.1223 -0.0321 -0.1355
  835loPI    C311661  12.778  17.600   5.618 -0.1930  0.0377 -0.0949
  835loPI   PO411662  12.306  17.338   5.834 -0.0919 -0.0306 -0.4364
  835loPI   GL111663  12.250  17.272   6.270 -0.2553  0.1889  0.0912
  835loPI   GL211664  12.433  17.013   6.207 -0.2778  0.0300  0.0803
  835loPI   C1A11665  12.226  17.249   6.694  0.0227 -0.0147 -0.1877
  835loPI   C2A11666  12.269  17.287   7.138 -0.2138 -0.0750  0.2041
  835loPI   C3A11667  12.335  17.346   7.589 -0.2639 -0.1593  0.2621
  835loPI   C4A11668  12.179  17.253   8.042 -0.0055  0.0546  0.1665
  835loPI   C5A11669  12.082  17.506   8.190  0.2243 -0.1366  0.2778
  835loPI   C6A11670  12.232  17.865   8.218  0.4268 -0.1261  0.0277
  835loPI   C1B11671  12.411  16.784   6.554  0.2228 -0.2076 -0.0352
  835loPI   C2B11672  12.259  16.758   6.989  0.0668 -0.0060  0.2043
  835loPI   C3B11673  12.244  16.643   7.349  0.2768  0.2615  0.1550
  835loPI   C4B11674  12.318  16.854   7.673 -0.0042  0.1316 -0.1803
  836loPI    C111675   5.158  17.545   5.648 -0.3231  0.1176  0.1228
  836loPI    C211676   5.008  17.209   5.491 -0.1418  0.1261 -0.0725
  836loPI    C311677   4.913  17.564   5.332 -0.0216  0.1403 -0.1143
  836loPI   PO411678   5.308  17.459   5.831  0.0663  0.0872  0.1184
  836loPI   GL111679   5.402  17.549   6.243  0.2177  0.0060 -0.1482
  836loPI   GL211680   5.225  17.402   6.399 -0.2910  0.1320  0.0111
  836loPI   C1A11681   5.673  17.675   6.560  0.1645 -0.1984  0.1589
  836loPI   C2A11682   5.793  17.801   6.922  0.0647 -0.3827  0.1013
  836loPI   C3A11683   6.005  17.986   7.314 -0.2171 -0.0567  0.0848
  836loPI   C4A11684   6.261  17.989   7.729  0.1464 -0.1218 -0.1820
  836loPI   C5A11685   6.279  17.741   8.131  0.2558  0.2858 -0.3231
  836loPI   C6A11686   6.532  17.408   8.246 -0.0854  0.0204 -0.0364
  836loPI   C1B11687   4.978  17.489   6.727 -0.2146  0.1916 -0.2547
  836loPI   C2B11688   4.815  17.740   6.995 -0.2496 -0.0627  0.2354
  836loPI   C3B11689   4.873  17.669   7.410  0.0384 -0.0724  0.2598
  836loPI   C4B11690   4.716  17.623   7.863  0.2056  0.2693  0.2421
  837loPI    C111691   4.080   9.788   5.909  0.0429 -0.0141 -0.0902
  837loPI    C211692   4.336   9.925   5.633 -0.1671  0.1628 -0.2006
  837loPI    C311693   4.190  10.173   5.911  0.1903 -0.0550  0.1932
  837loPI   PO411694   4.266   9.618   6.030 -0.0189 -0.0379 -0.0960
  837loPI   GL111695   4.390   9.600   6.362 -0.1842 -0.2147  0.0705
  837loPI   GL211696   4.348   9.258   6.451  0.0917 -0.3443  0.1872
  837loPI   C1A11697   4.669   9.600   6.660  0.0236  0.0268 -0.0356
  837loPI   C2A11698   4.995   9.707   7.006  0.1825  0.3939  0.0351
  837loPI   C3A11699   5.001   9.640   7.513 -0.0261  0.1341  0.0909
  837loPI   C4A11700   4.962   9.570   7.958 -0.1690 -0.0503 -0.0908
  837loPI   C5A11701   5.223   9.778   8.286  0.0780  0.2213 -0.1409
  837loPI   C6A11702   5.497  10.164   8.248 -0.1478 -0.0221  0.0712
  837loPI   C1B11703   4.331   9.349   6.905 -0.0449  0.1069  0.0216
  837loPI   C2B11704   4.292   9.301   7.288  0.1345 -0.1719  0.0232
  837loPI   C3B11705   4.057   9.396   7.658 -0.2899  0.2532  0.2853
  837loPI   C4B11706   3.909   9.739   7.923 -0.2507  0.0582 -0.4472
  838loPI    C111707  16.899   0.724   6.035 -0.3180  0.1365 -0.0247
  838loPI    C211708  16.932   0.668   5.641 -0.0240 -0.1251  0.0334
  838loPI    C311709  16.602   0.836   5.792 -0.2686 -0.2985 -0.2947
  838loPI   PO411710  16.946   0.446   6.178  0.0458 -0.0837  0.0159
  838loPI   GL111711  17.230   0.123   6.559  0.2735  0.0093  0.1998
  838loPI   GL211712  17.211   0.447   6.769  0.0255  0.0845  0.0796
  838loPI   C1A11713  17.253  -0.074   6.885 -0.0057 -0.1482 -0.0116
  838loPI   C2A11714  17.378  -0.213   7.287 -0.3088  0.2096  0.0883
  838loPI   C3A11715  17.360  -0.318   7.755  0.2130  0.0086 -0.1017
  838loPI   C4A11716  17.176  -0.563   8.119 -0.0523 -0.0254  0.0023
  838loPI   C5A11717  16.739  -0.763   8.112 -0.2311  0.1596  0.2091
  838loPI   C6A11718  16.638  -0.914   7.750  0.0130 -0.0486  0.1891
  838loPI   C1B11719  16.843   0.686   7.006  0.0246 -0.1364  0.1090
  838loPI   C2B11720  16.821   0.625   7.479 -0.1339  0.0793  0.0911
  838loPI   C3B11721  17.153   0.558   7.837  0.0537 -0.0639  0.0032
  838loPI   C4B11722  16.971   0.400   8.172 -0.1489  0.2107 -0.0377
  839loPI    C111723   9.188   2.875   5.699  0.0195  0.0784  0.0822
  839loPI    C211724   8.884   3.096   5.560  0.0210 -0.0178 -0.0773
  839loPI    C311725   9.257   3.168   5.434  0.0456  0.0057  0.0082
  839loPI   PO411726   9.228   2.874   5.955  0.1415  0.2303 -0.2287
  839loPI   GL111727   9.178   3.088   6.365  0.3239  0.1511 -0.1163
  839loPI   GL211728   9.156   3.415   6.462 -0.2369 -0.3941 -0.2278
  839loPI   C1A11729   9.288   2.987   6.774  0.1006  0.1561 -0.0368
  839loPI   C2A11730   9.222   3.001   7.233 -0.0355 -0.1226  0.3112
  839loPI   C3A11731   9.050   2.965   7.610  0.1394 -0.1924 -0.0564
  839loPI   C4A11732   8.846   2.734   7.873  0.0310  0.0078 -0.0351
  839loPI   C5A11733   8.624   2.658   8.213  0.3974  0.2261 -0.1338
  839loPI   C6A11734   8.782   2.468   8.524  0.0815  0.2476  0.0264
  839loPI   C1B11735   9.218   3.545   6.868  0.0417  0.1753  0.0664
  839loPI   C2B11736   9.303   3.597   7.296 -0.4192 -0.2390  0.0796
  839loPI   C3B11737   9.485   3.379   7.693 -0.2131  0.0051  0.0473
  839loPI   C4B11738   9.663   3.357   8.071  0.2725  0.0698 -0.1522
  840loPI    C111739  10.856   8.472   5.335  0.1503  0.0741 -0.2152
  840loPI    C211740  10.586   8.178   5.312 -0.0569  0.2335  0.1016
  840loPI    C311741  10.598   8.461   5.029 -0.1095  0.1332 -0.0021
  840loPI   PO411742  10.833   8.596   5.698  0.1104  0.1071 -0.1035
  840loPI   GL111743  10.864   8.832   6.103 -0.1380 -0.0751  0.0250
  840loPI   GL211744  11.177   8.790   6.270  0.2634  0.0253  0.2090
  840loPI   C1A11745  10.653   8.864   6.496  0.1577 -0.3574 -0.1053
  840loPI   C2A11746  10.484   8.935   6.943 -0.2023 -0.1977 -0.0313
  840loPI   C3A11747  10.511   8.964   7.405 -0.0428 -0.0676  0.1393
  840loPI   C4A11748  10.512   9.052   7.867 -0.2065 -0.0207  0.2484
  840loPI   C5A11749  10.373   9.091   8.291  0.2954  0.1284  0.1084
  840loPI   C6A11750  10.110   8.892   8.506  0.3613 -0.1291  0.1581
  840loPI   C1B11751  11.113   8.618   6.688  0.1658  0.0454 -0.0762
  840loPI   C2B11752  11.241   8.492   7.091  0.1148  0.2217  0.1993
  840loPI   C3B11753  11.255   8.417   7.527  0.0437 -0.1180  0.0548
  840loPI   C4B11754  11.331   8.521   7.928 -0.0730 -0.0514 -0.0055
  841loPI    C111755  16.435  13.834   5.888  0.0734  0.0638  0.1704
  841loPI    C211756  16.358  13.963   5.517 -0.0532  0.1916  0.2402
  841loPI    C311757  16.660  13.708   5.581 -0.0350  0.1628  0.0489
  841loPI   PO411758  16.440  14.036   6.043 -0.2880  0.1469  0.1407
  841loPI   GL111759  16.707  13.984   6.367  0.1312 -0.2561 -0.3394
  841loPI   GL211760  16.621  14.236   6.446 -0.0954 -0.4727 -0.1053
  841loPI   C1A11761  17.022  13.954   6.639 -0.1025 -0.1108 -0.2982
  841loPI   C2A11762  17.157  13.924   6.999  0.4891  0.2604 -0.0157
  841loPI   C3A11763  17.024  13.977   7.429  0.1258 -0.3216 -0.0206
  841loPI   C4A11764  16.968  14.065   7.868  0.0071 -0.0023 -0.1443
  841loPI   C5A11765  16.863  14.178   8.244 -0.0937 -0.3643 -0.0803
  841loPI   C6A11766  16.483  14.299   8.424 -0.1933 -0.2149 -0.0401
  841loPI   C1B11767  16.775  14.191   6.946  0.1922 -0.1887  0.0409
  841loPI   C2B11768  16.685  14.289   7.282 -0.1334  0.0177  0.0258
  841loPI   C3B11769  16.541  14.257   7.629  0.0647  0.0357  0.2332
  841loPI   C4B11770  16.341  14.063   7.962 -0.0712 -0.0503 -0.1962
  842loPI    C111771  16.798  16.763   5.992 -0.0850 -0.0499 -0.0574
  842loPI    C211772  16.607  16.671   6.331 -0.0048  0.0318  0.0105
  842loPI    C311773  16.627  16.404   6.034 -0.0889 -0.0341  0.0637
  842loPI   PO411774  16.731  17.054   5.968  0.1072  0.1363  0.0008
  842loPI   GL111775  16.990  17.299   6.313 -0.1744 -0.1687  0.0460
  842loPI   GL211776  17.107  17.477   6.537 -0.1253  0.1109  0.0364
  842loPI   C1A11777  17.083  16.867   6.461 -0.0747  0.2262  0.0137
  842loPI   C2A11778  16.891  16.621   6.795 -0.0460  0.0150 -0.4516
  842loPI   C3A11779  16.866  16.562   7.246  0.1225  0.1501  0.4319
  842loPI   C4A11780  16.887  16.483   7.585 -0.1234 -0.0871  0.3471
  842loPI   C5A11781  16.848  16.172   7.846 -0.2723  0.0099 -0.1374
  842loPI   C6A11782  16.475  16.152   8.142 -0.0166  0.1280 -0.0733
  842loPI   C1B11783  17.065  17.203   6.859  0.1252  0.1005  0.0203
  842loPI   C2B11784  17.054  17.086   7.232  0.0940 -0.2556  0.2789
  842loPI   C3B11785  17.118  17.082   7.655  0.0693 -0.0069  0.1859
  842loPI   C4B11786  17.181  16.819   7.883 -0.1780 -0.1296 -0.0611
  843loPI    C111787  10.096  15.607   5.496 -0.1044  0.1790 -0.1029
  843loPI    C211788  10.073  15.913   5.239  0.0582  0.2161 -0.0744
  843loPI    C311789   9.974  15.544   5.120 -0.0628  0.2665 -0.1313
  843loPI   PO411790  10.100  15.719   5.737 -0.1641  0.0754 -0.0151
  843loPI   GL111791  10.113  15.993   6.168 -0.0693 -0.0565  0.0298
  843loPI   GL211792  10.131  15.628   6.273  0.1260 -0.4733 -0.0652
  843loPI   C1A11793   9.936  16.065   6.555 -0.1419 -0.2841  0.3476
  843loPI   C2A11794   9.932  16.266   6.940 -0.1787 -0.1332  0.1248
  843loPI   C3A11795  10.039  16.393   7.263  0.0297  0.0601 -0.1451
  843loPI   C4A11796  10.081  16.464   7.657  0.3745  0.1695 -0.0611
  843loPI   C5A11797  10.127  16.721   8.046 -0.2164 -0.2386  0.1443
  843loPI   C6A11798   9.888  17.063   8.366  0.0840 -0.0286  0.2710
  843loPI   C1B11799  10.122  15.529   6.646 -0.1528  0.0918  0.0959
  843loPI   C2B11800   9.969  15.634   7.031  0.1834  0.2741  0.0145
  843loPI   C3B11801   9.713  15.561   7.384 -0.1302  0.0654  0.1601
  843loPI   C4B11802   9.493  15.169   7.395 -0.0672 -0.1303 -0.3750
  844loPI    C111803   7.160  10.591   5.507  0.0825  0.1745 -0.0318
  844loPI    C211804   7.232  10.586   5.114 -0.0027  0.2376 -0.0485
  844loPI    C311805   7.123  10.927   5.293  0.0304  0.2078  0.0289
  844loPI   PO411806   6.914  10.436   5.630 -0.1109 -0.0020  0.3363
  844loPI   GL111807   6.976  10.140   5.888  0.0740  0.0318 -0.2097
  844loPI   GL211808   7.266  10.202   5.916 -0.2600 -0.1240 -0.0902
  844loPI   C1A11809   6.776  10.436   6.202  0.0042  0.2525 -0.2482
  844loPI   C2A11810   6.636  10.734   6.546 -0.0519 -0.1144 -0.0186
  844loPI   C3A11811   6.595  10.735   6.979 -0.2384  0.2849 -0.0745
  844loPI   C4A11812   6.565  10.795   7.369 -0.1064 -0.1117 -0.0781
  844loPI   C5A11813   6.698  11.101   7.646  0.0102 -0.0876 -0.1638
  844loPI   C6A11814   7.014  11.282   7.871  0.3026  0.0233 -0.2429
  844loPI   C1B11815   7.194  10.083   6.379 -0.1837 -0.1350 -0.2572
  844loPI   C2B11816   7.032   9.931   6.804  0.2687 -0.2173 -0.2097
  844loPI   C3B11817   6.964   9.865   7.125  0.0650 -0.1327 -0.4536
  844loPI   C4B11818   7.067   9.865   7.648 -0.1753  0.1801  0.0067
  845loPI    C111819   7.143   9.587   5.293  0.2019 -0.0497 -0.1454
  845loPI    C211820   7.132   9.852   4.994 -0.0071 -0.0451 -0.1357
  845loPI    C311821   7.251   9.476   4.924 -0.0745 -0.0496 -0.2290
  845loPI   PO411822   6.943   9.716   5.448  0.1578  0.0716  0.0279
  845loPI   GL111823   6.669   9.639   5.889 -0.0438 -0.3596  0.0933
  845loPI   GL211824   6.967   9.637   6.079 -0.2611 -0.0053  0.2280
  845loPI   C1A11825   6.692   9.952   6.309  0.1416 -0.0303 -0.2861
  845loPI   C2A11826   6.647  10.232   6.633  0.0918 -0.2283  0.0694
  845loPI   C3A11827   6.294  10.333   6.894  0.2670 -0.0901 -0.0408
  845loPI   C4A11828   6.287  10.378   7.391  0.0578 -0.0135 -0.1250
  845loPI   C5A11829   6.103  10.449   7.760 -0.1671  0.3653  0.0117
  845loPI   C6A11830   5.872  10.420   8.190  0.3077 -0.2719 -0.0204
  845loPI   C1B11831   6.898   9.526   6.534 -0.0906 -0.1528 -0.0484
  845loPI   C2B11832   6.798   9.422   6.979  0.2011  0.1778  0.2839
  845loPI   C3B11833   6.925   9.379   7.341  0.2886 -0.2138  0.2376
  845loPI   C4B11834   6.803   9.474   7.747  0.2353  0.1948  0.0846
  846loPI    C111835   3.700   1.519   5.350  0.0211  0.1004 -0.0974
  846loPI    C211836   3.363   1.370   5.505 -0.0957  0.3502 -0.1057
  846loPI    C311837   3.429   1.349   5.111  0.0395  0.0313 -0.0695
  846loPI   PO411838   3.784   1.645   5.634  0.0027  0.0268  0.1285
  846loPI   GL111839   4.042   1.643   6.080  0.2146  0.0518  0.0745
  846loPI   GL211840   3.749   1.739   6.192  0.0120  0.4074 -0.1613
  846loPI   C1A11841   3.967   1.679   6.646 -0.1958 -0.2112  0.0936
  846loPI   C2A11842   4.178   1.828   6.909 -0.0770 -0.3669  0.0163
  846loPI   C3A11843   4.438   1.720   7.251  0.4425  0.1158 -0.1942
  846loPI   C4A11844   4.707   1.780   7.510 -0.2582 -0.0639  0.0323
  846loPI   C5A11845   4.916   2.013   7.881  0.2044  0.0252 -0.1630
  846loPI   C6A11846   5.171   2.086   8.249 -0.1175  0.0138 -0.1368
  846loPI   C1B11847   3.511   1.592   6.532  0.0253 -0.2113 -0.3815
  846loPI   C2B11848   3.652   1.323   6.786  0.1526  0.0700 -0.0604
  846loPI   C3B11849   3.982   1.350   7.137  0.0698 -0.3131  0.2962
  846loPI   C4B11850   4.104   1.399   7.546 -0.1351  0.1266 -0.0809
  847loPI    C111851  16.348  10.345   5.593 -0.2564  0.0172  0.0961
  847loPI    C211852  16.050  10.588   5.483 -0.0227  0.2060 -0.1335
  847loPI    C311853  16.201  10.325   5.221 -0.2870 -0.2096  0.1190
  847loPI   PO411854  16.470  10.534   5.808  0.0861  0.0543  0.4763
  847loPI   GL111855  16.721  10.503   6.153 -0.0147 -0.0812  0.0162
  847loPI   GL211856  16.368  10.492   6.306 -0.0416 -0.3959  0.0124
  847loPI   C1A11857  16.785  10.782   6.586 -0.1638  0.1179  0.1135
  847loPI   C2A11858  16.628  11.133   6.812 -0.0242  0.2417 -0.0107
  847loPI   C3A11859  16.671  11.079   7.247  0.0449  0.4011  0.2784
  847loPI   C4A11860  16.687  11.182   7.646 -0.4154 -0.2605  0.2298
  847loPI   C5A11861  16.608  11.300   8.022 -0.0205  0.0624 -0.0012
  847loPI   C6A11862  16.516  11.033   8.446 -0.1964 -0.5251  0.2225
  847loPI   C1B11863  16.556  10.356   6.814 -0.2356 -0.1349 -0.0705
  847loPI   C2B11864  16.724  10.531   7.059 -0.2649  0.1491 -0.1365
  847loPI   C3B11865  16.734  10.570   7.502  0.0147 -0.2634  0.0101
  847loPI   C4B11866  16.497  10.516   7.742  0.0400 -0.2796  0.1688
  848loPI    C111867   5.399   9.714   5.826  0.0194 -0.1915 -0.1729
  848loPI    C211868   5.039   9.574   5.721 -0.2306  0.2885  0.0149
  848loPI    C311869   5.290   9.711   5.441 -0.1688 -0.0904 -0.1214
  848loPI   PO411870   5.531   9.518   5.922 -0.0199 -0.0309  0.0754
  848loPI   GL111871   5.579   9.275   6.268 -0.0119 -0.2074  0.2687
  848loPI   GL211872   5.731   9.067   6.290  0.2303  0.0208 -0.1339
  848loPI   C1A11873   5.324   9.325   6.608 -0.0935  0.0356  0.2355
  848loPI   C2A11874   5.390   9.412   7.058  0.1048  0.2239 -0.2047
  848loPI   C3A11875   5.576   9.446   7.498  0.1599  0.0099 -0.1087
  848loPI   C4A11876   5.569   9.745   7.726 -0.1487  0.0088 -0.1505
  848loPI   C5A11877   5.543  10.227   7.766 -0.0845 -0.0951 -0.2358
  848loPI   C6A11878   5.559  10.624   7.592 -0.1770 -0.0485 -0.0779
  848loPI   C1B11879   5.615   8.871   6.636  0.0720 -0.1868 -0.0714
  848loPI   C2B11880   5.341   8.901   6.949  0.2156  0.0678 -0.1811
  848loPI   C3B11881   5.387   8.915   7.335 -0.0290 -0.0972  0.0795
  848loPI   C4B11882   5.210   9.158   7.660 -0.2560 -0.0206 -0.1432
  849loPI    C111883  11.871  10.036   5.960 -0.1935 -0.0834 -0.0107
  849loPI    C211884  11.858  10.414   5.833 -0.0404 -0.0625  0.0336
  849loPI    C311885  11.674  10.126   5.624 -0.1131  0.0279 -0.0282
  849loPI   PO411886  12.089   9.938   5.994  0.3914  0.2983  0.1095
  849loPI   GL111887  12.486   9.999   6.400 -0.1044 -0.0494  0.2359
  849loPI   GL211888  12.306  10.077   6.475 -0.0652 -0.1471 -0.1433
  849loPI   C1A11889  12.535   9.845   6.825  0.0844 -0.0258 -0.1169
  849loPI   C2A11890  12.297  10.036   7.186  0.1969  0.0362  0.0966
  849loPI   C3A11891  12.103  10.187   7.489  0.2758 -0.3063  0.2818
  849loPI   C4A11892  12.050  10.309   7.909  0.1366  0.0844  0.0378
  849loPI   C5A11893  12.019  10.255   8.369 -0.2080 -0.0812 -0.1366
  849loPI   C6A11894  12.363  10.210   8.689 -0.1260  0.0844 -0.2244
  849loPI   C1B11895  12.029  10.238   6.802 -0.1345 -0.0908 -0.0716
  849loPI   C2B11896  11.727  10.223   7.175 -0.1085  0.3252 -0.0014
  849loPI   C3B11897  11.664  10.442   7.616 -0.0147  0.1689  0.1574
  849loPI   C4B11898  11.547  10.251   7.978  0.0484 -0.0276  0.1472
  850loPI    C111899  14.694  14.220   5.597 -0.0138 -0.1698 -0.0125
  850loPI    C211900  14.537  14.532   5.401  0.1538 -0.1415 -0.1032
  850loPI    C311901  14.326  14.194   5.440 -0.0529  0.0029  0.0486
  850loPI   PO411902  14.768  14.354   5.825 -0.1370  0.2270 -0.1353
  850loPI   GL111903  14.755  14.341   6.268 -0.1536 -0.0458  0.1101
  850loPI   GL211904  14.734  14.655   6.254  0.0215 -0.2810 -0.2816
  850loPI   C1A11905  14.484  14.532   6.642  0.0777  0.0693 -0.3913
  850loPI   C2A11906  14.470  14.587   7.047 -0.1638 -0.1233  0.0569
  850loPI   C3A11907  14.516  14.613   7.419  0.1773  0.2280 -0.2087
  850loPI   C4A11908  14.687  14.608   7.820  0.0775  0.1203 -0.2170
  850loPI   C5A11909  14.703  14.578   8.257  0.1450  0.2000  0.1893
  850loPI   C6A11910  14.395  14.556   8.558  0.0496  0.1810  0.1359
  850loPI   C1B11911  14.921  14.807   6.617 -0.0233  0.2622 -0.1746
  850loPI   C2B11912  14.929  14.792   7.048  0.1991  0.1996 -0.1395
  850loPI   C3B11913  15.011  14.806   7.456  0.0505 -0.2203 -0.1732
  850loPI   C4B11914  15.054  14.857   7.924 -0.0268  0.3311 -0.0030
  851loPI    C111915   9.206   9.130   5.559  0.0566 -0.0683 -0.2325
  851loPI    C211916   9.459   9.414   5.683 -0.1918  0.0270  0.0681
  851loPI    C311917   9.159   9.507   5.435  0.0576 -0.0846 -0.2829
  851loPI   PO411918   9.183   8.947   5.810 -0.1206  0.1265  0.1421
  851loPI   GL111919   9.232   9.218   6.161 -0.0958 -0.3125 -0.0837
  851loPI   GL211920   9.566   9.269   6.133 -0.0627 -0.0273 -0.2375
  851loPI   C1A11921   9.129   9.455   6.538  0.5443 -0.1271 -0.0021
  851loPI   C2A11922   9.126   9.345   6.972  0.2300  0.1368  0.1340
  851loPI   C3A11923   9.243   9.512   7.375  0.0290  0.2919 -0.0411
  851loPI   C4A11924   9.214   9.717   7.701 -0.0773 -0.2259  0.1672
  851loPI   C5A11925   9.074   9.934   8.030  0.2888  0.2806  0.2612
  851loPI   C6A11926   9.048  10.218   8.356 -0.0764 -0.0862 -0.1153
  851loPI   C1B11927   9.631   9.116   6.482 -0.2899  0.1950 -0.0833
  851loPI   C2B11928   9.594   9.181   6.875  0.1504  0.1614  0.0340
  851loPI   C3B11929   9.511   9.127   7.285  0.0606  0.0374 -0.0482
  851loPI   C4B11930   9.576   9.303   7.725 -0.3445 -0.0739 -0.0142
  852loPI    C111931  17.384   4.591   5.495  0.1085 -0.1394 -0.1079
  852loPI    C211932  17.237   4.274   5.300 -0.2405  0.0343 -0.1347
  852loPI    C311933  17.628   4.357   5.282 -0.1845 -0.2576 -0.3195
  852loPI   PO411934  17.294   4.500   5.785  0.0322 -0.0542  0.1047
  852loPI   GL111935  17.429   4.627   6.087 -0.0952 -0.0472 -0.1548
  852loPI   GL211936  17.188   4.837   6.211 -0.5976 -0.2351  0.0024
  852loPI   C1A11937  17.308   4.479   6.555  0.0022  0.2593 -0.0117
  852loPI   C2A11938  17.187   4.617   6.984 -0.0024  0.1652  0.1930
  852loPI   C3A11939  17.102   4.699   7.464  0.3477 -0.0315  0.1388
  852loPI   C4A11940  17.249   4.576   7.875  0.4337  0.0401  0.0671
  852loPI   C5A11941  17.077   4.725   8.170 -0.3347  0.2639  0.0122
  852loPI   C6A11942  16.759   4.811   8.441 -0.1134  0.0191  0.0153
  852loPI   C1B11943  17.118   4.957   6.642  0.1124  0.1302  0.1569
  852loPI   C2B11944  17.237   5.166   7.099 -0.2379 -0.4846  0.1276
  852loPI   C3B11945  17.277   5.142   7.485  0.2229 -0.1935  0.4798
  852loPI   C4B11946  17.306   5.228   7.875  0.0032 -0.1450  0.0219
  853loPI    C111947  11.605  14.281   5.705  0.2855  0.0049  0.0700
  853loPI    C211948  11.722  14.612   5.513 -0.0287  0.1316  0.0904
  853loPI    C311949  11.781  14.253   5.347 -0.1252  0.2282 -0.1573
  853loPI   PO411950  11.681  14.292   5.911 -0.0387  0.0165  0.3142
  853loPI   GL111951  11.560  14.536   6.280  0.1226  0.0144 -0.0984
  853loPI   GL211952  11.670  14.817   6.088  0.0372  0.0107 -0.0358
  853loPI   C1A11953  11.762  14.636   6.709  0.1261  0.3713  0.2547
  853loPI   C2A11954  11.804  14.832   7.021  0.0780  0.2624  0.1140
  853loPI   C3A11955  11.559  14.973   7.363  0.1873  0.2845 -0.0655
  853loPI   C4A11956  11.397  15.067   7.732  0.0806 -0.1540  0.0769
  853loPI   C5A11957  11.195  15.277   8.079  0.2127 -0.2253 -0.1683
  853loPI   C6A11958  10.869  15.621   8.280  0.2885  0.2444  0.1035
  853loPI   C1B11959  11.540  15.033   6.505 -0.0802  0.0031 -0.2679
  853loPI   C2B11960  11.519  15.262   6.914 -0.0330 -0.2149 -0.1765
  853loPI   C3B11961  11.409  15.431   7.335 -0.1907  0.0932  0.1426
  853loPI   C4B11962  11.382  15.646   7.800  0.1961  0.2298  0.0256
  854loPI    C111963  17.736   9.986   5.550  0.0376 -0.1788  0.0017
  854loPI    C211964  17.589  10.334   5.418  0.1098 -0.0928  0.1452
  854loPI    C311965  17.927  10.188   5.262  0.2887  0.0946  0.3515
  854loPI   PO411966  17.564  10.059   5.839  0.0726 -0.0178 -0.0592
  854loPI   GL111967  17.465  10.003   6.260 -0.0033 -0.1182  0.0367
  854loPI   GL211968  17.572   9.847   6.480 -0.2086  0.0980  0.5101
  854loPI   C1A11969  17.234  10.373   6.351 -0.1268 -0.1851 -0.0858
  854loPI   C2A11970  17.194  10.458   6.719 -0.0755  0.2690 -0.1205
  854loPI   C3A11971  17.194  10.426   7.193 -0.1061  0.4346 -0.2292
  854loPI   C4A11972  17.274  10.429   7.636  0.1683 -0.3835  0.0963
  854loPI   C5A11973  16.966  10.332   7.928 -0.3541 -0.0021  0.0792
  854loPI   C6A11974  16.536  10.163   8.190  0.1423 -0.1656 -0.3754
  854loPI   C1B11975  17.921   9.875   6.672 -0.0281 -0.0663  0.0480
  854loPI   C2B11976  18.044   9.919   7.161 -0.3731 -0.3524  0.1024
  854loPI   C3B11977  18.109   9.820   7.632  0.0584 -0.0397 -0.0622
  854loPI   C4B11978  18.310   9.614   7.935 -0.0611 -0.1156 -0.2752
  855loPI    C111979  13.904  12.566   5.567  0.2296 -0.0108 -0.4352
  855loPI    C211980  13.728  12.832   5.326  0.1421  0.2324 -0.1100
  855loPI    C311981  14.123  12.847   5.385  0.1053  0.4499  0.0976
  855loPI   PO411982  13.809  12.562   5.730  0.0657 -0.1577  0.0201
  855loPI   GL111983  13.628  12.641   6.118  0.1274 -0.1219  0.0084
  855loPI   GL211984  13.889  12.780   6.294 -0.0045  0.0386  0.3261
  855loPI   C1A11985  13.496  12.814   6.617 -0.1663 -0.3069 -0.1066
  855loPI   C2A11986  13.561  12.716   7.068  0.0128  0.1063  0.1355
  855loPI   C3A11987  13.777  12.589   7.353  0.0203 -0.0618  0.2539
  855loPI   C4A11988  13.932  12.491   7.832 -0.0737  0.4024 -0.0575
  855loPI   C5A11989  13.941  12.130   7.989  0.2530 -0.0888  0.2146
  855loPI   C6A11990  14.123  12.154   8.360 -0.4318 -0.0583 -0.1184
  855loPI   C1B11991  13.962  12.661   6.720  0.0110 -0.1212  0.0068
  855loPI   C2B11992  14.190  12.569   7.067 -0.0520 -0.2035 -0.0211
  855loPI   C3B11993  14.432  12.468   7.348  0.0544  0.1198 -0.1159
  855loPI   C4B11994  14.823  12.623   7.554 -0.0360 -0.1409  0.2341
  856loPI    C111995  11.440  15.073   5.653 -0.1318  0.2443 -0.0173
  856loPI    C211996  11.261  14.772   5.848 -0.1251  0.0962 -0.2363
  856loPI    C311997  11.153  14.860   5.472  0.2255  0.0365 -0.3548
  856loPI   PO411998  11.449  15.282   5.907 -0.3134 -0.1534 -0.0097
  856loPI   GL111999  11.130  15.627   6.231  0.1591 -0.1326 -0.0080
  856loPI   GL212000  11.051  16.017   6.140  0.3400  0.0566  0.0995
  856loPI   C1A12001  11.356  15.539   6.563  0.1857 -0.1527 -0.0936
  856loPI   C2A12002  11.307  15.707   6.944 -0.2875 -0.1335 -0.0544
  856loPI   C3A12003  11.174  15.870   7.355 -0.1121 -0.2066 -0.3457
  856loPI   C4A12004  11.002  15.950   7.760  0.2672  0.3228 -0.1796
  856loPI   C5A12005  10.797  16.128   8.135  0.1219 -0.1544  0.0903
  856loPI   C6A12006  10.790  16.311   8.541 -0.1307  0.0554  0.3216
  856loPI   C1B12007  10.878  15.973   6.555  0.3665 -0.1728 -0.1051
  856loPI   C2B12008  10.851  15.896   6.957  0.1504 -0.1497  0.0754
  856loPI   C3B12009  10.723  15.941   7.381 -0.0407 -0.1023  0.1246
  856loPI   C4B12010  10.504  16.225   7.680 -0.0827  0.0965 -0.1402
  857loPI    C112011  12.704   9.323   5.749 -0.1064  0.0059  0.1235
  857loPI    C212012  12.879   9.122   5.451 -0.1212 -0.0761  0.1697
  857loPI    C312013  12.487   9.202   5.436 -0.1117 -0.0345  0.1427
  857loPI   PO412014  12.823   9.233   5.960  0.1290 -0.1036  0.1605
  857loPI   GL112015  13.069   9.266   6.288  0.1563  0.2617  0.0443
  857loPI   GL212016  13.381   9.313   6.217 -0.0180  0.1596  0.1673
  857loPI   C1A12017  13.106   9.037   6.794  0.2981  0.3610 -0.3497
  857loPI   C2A12018  13.023   8.906   7.353  0.1526 -0.3971  0.1485
  857loPI   C3A12019  13.122   8.667   7.711  0.2875 -0.1984 -0.2028
  857loPI   C4A12020  12.957   8.706   8.129  0.3631  0.1084  0.2203
  857loPI   C5A12021  12.884   8.304   8.408 -0.2140  0.2282 -0.1389
  857loPI   C6A12022  12.966   7.909   8.460  0.0310 -0.0448  0.1561
  857loPI   C1B12023  13.510   9.297   6.690  0.2028  0.1714  0.0716
  857loPI   C2B12024  13.492   9.319   7.059 -0.0082 -0.0195 -0.0166
  857loPI   C3B12025  13.624   9.453   7.408 -0.1261 -0.0368  0.0218
  857loPI   C4B12026  13.653   9.293   7.769  0.1167  0.0852  0.0077
  858loPI    C112027  17.095  11.941   5.635 -0.1697 -0.1133  0.1076
  858loPI    C212028  16.779  12.158   5.746 -0.1245 -0.0520  0.1168
  858loPI    C312029  16.741  11.882   5.460 -0.0821  0.2798 -0.2168
  858loPI   PO412030  17.281  11.737   5.814  0.0819  0.0718  0.0533
  858loPI   GL112031  17.304  11.654   6.161  0.3365  0.1373  0.2249
  858loPI   GL212032  17.477  11.412   6.333 -0.0134 -0.1863  0.0130
  858loPI   C1A12033  17.191  11.800   6.547  0.1144  0.3188  0.0669
  858loPI   C2A12034  17.323  11.791   6.971 -0.1737  0.0923  0.1323
  858loPI   C3A12035  17.470  11.652   7.230 -0.0715 -0.1245 -0.1749
  858loPI   C4A12036  17.557  11.623   7.626  0.2249  0.3383  0.0390
  858loPI   C5A12037  17.649  11.564   8.062 -0.0543  0.0961  0.0986
  858loPI   C6A12038  17.526  11.145   8.271  0.1069 -0.0489  0.1559
  858loPI   C1B12039  17.510  11.251   6.749 -0.2408 -0.0922  0.4262
  858loPI   C2B12040  17.455  11.168   7.208 -0.1148  0.0047  0.1643
  858loPI   C3B12041  17.812  11.154   7.528  0.1249  0.0867  0.0044
  858loPI   C4B12042  17.872  10.994   7.910  0.4311 -0.1088 -0.1524
  859loPI    C112043   6.846   0.618   5.907 -0.3476  0.0585 -0.2087
  859loPI    C212044   7.065   0.940   5.998 -0.2041 -0.1139  0.0719
  859loPI    C312045   6.859   0.928   5.655  0.2411  0.0451 -0.2103
  859loPI   PO412046   6.730   0.524   6.144  0.1806 -0.0514  0.0714
  859loPI   GL112047   6.764   0.299   6.449 -0.0270  0.1853 -0.2712
  859loPI   GL212048   6.777   0.023   6.515 -0.4825 -0.0199  0.0298
  859loPI   C1A12049   6.747   0.381   6.915 -0.1457  0.0860  0.2628
  859loPI   C2A12050   6.798   0.365   7.333  0.1284  0.0249 -0.1024
  859loPI   C3A12051   6.765   0.053   7.708  0.1990  0.2530  0.3067
  859loPI   C4A12052   6.767   0.044   8.190  0.1294 -0.1150 -0.1444
  859loPI   C5A12053   7.048   0.233   8.363 -0.1860 -0.1217 -0.1496
  859loPI   C6A12054   7.128   0.443   8.738 -0.1005  0.2609  0.0589
  859loPI   C1B12055   6.979  -0.085   6.921  0.1346 -0.0362  0.2619
  859loPI   C2B12056   7.015  -0.097   7.331  0.0147  0.2772  0.3005
  859loPI   C3B12057   6.973  -0.375   7.770 -0.1617  0.2500 -0.0232
  859loPI   C4B12058   7.029  -0.625   8.097  0.0981 -0.1314 -0.4316
  860loPI    C112059   0.479  15.432   5.939 -0.0870  0.0394 -0.1975
  860loPI    C212060   0.140  15.258   5.817 -0.1441  0.0324 -0.0315
  860loPI    C312061   0.331  15.515   5.577 -0.3178  0.1090 -0.0890
  860loPI   PO412062   0.428  15.476   6.151 -0.1258 -0.0497 -0.1963
  860loPI   GL112063   0.296  15.299   6.457 -0.0280  0.0659  0.2309
  860loPI   GL212064   0.048  15.248   6.350 -0.0984 -0.2781 -0.1486
  860loPI   C1A12065   0.345  15.182   6.863  0.3512 -0.0301  0.2027
  860loPI   C2A12066   0.361  15.180   7.265 -0.2777  0.0873  0.2223
  860loPI   C3A12067   0.312  15.199   7.697 -0.1846 -0.1139 -0.0484
  860loPI   C4A12068   0.108  15.204   8.006  0.1494  0.0741  0.0751
  860loPI   C5A12069  -0.292  15.074   8.229 -0.1939  0.2940 -0.0693
  860loPI   C6A12070  -0.684  14.968   8.197 -0.3484  0.1119 -0.1800
  860loPI   C1B12071  -0.147  15.136   6.731  0.0466 -0.3555 -0.1568
  860loPI   C2B12072  -0.142  15.288   7.153  0.4098 -0.5378 -0.2967
  860loPI   C3B12073  -0.212  15.060   7.470 -0.2531 -0.2975 -0.1397
  860loPI   C4B12074  -0.494  14.829   7.719 -0.1444  0.1828  0.1727
  861loPI    C112075  13.206  11.957   5.380 -0.0111  0.3451 -0.1034
  861loPI    C212076  12.849  11.893   5.550  0.0307  0.0232 -0.1322
  861loPI    C312077  12.878  11.924   5.152  0.0595 -0.1418 -0.1436
  861loPI   PO412078  13.335  11.755   5.610  0.2451  0.0364 -0.2698
  861loPI   GL112079  13.710  11.733   5.928  0.4155 -0.5336 -0.0089
  861loPI   GL212080  13.356  11.812   6.128 -0.0106 -0.0394  0.3236
  861loPI   C1A12081  13.848  11.728   6.387  0.0334 -0.2200 -0.4194
  861loPI   C2A12082  13.933  11.664   6.831 -0.0703 -0.0619  0.0461
  861loPI   C3A12083  13.867  11.640   7.250 -0.1683 -0.0152 -0.5043
  861loPI   C4A12084  13.785  11.685   7.719  0.1736 -0.0364  0.1014
  861loPI   C5A12085  13.512  11.896   8.009  0.1411  0.1139  0.1254
  861loPI   C6A12086  13.557  12.031   8.381  0.0617  0.0200 -0.0234
  861loPI   C1B12087  13.378  11.930   6.526 -0.0323  0.0513 -0.2287
  861loPI   C2B12088  13.440  11.728   6.907 -0.1967 -0.0814  0.0927
  861loPI   C3B12089  13.388  11.584   7.328  0.1486 -0.0570  0.2182
  861loPI   C4B12090  13.225  11.509   7.789  0.0273 -0.0476 -0.2100
  862loPI    C112091   0.856   8.056   5.568  0.0627 -0.1325 -0.1237
  862loPI    C212092   1.171   8.171   5.787 -0.0744 -0.0495  0.0326
  862loPI    C312093   1.164   8.242   5.394  0.1272 -0.1049  0.0179
  862loPI   PO412094   0.664   8.080   5.762 -0.0255 -0.0013  0.0464
  862loPI   GL112095   0.813   8.150   6.101  0.0984 -0.0752 -0.0922
  862loPI   GL212096   0.972   7.827   6.105 -0.0757 -0.1340 -0.1822
  862loPI   C1A12097   0.681   8.339   6.521 -0.0349 -0.1666 -0.0203
  862loPI   C2A12098   0.434   8.420   6.858 -0.3543  0.1643 -0.0775
  862loPI   C3A12099   0.365   8.552   7.306 -0.2466  0.1405 -0.2168
  862loPI   C4A12100   0.257   8.526   7.857  0.0495  0.0083 -0.0523
  862loPI   C5A12101   0.414   8.745   8.144  0.2661  0.1146 -0.1069
  862loPI   C6A12102   0.660   8.891   8.427 -0.2495  0.4445  0.2123
  862loPI   C1B12103   0.968   7.585   6.455  0.1891  0.1101  0.0735
  862loPI   C2B12104   1.020   7.539   6.956  0.1028  0.0156  0.1397
  862loPI   C3B12105   0.889   7.546   7.421  0.0035 -0.0326  0.2472
  862loPI   C4B12106   0.778   7.837   7.558  0.0240  0.2413  0.0512
  863loPI    C112107   1.477  17.447   6.073  0.1365 -0.1367 -0.0672
  863loPI    C212108   1.231  17.548   5.775 -0.0875  0.2131  0.2274
  863loPI    C312109   1.473  17.823   5.936  0.2725 -0.0531  0.1525
  863loPI   PO412110   1.355  17.337   6.231 -0.5042 -0.1194 -0.0574
  863loPI   GL112111   1.180  17.446   6.692  0.1409  0.1555  0.2217
  863loPI   GL212112   1.430  17.306   6.788 -0.0489 -0.2675 -0.1872
  863loPI   C1A12113   1.162  17.643   7.050  0.0364 -0.0588  0.0221
  863loPI   C2A12114   1.075  17.590   7.425  0.0425 -0.1042 -0.1843
  863loPI   C3A12115   0.981  17.326   7.737  0.2524  0.2890  0.0742
  863loPI   C4A12116   0.515  17.346   7.925  0.0892 -0.3471  0.0031
  863loPI   C5A12117   0.293  17.237   8.330 -0.2955  0.1664  0.3342
  863loPI   C6A12118   0.118  16.897   8.450 -0.0118 -0.1854 -0.1988
  863loPI   C1B12119   1.536  17.347   7.268  0.0872 -0.2786 -0.0830
  863loPI   C2B12120   1.477  17.257   7.658 -0.2061 -0.0028 -0.2497
  863loPI   C3B12121   1.421  17.111   8.091 -0.0447 -0.1501  0.0602
  863loPI   C4B12122   1.408  16.873   8.525 -0.2369  0.3661 -0.0262
  864loPI    C112123   2.186   9.897   5.870  0.2620 -0.1709 -0.2142
  864loPI    C212124   2.023  10.260   5.911  0.2461 -0.2169  0.1705
  864loPI    C312125   2.313  10.199   5.641 -0.2573 -0.0979 -0.4186
  864loPI   PO412126   2.192   9.809   6.150  0.1516  0.1316 -0.0503
  864loPI   GL112127   2.343   9.552   6.444  0.0735 -0.1485  0.2626
  864loPI   GL212128   2.531   9.896   6.540 -0.2975  0.1048 -0.4091
  864loPI   C1A12129   2.044   9.471   6.785  0.0799 -0.0504 -0.0027
  864loPI   C2A12130   2.085   9.457   7.227  0.0752 -0.3806 -0.0643
  864loPI   C3A12131   2.053   9.589   7.624 -0.1474  0.2309 -0.1364
  864loPI   C4A12132   1.990   9.652   8.022 -0.1789 -0.0876  0.1251
  864loPI   C5A12133   2.097   9.867   8.324 -0.1651  0.5247  0.2333
  864loPI   C6A12134   2.305  10.004   8.591 -0.1876  0.2245 -0.0352
  864loPI   C1B12135   2.304   9.992   6.868  0.0606  0.1702 -0.2856
  864loPI   C2B12136   2.340   9.953   7.259  0.0740  0.0722  0.0023
  864loPI   C3B12137   2.200  10.075   7.702  0.1310  0.0410 -0.2122
  864loPI   C4B12138   2.293  10.249   8.084  0.1294  0.1588 -0.2106
  865loPI    C112139   1.286   6.854   5.400  0.1225 -0.0014 -0.0183
  865loPI    C212140   1.259   6.516   5.188  0.0117  0.0805 -0.1361
  865loPI    C312141   1.094   6.853   5.049  0.1062  0.1792 -0.0108
  865loPI   PO412142   1.131   6.740   5.625 -0.3176  0.0627  0.3096
  865loPI   GL112143   1.256   6.600   5.991  0.0247  0.1641  0.0925
  865loPI   GL212144   1.016   6.886   6.092 -0.1506  0.0251  0.1424
  865loPI   C1A12145   1.298   6.674   6.466 -0.4929 -0.1125 -0.0686
  865loPI   C2A12146   1.320   6.677   6.888  0.2236  0.2069 -0.0996
  865loPI   C3A12147   1.289   6.436   7.232 -0.0137  0.2811 -0.3583
  865loPI   C4A12148   1.562   6.373   7.466 -0.1392  0.0464  0.0947
  865loPI   C5A12149   1.730   6.520   7.859 -0.0847 -0.1545 -0.0465
  865loPI   C6A12150   1.951   6.673   8.249  0.0548 -0.1094  0.0505
  865loPI   C1B12151   0.846   7.095   6.490  0.2370  0.0666 -0.1568
  865loPI   C2B12152   0.893   7.014   6.882  0.1730  0.2231 -0.1212
  865loPI   C3B12153   0.972   7.064   7.310 -0.2024 -0.1440  0.2081
  865loPI   C4B12154   0.994   7.139   7.704  0.0232 -0.0109 -0.1335
  866loPI    C112155   7.811   8.534   5.384  0.2180  0.0280 -0.1053
  866loPI    C212156   7.421   8.513   5.299  0.1925  0.1401 -0.0179
  866loPI    C312157   7.631   8.837   5.196  0.2831  0.0420 -0.1455
  866loPI   PO412158   7.818   8.604   5.666  0.2672  0.2457  0.0976
  866loPI   GL112159   7.753   8.574   6.040  0.2540  0.1606 -0.1242
  866loPI   GL212160   7.390   8.678   5.985  0.3210 -0.3872 -0.3518
  866loPI   C1A12161   7.980   8.314   6.333  0.0673  0.1662 -0.1228
  866loPI   C2A12162   8.040   8.264   6.730 -0.0002 -0.0025  0.2822
  866loPI   C3A12163   8.045   8.239   7.119  0.1699 -0.2248 -0.3084
  866loPI   C4A12164   8.154   8.393   7.435  0.1210 -0.0565 -0.2299
  866loPI   C5A12165   8.358   8.562   7.850  0.3744  0.0924 -0.0092
  866loPI   C6A12166   8.743   8.505   8.021 -0.2750 -0.1670 -0.0467
  866loPI   C1B12167   7.538   8.764   6.419 -0.0751 -0.0086  0.1656
  866loPI   C2B12168   7.597   8.666   6.800 -0.2805  0.1013  0.1669
  866loPI   C3B12169   7.695   8.626   7.212  0.0836 -0.0862  0.2077
  866loPI   C4B12170   7.786   8.678   7.649  0.0782  0.1097 -0.1751
  867loPI    C112171  11.284  16.034   5.595  0.2419 -0.4429 -0.0241
  867loPI    C212172  11.551  16.301   5.465 -0.0458 -0.2229 -0.1768
  867loPI    C312173  11.426  16.009   5.221  0.0152 -0.2954 -0.1221
  867loPI   PO412174  11.437  15.989   5.884 -0.0238  0.0763 -0.0093
  867loPI   GL112175  11.486  16.262   6.160  0.4685  0.1499  0.0586
  867loPI   GL212176  11.734  16.231   6.233  0.4004 -0.2916  0.0864
  867loPI   C1A12177  11.308  16.183   6.590 -0.2708  0.2039 -0.2230
  867loPI   C2A12178  11.274  16.227   7.045  0.1358 -0.1900  0.0576
  867loPI   C3A12179  10.948  16.349   7.462 -0.0127 -0.1470  0.0324
  867loPI   C4A12180  10.926  16.538   7.890  0.0919 -0.1639  0.1868
  867loPI   C5A12181  10.822  16.734   8.268  0.3224 -0.0021  0.3044
  867loPI   C6A12182  10.449  16.764   8.527  0.0394  0.3206  0.1998
  867loPI   C1B12183  11.885  16.404   6.746  0.3950  0.2277  0.0997
  867loPI   C2B12184  11.754  16.417   7.255 -0.0765  0.0490 -0.2548
  867loPI   C3B12185  11.512  16.261   7.478 -0.1259 -0.0563  0.0994
  867loPI   C4B12186  11.404  16.227   7.850  0.0951  0.1461  0.0894
  868loPI    C112187  16.845   2.118   5.949  0.0538  0.0333 -0.0423
  868loPI    C212188  16.469   2.019   6.043  0.0302  0.2053  0.0504
  868loPI    C312189  16.636   1.875   5.709 -0.0375 -0.0572  0.1270
  868loPI   PO412190  16.964   2.116   6.264 -0.0046 -0.2620  0.2196
  868loPI   GL112191  17.292   2.121   6.603  0.1844  0.1783 -0.1284
  868loPI   GL212192  17.060   2.382   6.611  0.1234 -0.3593  0.1005
  868loPI   C1A12193  17.088   1.921   6.944  0.1789  0.0238 -0.2473
  868loPI   C2A12194  17.013   1.605   7.288 -0.2366 -0.2431  0.3938
  868loPI   C3A12195  17.129   1.553   7.701 -0.1046 -0.0346  0.2974
  868loPI   C4A12196  17.119   1.444   8.109 -0.0665  0.1151 -0.5180
  868loPI   C5A12197  16.788   1.415   8.588 -0.2629  0.1629  0.1054
  868loPI   C6A12198  16.334   1.381   8.614  0.0479 -0.0835  0.1510
  868loPI   C1B12199  17.150   2.447   7.066 -0.0910 -0.0061 -0.1000
  868loPI   C2B12200  17.003   2.660   7.447 -0.1757 -0.0587 -0.1882
  868loPI   C3B12201  16.855   2.823   7.776 -0.0107  0.2208 -0.0614
  868loPI   C4B12202  16.662   2.824   8.154  0.0296 -0.1199  0.1687
  869loPI    C112203   2.215   1.109   6.094  0.0283 -0.0620 -0.0808
  869loPI    C212204   2.325   0.741   5.983  0.3074 -0.0355  0.0979
  869loPI    C312205   2.453   1.058   5.776  0.0800 -0.0361 -0.0465
  869loPI   PO412206   2.266   1.164   6.323  0.0932 -0.4289  0.1728
  869loPI   GL112207   2.426   0.987   6.591  0.1231  0.0097  0.1558
  869loPI   GL212208   2.160   0.669   6.440  0.0681 -0.2616  0.2000
  869loPI   C1A12209   2.570   1.081   6.946 -0.0306  0.1920  0.1160
  869loPI   C2A12210   2.395   1.202   7.421  0.0388  0.1390 -0.1026
  869loPI   C3A12211   2.529   1.487   7.653 -0.1747 -0.0774 -0.1852
  869loPI   C4A12212   2.681   1.527   7.986 -0.0455  0.0231 -0.1980
  869loPI   C5A12213   2.790   1.823   8.319  0.3935  0.3609 -0.0097
  869loPI   C6A12214   2.714   2.197   8.513 -0.1860  0.2639  0.3417
  869loPI   C1B12215   2.057   0.707   6.829  0.1085 -0.2662 -0.0906
  869loPI   C2B12216   2.111   0.892   7.151 -0.2810  0.1740 -0.1519
  869loPI   C3B12217   2.114   0.852   7.648 -0.1388 -0.0714  0.0726
  869loPI   C4B12218   2.042   0.650   7.940  0.1257  0.2978  0.1312
  870loPI    C112219   0.502  11.310   5.491 -0.0704  0.4091  0.1158
  870loPI    C212220   0.371  11.099   5.177 -0.2392 -0.2499  0.6052
  870loPI    C312221   0.324  11.497   5.185  0.1051 -0.1620 -0.3548
  870loPI   PO412222   0.415  11.195   5.710  0.1094 -0.0323 -0.2044
  870loPI   GL112223   0.503  11.335   6.188  0.3917 -0.4247 -0.0253
  870loPI   GL212224   0.752  11.259   6.110 -0.0335  0.2522 -0.0388
  870loPI   C1A12225   0.411  10.995   6.388 -0.2701 -0.0150  0.0509
  870loPI   C2A12226   0.088  10.810   6.549 -0.0089  0.0289 -0.2673
  870loPI   C3A12227  -0.134  10.800   7.029  0.3378  0.0552  0.1805
  870loPI   C4A12228  -0.127  10.733   7.386 -0.0264 -0.1215  0.3101
  870loPI   C5A12229  -0.030  10.541   7.595 -0.0407 -0.2752  0.0069
  870loPI   C6A12230  -0.028  10.347   7.929 -0.2389 -0.0380 -0.1497
  870loPI   C1B12231   0.869  11.104   6.551 -0.1170  0.1821 -0.0574
  870loPI   C2B12232   0.818  10.937   6.971  0.2557 -0.1137 -0.1324
  870loPI   C3B12233   0.846  10.664   7.145  0.4466 -0.2376  0.1223
  870loPI   C4B12234   0.984  10.546   7.527 -0.1642  0.0106  0.1292
  871loPI    C112235  10.580   3.944   5.769  0.0838 -0.1553 -0.0822
  871loPI    C212236  10.784   4.243   5.938  0.0125 -0.0389 -0.2008
  871loPI    C312237  10.825   4.169   5.547  0.1653 -0.2973 -0.1376
  871loPI   PO412238  10.251   3.894   5.882  0.2745 -0.0365  0.0312
  871loPI   GL112239  10.236   3.512   6.185  0.0264 -0.2338  0.0899
  871loPI   GL212240   9.871   3.392   6.236  0.0120  0.0204 -0.0056
  871loPI   C1A12241  10.287   3.540   6.609 -0.0895  0.1536  0.0562
  871loPI   C2A12242  10.168   3.436   6.912  0.3711  0.0746  0.0855
  871loPI   C3A12243  10.284   3.572   7.352 -0.1499 -0.0904  0.2902
  871loPI   C4A12244  10.124   3.722   7.629 -0.1260  0.0092  0.2193
  871loPI   C5A12245  10.120   3.704   8.159  0.2987  0.1233  0.0472
  871loPI   C6A12246  10.353   3.413   8.439 -0.0265 -0.0340 -0.0064
  871loPI   C1B12247   9.639   3.231   6.550  0.1970 -0.2010 -0.1796
  871loPI   C2B12248   9.631   3.300   6.970 -0.0521 -0.0965  0.0501
  871loPI   C3B12249   9.800   3.461   7.321 -0.0092  0.1519 -0.1203
  871loPI   C4B12250   9.937   3.253   7.705 -0.0520 -0.0663  0.2256
  872loPI    C112251  15.610   6.617   5.696 -0.2537 -0.3098  0.0469
  872loPI    C212252  15.474   6.322   5.463 -0.1138 -0.1937 -0.1855
  872loPI    C312253  15.599   6.665   5.299 -0.0729 -0.0858  0.0668
  872loPI   PO412254  15.373   6.621   5.832  0.3932 -0.2314 -0.0422
  872loPI   GL112255  15.369   6.635   6.260  0.2488 -0.0328  0.4423
  872loPI   GL212256  15.168   6.370   6.439 -0.3032  0.2492 -0.2051
  872loPI   C1A12257  15.463   6.665   6.729  0.0166  0.2378  0.2335
  872loPI   C2A12258  15.348   6.580   7.098  0.0039  0.0270 -0.2744
  872loPI   C3A12259  15.275   6.758   7.432 -0.0203 -0.1749 -0.0553
  872loPI   C4A12260  15.305   6.800   7.894 -0.1260 -0.1871 -0.0173
  872loPI   C5A12261  15.196   6.992   8.129  0.1251  0.0967 -0.1626
  872loPI   C6A12262  14.762   7.284   8.119  0.1524 -0.1567 -0.2809
  872loPI   C1B12263  14.961   6.406   6.814 -0.0547 -0.1387  0.0636
  872loPI   C2B12264  14.877   6.385   7.304 -0.0433 -0.0597 -0.0863
  872loPI   C3B12265  14.955   6.539   7.718 -0.0420  0.0529  0.1045
  872loPI   C4B12266  14.974   6.464   8.126 -0.2415  0.3426 -0.1630
  873loPI    C112267   2.341  15.605   5.675 -0.1448  0.0433  0.0626
  873loPI    C212268   1.956  15.706   5.722 -0.1883  0.0870 -0.3494
  873loPI    C312269   2.069  15.491   5.404  0.1056 -0.0636 -0.1475
  873loPI   PO412270   2.320  15.458   6.008 -0.0328  0.1360 -0.0131
  873loPI   GL112271   2.257  15.511   6.494 -0.1446 -0.1254 -0.0587
  873loPI   GL212272   2.582  15.552   6.436  0.0520  0.1824  0.1444
  873loPI   C1A12273   2.042  15.542   6.863 -0.0758  0.0656 -0.0159
  873loPI   C2A12274   2.074  15.545   7.349 -0.0375  0.2386  0.0093
  873loPI   C3A12275   2.145  15.663   7.739 -0.0491  0.1755  0.3424
  873loPI   C4A12276   2.059  15.643   8.251 -0.3348 -0.1049  0.1566
  873loPI   C5A12277   1.685  15.626   8.455  0.1613 -0.0741 -0.0274
  873loPI   C6A12278   1.378  15.297   8.583  0.1740  0.0772 -0.2216
  873loPI   C1B12279   2.602  15.771   6.885  0.2106  0.3094  0.0281
  873loPI   C2B12280   2.433  15.920   7.266 -0.1566 -0.0579  0.2284
  873loPI   C3B12281   2.458  16.055   7.668 -0.0039  0.1487  0.0423
  873loPI   C4B12282   2.337  16.067   8.084 -0.0410  0.4291  0.3233
  874loPI    C112283   7.250   4.855   5.382 -0.2352 -0.4662  0.0283
  874loPI    C212284   7.241   5.093   5.060  0.0595 -0.1195  0.2680
  874loPI    C312285   7.431   4.741   5.044  0.2842  0.0061  0.1327
  874loPI   PO412286   7.396   5.005   5.569 -0.2294  0.2159  0.1388
  874loPI   GL112287   7.561   5.114   5.977 -0.1488 -0.1687  0.0335
  874loPI   GL212288   7.304   4.871   6.046 -0.3550  0.0583 -0.1646
  874loPI   C1A12289   7.547   5.240   6.412 -0.1781 -0.0910 -0.0907
  874loPI   C2A12290   7.488   5.142   6.835  0.1299  0.1717 -0.0695
  874loPI   C3A12291   7.725   5.131   7.270 -0.0303 -0.0062  0.4163
  874loPI   C4A12292   8.010   5.097   7.627  0.2249 -0.1390 -0.2957
  874loPI   C5A12293   7.907   4.908   8.081  0.3195  0.3668  0.1408
  874loPI   C6A12294   7.802   4.691   8.384  0.2141 -0.1864 -0.2484
  874loPI   C1B12295   7.293   4.815   6.478  0.4255  0.2941 -0.0647
  874loPI   C2B12296   7.357   4.690   7.066  0.2291 -0.2006  0.0498
  874loPI   C3B12297   7.246   4.715   7.496  0.0273 -0.0810 -0.2957
  874loPI   C4B12298   6.964   4.832   7.859 -0.2479 -0.0729 -0.0168
  875loPI    C112299  14.250  10.015   5.525 -0.0386  0.1757  0.0139
  875loPI    C212300  14.434  10.273   5.280  0.0816 -0.0316 -0.1174
  875loPI    C312301  14.479   9.879   5.227 -0.1724 -0.0828  0.0261
  875loPI   PO412302  14.329  10.053   5.856 -0.0201  0.2144 -0.0487
  875loPI   GL112303  14.328  10.298   6.237 -0.0600 -0.2130 -0.5381
  875loPI   GL212304  14.505  10.584   6.320 -0.1294  0.1421  0.0254
  875loPI   C1A12305  14.324  10.288   6.726 -0.2390 -0.2247  0.0567
  875loPI   C2A12306  14.411  10.333   7.200 -0.2026  0.1717 -0.0235
  875loPI   C3A12307  14.602  10.490   7.499 -0.1047 -0.1665 -0.1585
  875loPI   C4A12308  14.845  10.499   7.807  0.0921 -0.0961  0.1463
  875loPI   C5A12309  15.004  10.741   8.093  0.1700 -0.0779  0.0002
  875loPI   C6A12310  15.451  10.882   8.314 -0.1792  0.0325 -0.2309
  875loPI   C1B12311  14.556  10.699   6.728 -0.0589 -0.0654  0.1577
  875loPI   C2B12312  14.534  10.823   7.186 -0.1993 -0.1358  0.0161
  875loPI   C3B12313  14.388  11.151   7.564 -0.1065  0.0430  0.1256
  875loPI   C4B12314  14.514  11.571   7.807 -0.0315 -0.1215  0.1450
  876loPI    C112315   1.658   9.047   5.659 -0.0031  0.2975 -0.0739
  876loPI    C212316   1.999   8.881   5.786 -0.0985  0.0616 -0.1192
  876loPI    C312317   1.798   8.716   5.482 -0.3344  0.1077  0.0089
  876loPI   PO412318   1.655   9.195   5.858 -0.0679  0.0952  0.1573
  876loPI   GL112319   1.844   9.163   6.195  0.0956  0.1458  0.1504
  876loPI   GL212320   1.899   9.384   6.347  0.3350  0.2715  0.2354
  876loPI   C1A12321   1.883   8.888   6.595  0.0232 -0.1123 -0.0128
  876loPI   C2A12322   1.874   9.023   7.058 -0.1629 -0.0674  0.1946
  876loPI   C3A12323   2.053   8.997   7.457  0.1185  0.3174 -0.4653
  876loPI   C4A12324   2.234   8.761   7.787  0.2174  0.1152  0.0513
  876loPI   C5A12325   2.327   8.348   7.969 -0.1699  0.2166  0.0754
  876loPI   C6A12326   2.473   7.990   7.896  0.0663  0.2182  0.2878
  876loPI   C1B12327   1.603   9.328   6.673 -0.0475  0.3407 -0.1890
  876loPI   C2B12328   1.572   9.347   7.117 -0.1083  0.1175  0.0529
  876loPI   C3B12329   1.574   9.254   7.584  0.1609  0.1110  0.1106
  876loPI   C4B12330   1.390   9.004   7.940 -0.0320  0.0965  0.0403
  877loPI    C112331   9.016  13.517   6.108  0.0265 -0.2588  0.1512
  877loPI    C212332   9.073  13.353   5.748 -0.0277  0.2069 -0.0779
  877loPI    C312333   9.352  13.593   5.904 -0.0267  0.0467  0.1728
  877loPI   PO412334   8.828  13.668   6.138 -0.0285  0.1304  0.0596
  877loPI   GL112335   8.541  13.734   6.485 -0.0180  0.4759 -0.3475
  877loPI   GL212336   8.298  13.712   6.721  0.1869 -0.0316 -0.2526
  877loPI   C1A12337   8.911  13.574   6.806  0.0280 -0.0230  0.0035
  877loPI   C2A12338   8.930  13.550   7.224  0.1551 -0.2859 -0.1784
  877loPI   C3A12339   9.207  13.422   7.612  0.2112  0.4279  0.1157
  877loPI   C4A12340   9.331  13.240   7.964 -0.1407  0.1067  0.1617
  877loPI   C5A12341   9.154  12.880   8.126  0.2436 -0.3585 -0.2443
  877loPI   C6A12342   8.845  12.566   8.261  0.4541 -0.4455 -0.2113
  877loPI   C1B12343   8.493  13.710   7.073  0.1905  0.1318  0.2226
  877loPI   C2B12344   8.499  13.530   7.503 -0.1550 -0.0465  0.1584
  877loPI   C3B12345   8.661  13.472   7.977 -0.0950  0.0018  0.0302
  877loPI   C4B12346   8.715  13.051   8.192 -0.0478 -0.0649 -0.0591
  878loPI    C112347   9.859  11.299   5.545 -0.4583  0.1624  0.2329
  878loPI    C212348  10.174  11.117   5.379 -0.4180  0.1589  0.3126
  878loPI    C312349   9.961  11.381   5.167 -0.2823  0.2594  0.3003
  878loPI   PO412350   9.910  11.423   5.783  0.2702 -0.0611 -0.1863
  878loPI   GL112351  10.000  11.559   6.182 -0.1167  0.3934  0.1002
  878loPI   GL212352   9.790  11.839   6.355  0.0681 -0.0224 -0.0489
  878loPI   C1A12353  10.224  11.496   6.576 -0.1127 -0.2136  0.0748
  878loPI   C2A12354  10.269  11.566   7.018  0.0738  0.1317 -0.1381
  878loPI   C3A12355  10.216  11.652   7.447  0.0837 -0.2566 -0.1248
  878loPI   C4A12356  10.273  11.720   7.919  0.0014  0.2705 -0.0006
  878loPI   C5A12357  10.594  11.913   8.075  0.1625  0.1558  0.0154
  878loPI   C6A12358  11.032  11.790   8.103 -0.0454  0.0868 -0.0768
  878loPI   C1B12359   9.837  11.897   6.759  0.3025  0.0192  0.1740
  878loPI   C2B12360   9.967  11.952   7.189 -0.2540 -0.0581 -0.3853
  878loPI   C3B12361   9.759  12.055   7.682  0.0970 -0.1114 -0.1567
  878loPI   C4B12362   9.695  11.921   8.069 -0.0318 -0.0510 -0.2622
  879loPI    C112363  17.344  10.821   5.533  0.0180 -0.1784  0.1303
  879loPI    C212364  17.005  10.947   5.362  0.2883 -0.0047 -0.2950
  879loPI    C312365  17.072  10.555   5.409 -0.0599 -0.0354 -0.0089
  879loPI   PO412366  17.360  10.928   5.755 -0.1890 -0.0872  0.2346
  879loPI   GL112367  17.264  10.816   6.166 -0.2480 -0.1257 -0.2108
  879loPI   GL212368  17.113  11.117   6.151  0.1681 -0.2009 -0.4084
  879loPI   C1A12369  17.441  10.820   6.560  0.2137  0.3750 -0.3064
  879loPI   C2A12370  17.109  10.888   7.018 -0.1924  0.1195 -0.2583
  879loPI   C3A12371  17.156  10.884   7.451 -0.1439  0.0380  0.3957
  879loPI   C4A12372  17.365  11.127   7.762  0.2685 -0.1684  0.0505
  879loPI   C5A12373  17.156  11.435   8.188 -0.2575 -0.2142  0.1010
  879loPI   C6A12374  16.809  11.446   8.482 -0.0331 -0.2631 -0.0593
  879loPI   C1B12375  16.927  11.350   6.493 -0.4414 -0.0939  0.1247
  879loPI   C2B12376  17.074  11.360   6.852  0.2302  0.2807  0.1385
  879loPI   C3B12377  17.030  11.463   7.241  0.0633 -0.3889 -0.1286
  879loPI   C4B12378  17.089  11.450   7.608  0.3592 -0.0923  0.0095
  880loPI    C112379   6.885   7.942   5.430  0.1447 -0.0258 -0.0339
  880loPI    C212380   7.047   7.651   5.209 -0.1195 -0.1889 -0.0172
  880loPI    C312381   6.934   7.994   5.037  0.1001 -0.1333 -0.0539
  880loPI   PO412382   7.037   8.025   5.593 -0.0309 -0.1331  0.1098
  880loPI   GL112383   6.981   8.278   6.029  0.0375 -0.2254  0.2928
  880loPI   GL212384   7.021   7.958   6.099  0.2837  0.0537 -0.2183
  880loPI   C1A12385   7.084   8.515   6.328 -0.1379 -0.2765 -0.3010
  880loPI   C2A12386   7.135   8.446   6.692 -0.2350  0.1130  0.0033
  880loPI   C3A12387   7.229   8.474   7.099  0.3195  0.0311 -0.4277
  880loPI   C4A12388   7.291   8.502   7.531 -0.0434  0.1388  0.3373
  880loPI   C5A12389   7.294   8.609   7.815  0.0149 -0.0367 -0.0768
  880loPI   C6A12390   7.032   8.484   8.126 -0.2722  0.2848 -0.0090
  880loPI   C1B12391   7.079   7.967   6.539  0.1852 -0.0752 -0.1654
  880loPI   C2B12392   7.081   8.013   6.991  0.0591 -0.1686  0.0091
  880loPI   C3B12393   7.137   8.048   7.356  0.1651  0.2172 -0.1547
  880loPI   C4B12394   7.015   8.075   7.681  0.1137 -0.0041  0.0396
  881loPI    C112395  14.121  10.819   5.758 -0.1169  0.0495  0.1487
  881loPI    C212396  14.402  10.537   5.722  0.0497  0.2368 -0.0435
  881loPI    C312397  14.043  10.485   5.553  0.0335  0.0825  0.0366
  881loPI   PO412398  14.132  10.877   6.043  0.2522 -0.1252 -0.0458
  881loPI   GL112399  13.902  10.753   6.470  0.2409  0.4674  0.2407
  881loPI   GL212400  13.610  10.618   6.409 -0.0429  0.3610  0.0858
  881loPI   C1A12401  14.083  10.714   6.858 -0.0004 -0.0934  0.2213
  881loPI   C2A12402  14.029  10.780   7.378 -0.1387  0.0227  0.1046
  881loPI   C3A12403  14.216  10.689   7.799  0.1125  0.0609 -0.3071
  881loPI   C4A12404  14.470  10.527   8.161  0.3198  0.2078  0.0350
  881loPI   C5A12405  14.873  10.355   8.343 -0.2393 -0.5023  0.0061
  881loPI   C6A12406  15.280  10.441   8.531  0.1114  0.0834 -0.0647
  881loPI   C1B12407  13.632  10.540   6.815  0.3105 -0.0609 -0.4182
  881loPI   C2B12408  13.604  10.581   7.262 -0.1360 -0.0329 -0.1979
  881loPI   C3B12409  13.596  10.586   7.729 -0.1566  0.3149 -0.0997
  881loPI   C4B12410  13.305  10.694   8.053 -0.2326 -0.0634 -0.2697
  882loPI    C112411   5.909   0.632   6.025 -0.1974 -0.0561  0.1449
  882loPI    C212412   6.022   1.010   5.962  0.1896 -0.1773  0.0862
  882loPI    C312413   5.897   0.785   5.655 -0.2981 -0.0223  0.1617
  882loPI   PO412414   6.085   0.463   6.138 -0.1387 -0.0396  0.0429
  882loPI   GL112415   6.196   0.642   6.418 -0.1986 -0.2176  0.2526
  882loPI   GL212416   5.962   0.844   6.468  0.0174 -0.0334  0.1192
  882loPI   C1A12417   6.277   0.536   6.762 -0.0370 -0.1114  0.0037
  882loPI   C2A12418   6.271   0.560   7.237 -0.1589 -0.0188 -0.1722
  882loPI   C3A12419   6.072   0.574   7.568 -0.2346 -0.0576  0.1544
  882loPI   C4A12420   5.924   0.358   7.987 -0.1383  0.2375 -0.1979
  882loPI   C5A12421   5.762   0.122   8.311 -0.0583 -0.0061 -0.0381
  882loPI   C6A12422   5.742  -0.081   8.800 -0.0657  0.3527 -0.0218
  882loPI   C1B12423   5.960   0.986   6.873  0.2284 -0.2050  0.1489
  882loPI   C2B12424   5.998   0.988   7.226 -0.3250 -0.2414  0.0421
  882loPI   C3B12425   6.079   1.037   7.666 -0.1952  0.1413 -0.1552
  882loPI   C4B12426   5.887   0.932   8.035  0.0132 -0.2680  0.1034
  883loPI    C112427  12.313  15.567   5.580  0.0027  0.2939 -0.2928
  883loPI    C212428  12.516  15.267   5.410  0.1958  0.0903  0.2756
  883loPI    C312429  12.681  15.631   5.435  0.1321  0.1431 -0.0377
  883loPI   PO412430  12.270  15.461   5.880  0.0924  0.1987 -0.1501
  883loPI   GL112431  11.929  15.268   6.143 -0.1211  0.0739  0.1454
  883loPI   GL212432  12.095  14.918   6.286  0.2672 -0.1588 -0.0366
  883loPI   C1A12433  12.001  15.190   6.680 -0.2125 -0.0162  0.0481
  883loPI   C2A12434  11.921  15.291   7.172 -0.0943 -0.0176 -0.3082
  883loPI   C3A12435  11.881  15.384   7.527  0.1552 -0.0731 -0.1030
  883loPI   C4A12436  11.755  15.318   7.930  0.0276  0.1026 -0.3003
  883loPI   C5A12437  11.576  15.616   8.249  0.0404 -0.1508 -0.0350
  883loPI   C6A12438  11.253  15.980   8.348 -0.2133 -0.2550  0.0863
  883loPI   C1B12439  12.238  14.589   6.590  0.1485  0.3181  0.0736
  883loPI   C2B12440  12.262  14.503   7.005  0.2952  0.0595 -0.0809
  883loPI   C3B12441  12.406  14.519   7.499 -0.2855 -0.1846 -0.0708
  883loPI   C4B12442  12.189  14.506   7.899 -0.1887  0.0621  0.1431
  884loPI    C112443  13.839   9.130   5.534  0.1485 -0.0339 -0.2223
  884loPI    C212444  13.663   8.777   5.467 -0.0438  0.0311 -0.0686
  884loPI    C312445  13.462   9.116   5.399  0.0490  0.1075  0.0351
  884loPI   PO412446  13.987   9.081   5.789 -0.0452  0.5008  0.1882
  884loPI   GL112447  14.185   9.188   6.095 -0.1326  0.0804  0.3911
  884loPI   GL212448  13.941   9.360   6.244  0.2208  0.1046 -0.1641
  884loPI   C1A12449  14.360   9.379   6.476 -0.0795  0.0110 -0.2374
  884loPI   C2A12450  14.322   9.380   6.905  0.2100 -0.0169  0.1988
  884loPI   C3A12451  14.327   9.510   7.347 -0.0090  0.1489 -0.0902
  884loPI   C4A12452  14.378   9.636   7.807  0.0511  0.2521 -0.3465
  884loPI   C5A12453  14.228   9.442   8.135 -0.1803 -0.1955  0.0345
  884loPI   C6A12454  13.813   9.430   8.294  0.1848  0.0869  0.1413
  884loPI   C1B12455  13.950   9.591   6.679  0.1428  0.0176  0.2236
  884loPI   C2B12456  13.917   9.646   7.073 -0.1057 -0.1699  0.0796
  884loPI   C3B12457  13.973   9.827   7.443  0.2933 -0.1057  0.3268
  884loPI   C4B12458  13.836   9.777   7.785 -0.0869 -0.1317 -0.0718
  885loPI    C112459   2.846   0.409   6.130 -0.0919  0.0076  0.0914
  885loPI    C212460   2.638   0.423   5.789  0.0561  0.2180  0.0077
  885loPI    C312461   2.994   0.240   5.799  0.0236  0.1579  0.0648
  885loPI   PO412462   2.700   0.607   6.276  0.1901 -0.0918 -0.1608
  885loPI   GL112463   2.862   0.766   6.680  0.1306  0.0575  0.2276
  885loPI   GL212464   3.110   0.565   6.555 -0.0299  0.3499  0.1529
  885loPI   C1A12465   3.001   0.829   7.100 -0.1286  0.0800  0.1206
  885loPI   C2A12466   2.867   1.067   7.456 -0.0597  0.0974 -0.0248
  885loPI   C3A12467   2.771   0.928   7.822 -0.1155 -0.0418 -0.0301
  885loPI   C4A12468   2.434   1.057   7.988  0.1102  0.0282  0.1330
  885loPI   C5A12469   2.172   1.512   7.936  0.0385 -0.3261 -0.2071
  885loPI   C6A12470   2.258   1.847   8.239  0.1899 -0.0028 -0.1092
  885loPI   C1B12471   3.110   0.394   6.928 -0.0522  0.3753 -0.0742
  885loPI   C2B12472   3.126   0.391   7.316 -0.4881 -0.0530  0.1139
  885loPI   C3B12473   3.102   0.627   7.677  0.1521  0.0995  0.0627
  885loPI   C4B12474   3.039   0.640   8.178  0.0888  0.2960 -0.3638
  886loPI    C112475   6.221   7.835   6.031  0.2020 -0.2017  0.2210
  886loPI    C212476   6.173   7.613   5.701 -0.1884  0.0730  0.0854
  886loPI    C312477   6.458   7.894   5.715 -0.2870  0.1833 -0.0892
  886loPI   PO412478   6.027   7.867   6.108  0.0050  0.0740 -0.1003
  886loPI   GL112479   5.666   7.878   6.362 -0.1740  0.0261  0.2750
  886loPI   GL212480   5.801   7.531   6.430 -0.1523 -0.3003 -0.1237
  886loPI   C1A12481   5.667   8.031   6.761  0.4200 -0.1180  0.1717
  886loPI   C2A12482   5.697   8.053   7.195 -0.5046  0.1511 -0.0702
  886loPI   C3A12483   5.953   7.833   7.488  0.0520  0.0823  0.1505
  886loPI   C4A12484   6.070   7.890   7.808  0.1245  0.0175 -0.0463
  886loPI   C5A12485   5.695   7.958   8.086 -0.0926  0.3580 -0.1227
  886loPI   C6A12486   5.402   8.229   8.337 -0.2093 -0.0388  0.0972
  886loPI   C1B12487   6.155   7.422   6.794 -0.0087 -0.3055  0.2919
  886loPI   C2B12488   6.257   7.467   7.303  0.1290 -0.1148  0.0731
  886loPI   C3B12489   6.393   7.506   7.674  0.0307  0.1357 -0.0298
  886loPI   C4B12490   6.618   7.680   8.003  0.1468  0.0596 -0.1711
  887loPI    C112491   6.741   5.713   5.651 -0.0558  0.1750 -0.2203
  887loPI    C212492   6.640   5.791   5.272 -0.0400  0.2258 -0.2141
  887loPI    C312493   6.360   5.794   5.558 -0.0714  0.0770 -0.2426
  887loPI   PO412494   7.021   5.832   5.646  0.2007  0.0665  0.2175
  887loPI   GL112495   7.154   5.569   6.014 -0.3922 -0.2244  0.4098
  887loPI   GL212496   7.358   5.698   6.277  0.2035  0.1748 -0.1212
  887loPI   C1A12497   7.003   5.323   6.277  0.0222 -0.2102  0.1475
  887loPI   C2A12498   6.994   5.148   6.673  0.0775 -0.2213 -0.2028
  887loPI   C3A12499   6.957   4.988   7.101  0.0334 -0.0853  0.1298
  887loPI   C4A12500   6.815   5.125   7.487 -0.0159 -0.2969 -0.1504
  887loPI   C5A12501   6.480   4.822   7.732  0.2715 -0.0543  0.1902
  887loPI   C6A12502   6.010   4.746   7.901  0.0444 -0.0870 -0.1456
  887loPI   C1B12503   7.277   5.588   6.662 -0.0072 -0.0970 -0.3833
  887loPI   C2B12504   7.134   5.488   6.964 -0.1705  0.0902  0.0913
  887loPI   C3B12505   7.305   5.360   7.384 -0.0608 -0.1596 -0.1280
  887loPI   C4B12506   7.449   5.101   7.723 -0.1001 -0.2821 -0.0295
  888loPI    C112507   0.832   3.631   5.912 -0.0814  0.1123 -0.1640
  888loPI    C212508   0.869   4.001   5.764 -0.0219  0.1212 -0.1273
  888loPI    C312509   0.506   3.840   5.810 -0.0538  0.2152 -0.0444
  888loPI   PO412510   0.981   3.622   6.202  0.3995 -0.2278 -0.0107
  888loPI   GL112511   0.905   3.440   6.533 -0.3811 -0.0782  0.1698
  888loPI   GL212512   0.988   3.158   6.635 -0.2465  0.1958  0.2261
  888loPI   C1A12513   0.845   3.588   6.902  0.1593  0.3248  0.1848
  888loPI   C2A12514   0.834   3.549   7.341  0.0778 -0.0718  0.0412
  888loPI   C3A12515   0.814   3.545   7.741  0.2008 -0.2670  0.1078
  888loPI   C4A12516   0.532   3.347   8.063 -0.0303  0.2710  0.1015
  888loPI   C5A12517   0.099   3.261   8.196 -0.4547 -0.0088 -0.3200
  888loPI   C6A12518  -0.326   3.418   8.059 -0.1158 -0.0033  0.0728
  888loPI   C1B12519   0.963   3.074   7.085 -0.1536  0.1101 -0.1733
  888loPI   C2B12520   1.014   2.967   7.511  0.2342  0.0517 -0.4405
  888loPI   C3B12521   0.973   3.015   7.883 -0.0183 -0.0084 -0.2915
  888loPI   C4B12522   0.943   3.180   8.317  0.0855  0.0772  0.0765
  889loPI    C112523   8.046  12.925   5.994  0.1725  0.1703  0.0375
  889loPI    C212524   8.367  12.934   6.233  0.3540 -0.0658 -0.1924
  889loPI    C312525   8.303  12.619   5.995 -0.0222  0.0030 -0.1880
  889loPI   PO412526   7.791  12.987   6.168  0.0122 -0.1558  0.0596
  889loPI   GL112527   7.808  13.008   6.619  0.2315  0.1767  0.1297
  889loPI   GL212528   7.441  12.837   6.688 -0.0289  0.0981  0.1873
  889loPI   C1A12529   8.020  13.254   6.973 -0.1282  0.1332  0.2754
  889loPI   C2A12530   8.046  13.218   7.400  0.1057  0.1320 -0.0720
  889loPI   C3A12531   8.208  13.179   7.883 -0.2135  0.0621  0.2148
  889loPI   C4A12532   8.205  13.210   8.283 -0.0344  0.0477 -0.2177
  889loPI   C5A12533   8.196  13.390   8.730  0.0289  0.1612  0.0305
  889loPI   C6A12534   8.408  13.434   9.123 -0.0108 -0.3038 -0.1035
  889loPI   C1B12535   7.633  12.962   7.134 -0.3365  0.3008 -0.2605
  889loPI   C2B12536   7.669  12.890   7.504 -0.1440  0.1685 -0.5368
  889loPI   C3B12537   7.569  12.796   7.954  0.0563  0.1501 -0.2486
  889loPI   C4B12538   7.505  12.388   8.163  0.0919  0.1595 -0.0298
  890loPI    C112539   1.135  10.493   5.729  0.0908 -0.0317 -0.0609
  890loPI    C212540   0.747  10.403   5.688 -0.0195  0.3365  0.1359
  890loPI    C312541   0.982  10.425   5.366 -0.1354  0.0068  0.0251
  890loPI   PO412542   1.203  10.584   5.918  0.0546 -0.1594  0.0037
  890loPI   GL112543   1.127  10.872   6.202  0.0431  0.1970 -0.0427
  890loPI   GL212544   1.306  11.114   6.195 -0.1026 -0.3195  0.0354
  890loPI   C1A12545   1.072  10.621   6.668  0.0323 -0.2044  0.0480
  890loPI   C2A12546   1.294  10.671   6.956 -0.1671  0.0599 -0.0926
  890loPI   C3A12547   1.391  10.742   7.321 -0.2204  0.0496  0.3189
  890loPI   C4A12548   1.583  10.809   7.716  0.0894 -0.1616  0.0855
  890loPI   C5A12549   1.862  10.507   8.011  0.0497 -0.1513 -0.3098
  890loPI   C6A12550   1.861  10.458   8.454 -0.4779 -0.2031  0.1535
  890loPI   C1B12551   1.512  10.851   6.531  0.1670 -0.1582 -0.0940
  890loPI   C2B12552   1.823  10.857   6.887  0.3291 -0.1868  0.0531
  890loPI   C3B12553   1.745  11.137   7.318 -0.2505  0.1088 -0.1046
  890loPI   C4B12554   1.461  11.324   7.655  0.2712  0.1934  0.0027
  891loPI    C112555   8.243  10.388   5.369  0.1653 -0.1934 -0.0060
  891loPI    C212556   8.016  10.077   5.262  0.0146 -0.0706 -0.0465
  891loPI    C312557   8.385  10.116   5.112  0.0151 -0.2023 -0.0806
  891loPI   PO412558   8.178  10.378   5.664 -0.1625 -0.1024  0.1278
  891loPI   GL112559   8.107  10.286   5.973 -0.1176 -0.1519 -0.3841
  891loPI   GL212560   8.249  10.704   6.048 -0.0473  0.0657 -0.2268
  891loPI   C1A12561   8.158  10.288   6.483  0.0945 -0.2492 -0.0181
  891loPI   C2A12562   8.014  10.356   6.875 -0.1827 -0.0641 -0.3464
  891loPI   C3A12563   7.926  10.304   7.316 -0.4695 -0.1214  0.0591
  891loPI   C4A12564   7.758  10.191   7.703 -0.0515  0.1116  0.0085
  891loPI   C5A12565   7.715   9.833   7.860 -0.1048  0.0597 -0.4125
  891loPI   C6A12566   7.785   9.432   7.942  0.0804  0.1159 -0.0694
  891loPI   C1B12567   8.215  10.838   6.498  0.0915 -0.3294  0.2258
  891loPI   C2B12568   8.016  10.885   6.832 -0.0258  0.2905  0.1803
  891loPI   C3B12569   8.095  10.803   7.236 -0.2425 -0.0099 -0.3147
  891loPI   C4B12570   8.289  10.863   7.610 -0.3535 -0.0904 -0.0361
  892loPI    C112571   3.095   6.871   5.571 -0.4818 -0.0160 -0.2365
  892loPI    C212572   2.936   7.209   5.428 -0.2355  0.1413 -0.1462
  892loPI    C312573   3.120   6.954   5.181 -0.4392  0.0609 -0.2175
  892loPI   PO412574   3.139   6.941   5.848  0.0717 -0.4121  0.1024
  892loPI   GL112575   3.133   7.045   6.131  0.2019 -0.1037 -0.0765
  892loPI   GL212576   3.421   6.920   6.448 -0.3387 -0.0276  0.2040
  892loPI   C1A12577   3.076   7.234   6.513  0.1146  0.0242 -0.0297
  892loPI   C2A12578   2.927   7.291   6.949  0.0337  0.1888  0.1393
  892loPI   C3A12579   2.896   7.253   7.342 -0.0681 -0.1370  0.1797
  892loPI   C4A12580   2.873   6.962   7.651  0.0489 -0.0193 -0.3516
  892loPI   C5A12581   2.744   6.771   7.983  0.0704  0.1483  0.0260
  892loPI   C6A12582   2.494   6.898   8.325  0.0356  0.1041  0.2334
  892loPI   C1B12583   3.477   7.066   6.836  0.2073  0.0812 -0.1189
  892loPI   C2B12584   3.405   7.155   7.163 -0.2521 -0.0156 -0.2223
  892loPI   C3B12585   3.318   7.009   7.499  0.2348  0.0442 -0.0031
  892loPI   C4B12586   3.378   6.710   7.805  0.2205  0.1533 -0.1436
  893loPI    C112587   7.267  16.119   6.148 -0.1407  0.1668  0.0563
  893loPI    C212588   7.140  16.423   5.922 -0.0163 -0.0513 -0.3161
  893loPI    C312589   7.012  16.052   5.847  0.0310 -0.1285 -0.0276
  893loPI   PO412590   7.487  16.327   6.273  0.1438  0.0910  0.1344
  893loPI   GL112591   7.551  16.274   6.727 -0.1488 -0.2942  0.0614
  893loPI   GL212592   7.671  15.949   6.558 -0.0823  0.0400 -0.1631
  893loPI   C1A12593   7.872  16.079   7.037 -0.3057  0.0916 -0.3261
  893loPI   C2A12594   8.168  16.097   7.362 -0.2704  0.2399  0.2245
  893loPI   C3A12595   8.348  15.913   7.858  0.0724 -0.0540  0.1425
  893loPI   C4A12596   8.602  15.725   8.214 -0.0373 -0.3467  0.0519
  893loPI   C5A12597   8.941  15.926   8.347 -0.2134  0.1609  0.0645
  893loPI   C6A12598   9.244  16.165   8.059  0.1119 -0.0669 -0.1957
  893loPI   C1B12599   8.133  15.992   6.659 -0.0999  0.1325 -0.1311
  893loPI   C2B12600   8.467  15.849   7.026 -0.1960 -0.0628 -0.2279
  893loPI   C3B12601   8.682  15.841   7.506  0.0668 -0.5891 -0.1954
  893loPI   C4B12602   8.787  16.106   7.886 -0.2444 -0.3014 -0.2194
  894loPI    C112603   8.676   2.768   5.859  0.0325  0.1835  0.0346
  894loPI    C212604   8.872   2.419   5.872 -0.0976  0.1121  0.0878
  894loPI    C312605   8.815   2.602   5.522 -0.1117  0.0326  0.0482
  894loPI   PO412606   8.691   2.825   6.126 -0.2794  0.2204 -0.0344
  894loPI   GL112607   8.522   2.701   6.505  0.0682 -0.1048  0.0581
  894loPI   GL212608   8.787   2.864   6.641  0.2699  0.2029  0.0961
  894loPI   C1A12609   8.612   2.449   6.856 -0.0462 -0.2007  0.1098
  894loPI   C2A12610   8.489   2.146   7.102 -0.0910 -0.0697  0.0685
  894loPI   C3A12611   8.544   1.906   7.539  0.3496  0.0480 -0.1178
  894loPI   C4A12612   8.594   1.757   7.985  0.1659  0.1727  0.0480
  894loPI   C5A12613   8.710   1.380   8.260  0.0292 -0.2201  0.2594
  894loPI   C6A12614   8.707   1.087   8.529 -0.0536 -0.0240 -0.1712
  894loPI   C1B12615   8.716   2.852   7.135 -0.2025 -0.0637  0.1314
  894loPI   C2B12616   8.545   2.604   7.375  0.0413  0.0337 -0.0881
  894loPI   C3B12617   8.685   2.365   7.561  0.3405 -0.1239  0.0447
  894loPI   C4B12618   8.904   2.145   7.924 -0.2427  0.1714  0.1612
  895loPI    C112619   1.767   1.505   5.872 -0.1845  0.1653  0.0360
  895loPI    C212620   1.455   1.258   5.837 -0.0286 -0.0734  0.2949
  895loPI    C312621   1.728   1.276   5.546 -0.2343  0.0712  0.1075
  895loPI   PO412622   1.879   1.458   6.050  0.0173 -0.4770 -0.0659
  895loPI   GL112623   1.765   1.383   6.393  0.0770  0.1560 -0.4191
  895loPI   GL212624   1.844   1.128   6.594 -0.3489 -0.2360  0.0429
  895loPI   C1A12625   1.706   1.649   6.756  0.1357  0.0755  0.1906
  895loPI   C2A12626   1.667   1.794   7.176  0.0785  0.1988 -0.2092
  895loPI   C3A12627   1.564   2.155   7.331 -0.5213  0.2643 -0.0285
  895loPI   C4A12628   1.675   2.401   7.584 -0.1578  0.0314 -0.1499
  895loPI   C5A12629   1.760   2.630   7.943  0.0289  0.1056 -0.2284
  895loPI   C6A12630   2.082   2.803   8.247 -0.0681  0.0793 -0.1859
  895loPI   C1B12631   2.062   1.338   6.886 -0.0274 -0.2550  0.2400
  895loPI   C2B12632   2.145   1.613   7.160 -0.1040 -0.0456 -0.3040
  895loPI   C3B12633   2.000   1.778   7.574 -0.0610  0.0973  0.1265
  895loPI   C4B12634   1.926   2.004   7.875  0.1740 -0.1429  0.0973
  896loPI    C112635   6.981   3.923   5.563  0.0296  0.2261  0.1758
  896loPI    C212636   7.317   3.790   5.391 -0.0547 -0.0124  0.1911
  896loPI    C312637   6.965   3.741   5.207 -0.0678  0.3723  0.1046
  896loPI   PO412638   6.958   3.830   5.787 -0.1291 -0.2058  0.2085
  896loPI   GL112639   6.531   3.765   6.044 -0.0774  0.1403 -0.6023
  896loPI   GL212640   6.720   4.058   6.094  0.1765 -0.0073  0.2212
  896loPI   C1A12641   6.251   3.725   6.336 -0.3249 -0.2366 -0.1735
  896loPI   C2A12642   6.132   3.700   6.834 -0.0074  0.0212 -0.0568
  896loPI   C3A12643   6.153   3.854   7.203  0.0970  0.1202  0.0442
  896loPI   C4A12644   6.204   4.101   7.643 -0.0790  0.2259  0.2375
  896loPI   C5A12645   6.285   4.257   8.068  0.1154 -0.5896  0.0838
  896loPI   C6A12646   6.743   4.334   8.220  0.2476 -0.0579 -0.0351
  896loPI   C1B12647   6.717   3.875   6.501 -0.0358  0.1395 -0.1254
  896loPI   C2B12648   6.641   3.904   6.981 -0.0375  0.2819 -0.2962
  896loPI   C3B12649   6.580   4.097   7.364 -0.1292  0.0965  0.2659
  896loPI   C4B12650   6.677   3.974   7.803 -0.0244 -0.0286 -0.2744
  897loPI    C112651  13.609  10.784   5.627 -0.1086 -0.2480 -0.0694
  897loPI    C212652  13.421  11.060   5.406 -0.2028 -0.1434  0.1387
  897loPI    C312653  13.804  10.974   5.334 -0.2243 -0.0890 -0.0452
  897loPI   PO412654  13.613  10.854   5.925 -0.0009 -0.0052  0.0578
  897loPI   GL112655  13.237  10.946   6.221  0.0131 -0.0835  0.0565
  897loPI   GL212656  13.158  10.647   6.177  0.0057 -0.1152  0.1831
  897loPI   C1A12657  13.095  10.933   6.708 -0.0351 -0.0357  0.0877
  897loPI   C2A12658  12.759  10.989   7.038  0.2328 -0.2575  0.1300
  897loPI   C3A12659  12.754  10.869   7.434 -0.0983 -0.1046 -0.1709
  897loPI   C4A12660  12.855  10.940   7.810 -0.4482 -0.2712  0.0741
  897loPI   C5A12661  12.825  10.773   8.093  0.2704  0.2210  0.2466
  897loPI   C6A12662  12.893  10.886   8.499  0.1478 -0.1470 -0.1769
  897loPI   C1B12663  13.171  10.494   6.525 -0.0017  0.1571 -0.0785
  897loPI   C2B12664  13.112  10.506   6.976  0.2783 -0.3592  0.3143
  897loPI   C3B12665  13.123  10.460   7.372 -0.0524 -0.1338  0.0411
  897loPI   C4B12666  13.045  10.324   7.785 -0.3171  0.1133  0.1091
  898loPI    C112667   6.579  16.210   5.697 -0.1394  0.0347 -0.1489
  898loPI    C212668   6.699  16.590   5.656  0.1213 -0.0178  0.0947
  898loPI    C312669   6.577  16.383   5.336  0.0816  0.2355 -0.0568
  898loPI   PO412670   6.434  16.202   5.885  0.0332 -0.2125 -0.0937
  898loPI   GL112671   6.152  16.338   6.204 -0.0037  0.2191  0.2867
  898loPI   GL212672   6.077  16.140   6.407 -0.2236 -0.1519  0.2690
  898loPI   C1A12673   6.351  16.526   6.560  0.1783  0.3519 -0.0237
  898loPI   C2A12674   6.395  16.466   7.054  0.0959  0.0286 -0.1617
  898loPI   C3A12675   6.525  16.183   7.266 -0.0967  0.1621  0.1944
  898loPI   C4A12676   6.606  16.015   7.625 -0.0934  0.0226 -0.3267
  898loPI   C5A12677   6.752  15.888   8.058  0.2637 -0.1666 -0.1915
  898loPI   C6A12678   6.719  15.591   8.234  0.1000  0.0233 -0.1693
  898loPI   C1B12679   6.028  16.153   6.885 -0.2466 -0.2036 -0.0828
  898loPI   C2B12680   6.064  16.110   7.315 -0.2210  0.3681 -0.0848
  898loPI   C3B12681   5.792  16.023   7.667  0.0009 -0.0118  0.1662
  898loPI   C4B12682   5.463  16.112   7.940  0.0929 -0.2066  0.1034
  899loPI    C112683  10.059   3.165   5.851 -0.0804 -0.1646  0.0232
  899loPI    C212684  10.161   3.012   5.496 -0.3552 -0.2455 -0.0230
  899loPI    C312685   9.886   3.301   5.518  0.1304  0.2242  0.0669
  899loPI   PO412686  10.396   3.072   5.957 -0.1046 -0.0848  0.2193
  899loPI   GL112687  10.453   2.974   6.357 -0.0255  0.1994  0.0962
  899loPI   GL212688  10.114   2.972   6.435  0.0309 -0.0192  0.1596
  899loPI   C1A12689  10.501   3.059   6.800  0.0170  0.0670 -0.1759
  899loPI   C2A12690  10.418   3.108   7.236  0.0018 -0.4064 -0.0936
  899loPI   C3A12691  10.269   2.929   7.589 -0.1133  0.1471 -0.0418
  899loPI   C4A12692  10.455   2.880   8.007  0.0373  0.0725 -0.0174
  899loPI   C5A12693  10.829   2.989   8.216 -0.2043 -0.1161  0.0551
  899loPI   C6A12694  10.844   2.793   8.684 -0.2673  0.2606 -0.0212
  899loPI   C1B12695   9.976   2.950   6.872  0.0713  0.2160  0.0133
  899loPI   C2B12696   9.856   2.939   7.246 -0.2439 -0.0955  0.0809
  899loPI   C3B12697   9.590   2.899   7.544 -0.3848  0.1576  0.1166
  899loPI   C4B12698   9.533   2.924   7.883  0.0646 -0.1085 -0.2662
  900loPI    C112699   3.064   7.838   5.517  0.0684  0.0320 -0.0762
  900loPI    C212700   2.750   7.935   5.289 -0.0492  0.0936  0.1101
  900loPI    C312701   3.121   7.986   5.150 -0.1185  0.2417 -0.0230
  900loPI   PO412702   3.011   7.916   5.725 -0.0756  0.2203 -0.0033
  900loPI   GL112703   2.989   7.892   6.100 -0.0898  0.0824 -0.2717
  900loPI   GL212704   2.933   7.620   6.218  0.1372 -0.3283 -0.1109
  900loPI   C1A12705   2.928   8.082   6.466  0.0929 -0.3101 -0.0417
  900loPI   C2A12706   2.895   8.120   6.826 -0.2617 -0.2858  0.1693
  900loPI   C3A12707   2.868   8.089   7.194 -0.0361 -0.2283  0.0674
  900loPI   C4A12708   2.975   8.114   7.558 -0.2039 -0.1166 -0.0796
  900loPI   C5A12709   3.157   8.053   7.932  0.1121 -0.3321 -0.0173
  900loPI   C6A12710   3.004   8.227   8.351  0.5133  0.0774 -0.1697
  900loPI   C1B12711   2.739   7.629   6.622  0.0110 -0.1111 -0.2267
  900loPI   C2B12712   2.669   7.642   7.087 -0.0204  0.0072 -0.2304
  900loPI   C3B12713   2.777   7.620   7.632 -0.1321 -0.3795 -0.1540
  900loPI   C4B12714   2.824   7.698   8.015  0.0683 -0.0019  0.0967
  901loPI    C112715   2.554   1.601   5.644  0.0560 -0.1825  0.0230
  901loPI    C212716   2.173   1.493   5.590 -0.0986  0.3001  0.0955
  901loPI    C312717   2.448   1.400   5.315 -0.1991 -0.3342  0.1943
  901loPI   PO412718   2.596   1.533   5.950 -0.0769 -0.0316  0.0406
  901loPI   GL112719   2.565   1.563   6.339  0.2692 -0.0914  0.1773
  901loPI   GL212720   2.262   1.638   6.526 -0.1988  0.0111 -0.2884
  901loPI   C1A12721   2.954   1.748   6.559  0.0663  0.0018  0.1390
  901loPI   C2A12722   3.266   1.765   6.933  0.0679 -0.0236  0.4109
  901loPI   C3A12723   3.524   1.627   7.155 -0.3162 -0.0087 -0.1207
  901loPI   C4A12724   3.561   1.522   7.556  0.0400  0.0097 -0.1624
  901loPI   C5A12725   3.747   1.468   8.020 -0.2416 -0.0438  0.0495
  901loPI   C6A12726   3.781   1.288   8.418  0.1070  0.0689 -0.0100
  901loPI   C1B12727   2.525   1.555   6.799 -0.0824  0.2298  0.3056
  901loPI   C2B12728   2.838   1.537   7.154  0.0123  0.0213  0.0163
  901loPI   C3B12729   3.006   1.546   7.481  0.0148  0.0828  0.1465
  901loPI   C4B12730   3.164   1.656   7.961 -0.1081  0.0834  0.0201
  902loPI    C112731   3.227   8.837   5.677 -0.0736 -0.0221 -0.0375
  902loPI    C212732   3.140   8.680   5.319 -0.2965 -0.0171  0.0132
  902loPI    C312733   3.134   9.077   5.370 -0.2012 -0.0147  0.0064
  902loPI   PO412734   3.119   8.742   5.857 -0.0421  0.0244  0.0207
  902loPI   GL112735   3.030   8.855   6.266  0.0750 -0.4229  0.1068
  902loPI   GL212736   3.372   8.840   6.293 -0.1247  0.3397  0.2418
  902loPI   C1A12737   2.890   8.964   6.598  0.1917  0.2097  0.2867
  902loPI   C2A12738   2.963   9.213   7.062  0.1965  0.1136  0.0848
  902loPI   C3A12739   3.007   9.412   7.407 -0.2593  0.0574  0.0757
  902loPI   C4A12740   2.896   9.431   7.832 -0.2856 -0.1801 -0.2258
  902loPI   C5A12741   2.756   9.000   8.121  0.4667  0.1430 -0.0710
  902loPI   C6A12742   2.730   8.676   8.363  0.0714  0.1181  0.0715
  902loPI   C1B12743   3.339   8.923   6.780 -0.0699  0.1814 -0.4418
  902loPI   C2B12744   3.373   9.017   7.277 -0.0471 -0.4505  0.2248
  902loPI   C3B12745   3.275   8.928   7.681  0.0172 -0.1665  0.0529
  902loPI   C4B12746   3.334   9.169   7.995 -0.1385 -0.1246 -0.2373
  903loPI    C112747   4.479   1.499   5.912 -0.0717  0.0464  0.1062
  903loPI    C212748   4.679   1.299   5.629 -0.0237  0.2322  0.0072
  903loPI    C312749   4.289   1.376   5.583 -0.0052  0.3040 -0.0308
  903loPI   PO412750   4.649   1.336   6.140  0.1717  0.3187  0.0190
  903loPI   GL112751   4.784   1.148   6.579 -0.0923 -0.3064 -0.1093
  903loPI   GL212752   4.531   0.907   6.558 -0.1232  0.1663  0.0863
  903loPI   C1A12753   4.974   0.852   7.000 -0.2094  0.0330  0.0636
  903loPI   C2A12754   5.050   0.844   7.349  0.4804  0.1681 -0.1001
  903loPI   C3A12755   4.998   0.941   7.656 -0.1629 -0.0532 -0.0786
  903loPI   C4A12756   5.091   0.843   8.065  0.0988  0.1882  0.1833
  903loPI   C5A12757   5.110   0.684   8.498 -0.1538  0.3079 -0.1916
  903loPI   C6A12758   5.284   0.626   8.929  0.3189  0.0294 -0.0210
  903loPI   C1B12759   4.454   0.834   7.017 -0.1479  0.1535  0.3270
  903loPI   C2B12760   4.530   0.732   7.467 -0.1014  0.0916 -0.2492
  903loPI   C3B12761   4.649   0.600   7.894 -0.0797  0.3970  0.1826
  903loPI   C4B12762   4.677   0.533   8.286  0.2723  0.0325  0.0874
  904loPI    C112763  17.070  10.056   6.009 -0.2519 -0.1452 -0.0037
  904loPI    C212764  16.878  10.270   5.731 -0.0420  0.0705  0.0147
  904loPI    C312765  17.228  10.398   5.876 -0.0975 -0.0944  0.3016
  904loPI   PO412766  16.996   9.808   5.967  0.0169 -0.1688 -0.0108
  904loPI   GL112767  16.969   9.602   6.340  0.2473 -0.3239 -0.2246
  904loPI   GL212768  17.243   9.422   6.475  0.0958  0.2482 -0.2901
  904loPI   C1A12769  16.752   9.588   6.730 -0.0090  0.1215 -0.0032
  904loPI   C2A12770  16.770   9.627   7.110 -0.0174  0.3231  0.0732
  904loPI   C3A12771  16.699   9.596   7.569  0.0821  0.0261 -0.1020
  904loPI   C4A12772  16.813   9.762   7.960 -0.2696 -0.2250 -0.1083
  904loPI   C5A12773  17.161   9.767   8.247 -0.1918 -0.3988  0.0634
  904loPI   C6A12774  17.569   9.780   8.354 -0.0201 -0.0483  0.1862
  904loPI   C1B12775  17.180   9.434   6.913 -0.2775  0.0376 -0.0952
  904loPI   C2B12776  17.183   9.526   7.382 -0.1422 -0.0065 -0.0884
  904loPI   C3B12777  17.290   9.483   7.843  0.0827 -0.1156  0.1355
  904loPI   C4B12778  17.016   9.311   8.218  0.0723 -0.0632  0.3728
  905loPI    C112779   8.587  15.941   5.340 -0.0889 -0.0738  0.1478
  905loPI    C212780   8.314  15.661   5.258 -0.1993  0.0139  0.2132
  905loPI    C312781   8.680  15.554   5.377 -0.1022 -0.1118 -0.1840
  905loPI   PO412782   8.491  16.021   5.571 -0.2058 -0.2406 -0.0976
  905loPI   GL112783   8.278  16.206   5.921 -0.1723 -0.2336 -0.0629
  905loPI   GL212784   7.975  16.192   6.179  0.0082  0.3495 -0.2574
  905loPI   C1A12785   8.587  16.228   6.241  0.3135  0.0898  0.0630
  905loPI   C2A12786   8.736  16.064   6.613  0.1325  0.2015 -0.0151
  905loPI   C3A12787   8.994  16.001   7.075 -0.0908 -0.2543  0.0082
  905loPI   C4A12788   9.219  15.881   7.451  0.0449 -0.0276  0.2109
  905loPI   C5A12789   9.126  15.715   7.909  0.0268  0.1643 -0.4758
  905loPI   C6A12790   9.096  15.364   8.198 -0.0129  0.0870 -0.1613
  905loPI   C1B12791   8.368  15.765   6.251 -0.2523 -0.1021  0.2960
  905loPI   C2B12792   8.803  15.753   6.290  0.0468 -0.1330 -0.3211
  905loPI   C3B12793   9.151  15.725   6.608  0.2230 -0.1717 -0.0807
  905loPI   C4B12794   9.321  15.600   7.021  0.2123  0.2151  0.1813
  906loPI    C112795  17.535   9.490   5.504  0.0977 -0.2235  0.0855
  906loPI    C212796  17.151   9.484   5.615  0.0321 -0.1141 -0.1315
  906loPI    C312797  17.248   9.482   5.227  0.2365  0.3987 -0.0906
  906loPI   PO412798  17.639   9.306   5.677 -0.0109  0.1203 -0.3200
  906loPI   GL112799  17.765   9.245   6.072  0.1225  0.2601 -0.1648
  906loPI   GL212800  17.802   8.938   6.147 -0.1345 -0.1238  0.2342
  906loPI   C1A12801  17.748   9.398   6.538 -0.1601 -0.1760  0.1255
  906loPI   C2A12802  17.752   9.365   6.911  0.3956 -0.2447 -0.0314
  906loPI   C3A12803  17.593   9.162   7.236  0.1204  0.2096 -0.0267
  906loPI   C4A12804  17.409   9.042   7.651  0.2939 -0.0669  0.0215
  906loPI   C5A12805  17.284   8.874   8.087 -0.2865 -0.0267  0.2344
  906loPI   C6A12806  17.250   8.632   8.479  0.0148  0.1312 -0.4468
  906loPI   C1B12807  17.486   9.018   6.401 -0.0986 -0.0009 -0.0302
  906loPI   C2B12808  17.402   8.896   6.832 -0.1446  0.4067 -0.2261
  906loPI   C3B12809  17.171   8.847   7.262  0.0947 -0.1556  0.1846
  906loPI   C4B12810  17.038   8.696   7.657  0.2091  0.2233 -0.1844
  907loPI    C112811   4.246   3.544   5.533 -0.1191 -0.0595  0.0198
  907loPI    C212812   4.022   3.855   5.647 -0.0310 -0.0165  0.0764
  907loPI    C312813   4.002   3.721   5.271  0.0510  0.1609  0.0078
  907loPI   PO412814   4.301   3.374   5.710  0.1588  0.0045  0.2704
  907loPI   GL112815   4.583   3.077   6.082 -0.0562 -0.1008 -0.0632
  907loPI   GL212816   4.571   3.436   6.097  0.0477 -0.1808  0.1247
  907loPI   C1A12817   4.791   2.832   6.393  0.0844 -0.0104  0.3269
  907loPI   C2A12818   4.982   3.037   6.852  0.0571  0.1771  0.0760
  907loPI   C3A12819   4.837   3.167   7.311  0.2922  0.2250 -0.1280
  907loPI   C4A12820   4.736   3.181   7.712  0.2437 -0.4096  0.0358
  907loPI   C5A12821   4.595   3.516   8.000  0.5503 -0.0516  0.2176
  907loPI   C6A12822   4.159   3.628   8.094  0.1172 -0.0413  0.1071
  907loPI   C1B12823   4.741   3.329   6.459 -0.0963 -0.2671 -0.0549
  907loPI   C2B12824   4.553   3.260   6.907  0.1676  0.0611  0.1314
  907loPI   C3B12825   4.325   3.096   7.123 -0.1043 -0.0545  0.1216
  907loPI   C4B12826   4.240   2.845   7.407  0.3587  0.2159 -0.1510
  908loPI    C112827  11.145   3.762   5.851  0.1418  0.4322 -0.0270
  908loPI    C212828  10.927   3.677   5.526 -0.1304 -0.1461  0.2895
  908loPI    C312829  11.318   3.756   5.491 -0.1897 -0.0344 -0.1887
  908loPI   PO412830  11.053   3.883   6.041 -0.3103  0.2899 -0.0898
  908loPI   GL112831  11.179   3.689   6.391  0.1004 -0.1918 -0.2226
  908loPI   GL212832  11.492   3.622   6.260 -0.0207 -0.0562 -0.0991
  908loPI   C1A12833  11.333   3.805   6.696  0.3118 -0.1416  0.2126
  908loPI   C2A12834  11.326   3.853   7.125  0.0849  0.0361 -0.2471
  908loPI   C3A12835  11.289   3.966   7.575  0.4448 -0.1103  0.0010
  908loPI   C4A12836  11.256   4.138   7.910  0.2056  0.3614 -0.2435
  908loPI   C5A12837  10.935   4.133   8.208  0.0579 -0.1221 -0.4502
  908loPI   C6A12838  10.594   3.851   8.090 -0.3779 -0.1975 -0.2307
  908loPI   C1B12839  11.750   3.546   6.598 -0.2490 -0.0932 -0.0702
  908loPI   C2B12840  11.718   3.559   7.008  0.3738  0.1585  0.0311
  908loPI   C3B12841  11.691   3.641   7.436 -0.0982 -0.2427  0.2083
  908loPI   C4B12842  11.773   4.002   7.653  0.1472 -0.1148  0.2219
  909loPI    C112843   8.266   7.032   5.913 -0.0276 -0.4426 -0.0595
  909loPI    C212844   8.155   7.156   5.550  0.0736  0.4192  0.1811
  909loPI    C312845   8.531   7.036   5.614  0.0211  0.1367 -0.0211
  909loPI   PO412846   7.953   7.009   5.959  0.0739  0.0510  0.0792
  909loPI   GL112847   7.576   6.824   6.271  0.1921  0.0616 -0.1441
  909loPI   GL212848   7.877   6.814   6.354  0.2033  0.0639 -0.3483
  909loPI   C1A12849   7.640   7.209   6.495  0.1549 -0.4632 -0.2476
  909loPI   C2A12850   7.668   7.297   6.900 -0.3225 -0.3223 -0.4751
  909loPI   C3A12851   7.731   7.288   7.390  0.2161 -0.0618 -0.0517
  909loPI   C4A12852   7.808   7.325   7.754 -0.2077  0.0113 -0.0688
  909loPI   C5A12853   7.803   7.680   8.004  0.0084 -0.1627  0.1567
  909loPI   C6A12854   7.608   8.091   8.124 -0.5720 -0.1942 -0.0555
  909loPI   C1B12855   7.666   6.793   6.751 -0.2499  0.0370 -0.2365
  909loPI   C2B12856   7.623   6.816   7.176  0.0199 -0.0179 -0.0584
  909loPI   C3B12857   7.715   6.827   7.599  0.2542 -0.0548  0.6414
  909loPI   C4B12858   7.743   6.484   7.895 -0.1163  0.2458 -0.0837
  910loPI    C112859  12.863   8.382   5.865 -0.0234 -0.0699 -0.0726
  910loPI    C212860  12.780   8.043   5.669  0.0511 -0.0606 -0.1206
  910loPI    C312861  12.494   8.228   5.879  0.0445 -0.2270  0.0200
  910loPI   PO412862  13.157   8.331   5.906 -0.1495 -0.0512  0.0734
  910loPI   GL112863  13.185   8.271   6.246 -0.1660  0.1591 -0.4333
  910loPI   GL212864  12.893   8.131   6.292  0.0256 -0.0385 -0.0774
  910loPI   C1A12865  13.258   8.009   6.563 -0.1268 -0.0993 -0.1196
  910loPI   C2A12866  13.273   8.074   6.939  0.1410  0.4018  0.1053
  910loPI   C3A12867  13.229   8.271   7.336  0.0893  0.4821  0.0628
  910loPI   C4A12868  13.049   8.220   7.846  0.0509 -0.0510  0.1307
  910loPI   C5A12869  13.309   8.204   8.200  0.0602 -0.1095  0.0514
  910loPI   C6A12870  13.533   7.828   8.361  0.0307 -0.0465  0.1827
  910loPI   C1B12871  12.799   8.037   6.717 -0.2834 -0.0218  0.0827
  910loPI   C2B12872  12.799   8.011   7.216 -0.1485  0.1555  0.2164
  910loPI   C3B12873  12.573   7.866   7.677  0.1423 -0.2409  0.0373
  910loPI   C4B12874  12.620   7.871   8.128 -0.2776  0.2449  0.3252
  911loPI    C112875   2.371   6.385   5.514 -0.0089  0.2361 -0.0706
  911loPI    C212876   2.290   6.494   5.138  0.1505  0.2207 -0.1097
  911loPI    C312877   2.625   6.291   5.220  0.0253  0.0616  0.0135
  911loPI   PO412878   2.070   6.348   5.613  0.2371 -0.0123  0.2641
  911loPI   GL112879   1.933   6.332   5.970 -0.0818 -0.0883 -0.0953
  911loPI   GL212880   1.742   6.526   6.159 -0.3710  0.0112  0.2797
  911loPI   C1A12881   2.123   6.301   6.415 -0.0794  0.1839 -0.1946
  911loPI   C2A12882   2.115   6.257   6.815  0.1511 -0.1231  0.4570
  911loPI   C3A12883   2.140   6.203   7.255  0.4228 -0.1013  0.0084
  911loPI   C4A12884   1.959   6.038   7.662  0.0388 -0.1245  0.2174
  911loPI   C5A12885   1.496   5.931   7.852  0.0915  0.0800 -0.0017
  911loPI   C6A12886   1.114   6.184   7.780  0.2085 -0.2535  0.2005
  911loPI   C1B12887   1.760   6.586   6.640  0.1671  0.1149 -0.1168
  911loPI   C2B12888   1.866   6.606   7.125 -0.1303 -0.0105  0.1894
  911loPI   C3B12889   2.043   6.667   7.548  0.0581 -0.1930  0.1047
  911loPI   C4B12890   2.259   6.489   7.795  0.0008  0.0518  0.2925
  912loPI    C112891  13.211   2.744   6.278  0.1350 -0.2302 -0.0170
  912loPI    C212892  13.596   2.846   6.313  0.0054  0.2645  0.0580
  912loPI    C312893  13.393   2.943   5.983 -0.0116 -0.1660 -0.0651
  912loPI   PO412894  13.132   2.635   6.431  0.1040 -0.1605  0.0179
  912loPI   GL112895  13.049   2.372   6.773  0.1701  0.2534 -0.0927
  912loPI   GL212896  13.352   2.136   6.939  0.1321  0.0901  0.0038
  912loPI   C1A12897  12.825   2.395   7.096  0.1155 -0.1059 -0.1999
  912loPI   C2A12898  12.749   2.325   7.588 -0.1622  0.1181  0.2180
  912loPI   C3A12899  12.814   2.192   8.004  0.1580  0.4334 -0.0122
  912loPI   C4A12900  12.926   2.078   8.303  0.0689  0.0647 -0.1545
  912loPI   C5A12901  12.871   1.741   8.695 -0.2501 -0.1865  0.0573
  912loPI   C6A12902  12.739   1.289   8.509  0.1476  0.1165  0.0322
  912loPI   C1B12903  13.243   2.019   7.390 -0.1267  0.1237  0.0506
  912loPI   C2B12904  13.221   2.047   7.841  0.0379 -0.0985 -0.1662
  912loPI   C3B12905  13.492   2.046   8.372  0.4943  0.2919  0.3557
  912loPI   C4B12906  13.745   2.116   8.687  0.1572 -0.0394 -0.0845
  913loPI    C112907   4.590  11.804   5.653 -0.2118 -0.0241 -0.0976
  913loPI    C212908   4.400  12.014   5.371  0.0304  0.1046 -0.1678
  913loPI    C312909   4.752  11.843   5.290 -0.0234 -0.0794 -0.0210
  913loPI   PO412910   4.340  11.728   5.808  0.1688 -0.1679  0.2915
  913loPI   GL112911   4.343  11.647   6.238 -0.1888  0.0306  0.0132
  913loPI   GL212912   4.234  11.829   6.446  0.2860  0.4808 -0.2368
  913loPI   C1A12913   4.350  11.428   6.720  0.1242 -0.0888  0.1281
  913loPI   C2A12914   4.432  11.392   7.281 -0.0083 -0.0277  0.2002
  913loPI   C3A12915   4.236  11.212   7.583 -0.2190  0.0679 -0.1913
  913loPI   C4A12916   4.454  11.037   7.983  0.2784 -0.2901  0.1295
  913loPI   C5A12917   4.701  10.787   8.245  0.0193 -0.1417  0.0504
  913loPI   C6A12918   5.156  10.546   8.374  0.1239 -0.0907 -0.1540
  913loPI   C1B12919   4.460  11.951   6.905 -0.0852  0.2542 -0.0442
  913loPI   C2B12920   4.494  11.888   7.323 -0.1550 -0.0362 -0.0033
  913loPI   C3B12921   4.371  11.736   7.642 -0.0506 -0.1998 -0.1780
  913loPI   C4B12922   4.442  11.821   8.059  0.0930  0.1870  0.1349
  914loPI    C112923  15.544  10.835   5.824  0.1195  0.1892  0.1760
  914loPI    C212924  15.292  10.795   5.516  0.1466 -0.1271  0.1914
  914loPI    C312925  15.156  10.920   5.871  0.0498 -0.1012  0.1455
  914loPI   PO412926  15.624  10.688   5.888  0.1219 -0.0305 -0.0804
  914loPI   GL112927  15.570  10.524   6.260 -0.1652  0.1637  0.2386
  914loPI   GL212928  15.854  10.625   6.393 -0.2109 -0.0455  0.1520
  914loPI   C1A12929  15.565  10.241   6.570 -0.4247  0.1284  0.2498
  914loPI   C2A12930  15.529  10.223   6.961 -0.1807  0.1452 -0.3492
  914loPI   C3A12931  15.503  10.268   7.417 -0.1425  0.1318 -0.2929
  914loPI   C4A12932  15.691  10.159   7.759 -0.1341  0.2170 -0.1180
  914loPI   C5A12933  15.638  10.058   8.198  0.1510  0.2542  0.1252
  914loPI   C6A12934  15.353   9.936   8.544  0.0514 -0.0806 -0.1793
  914loPI   C1B12935  15.613  10.677   6.767  0.1080  0.0066  0.4777
  914loPI   C2B12936  15.626  10.739   7.083  0.2794  0.0397  0.3749
  914loPI   C3B12937  15.672  10.761   7.511 -0.0519 -0.0633  0.1407
  914loPI   C4B12938  15.798  10.675   7.907  0.1892  0.0822  0.2142
  915loPI    C112939   7.926   3.333   5.913  0.1168  0.1160  0.0449
  915loPI    C212940   7.620   3.078   5.878 -0.0157  0.2781  0.0136
  915loPI    C312941   7.949   3.026   5.657 -0.0488  0.1444 -0.0049
  915loPI   PO412942   7.989   3.295   6.134  0.2976 -0.0250 -0.0786
  915loPI   GL112943   7.891   3.211   6.640  0.2102 -0.2395 -0.1622
  915loPI   GL212944   7.869   2.913   6.522 -0.0228 -0.1216 -0.1878
  915loPI   C1A12945   7.796   3.028   7.037  0.3228  0.1260 -0.0141
  915loPI   C2A12946   8.025   2.787   7.423 -0.4842  0.0750 -0.2097
  915loPI   C3A12947   8.190   2.737   7.913  0.2100 -0.1935  0.2956
  915loPI   C4A12948   8.075   2.724   8.316 -0.1237  0.0800  0.0012
  915loPI   C5A12949   8.288   2.402   8.555 -0.2994  0.1962 -0.3872
  915loPI   C6A12950   8.416   1.990   8.460  0.0966  0.0803 -0.2042
  915loPI   C1B12951   8.067   2.657   6.834  0.2312 -0.2275  0.2042
  915loPI   C2B12952   8.094   2.372   7.197 -0.0890  0.0028 -0.2802
  915loPI   C3B12953   8.182   2.274   7.539 -0.0053  0.4551 -0.2186
  915loPI   C4B12954   8.393   2.246   7.909  0.1489  0.1646  0.0259
  916loPI    C112955  16.274   1.575   5.934  0.1688 -0.0349 -0.0511
  916loPI    C212956  15.895   1.485   5.845  0.1385 -0.2577  0.2836
  916loPI    C312957  16.050   1.835   5.729 -0.1132 -0.2384 -0.0074
  916loPI   PO412958  16.243   1.449   6.276 -0.0096 -0.1709 -0.1708
  916loPI   GL112959  16.166   1.393   6.730  0.0734  0.0086 -0.0123
  916loPI   GL212960  15.954   1.380   6.835  0.0866 -0.1148  0.1858
  916loPI   C1A12961  16.508   1.422   7.078 -0.4316 -0.3509  0.1857
  916loPI   C2A12962  16.597   1.374   7.578  0.0629  0.2389  0.0117
  916loPI   C3A12963  16.428   0.998   7.818  0.2373  0.1107 -0.3049
  916loPI   C4A12964  16.528   0.608   7.978  0.1950 -0.0304 -0.2614
  916loPI   C5A12965  16.523   0.462   8.376  0.0114  0.3671 -0.1144
  916loPI   C6A12966  16.687   0.051   8.629 -0.0951  0.1075 -0.0356
  916loPI   C1B12967  16.125   1.302   7.304  0.0868 -0.0350 -0.1545
  916loPI   C2B12968  16.063   1.263   7.713 -0.1806  0.1472 -0.1355
  916loPI   C3B12969  16.100   1.250   8.092  0.0596 -0.2080 -0.1445
  916loPI   C4B12970  16.393   0.999   8.316  0.1136 -0.0536 -0.0080
  917loPI    C112971   9.611   0.606   5.795  0.0156  0.2919 -0.1984
  917loPI    C212972   9.487   0.346   5.518 -0.1819 -0.0682  0.2151
  917loPI    C312973   9.388   0.732   5.488 -0.0057 -0.0564 -0.3305
  917loPI   PO412974   9.568   0.596   6.001 -0.2036  0.1599 -0.1287
  917loPI   GL112975   9.361   0.646   6.325  0.1580  0.0463 -0.0948
  917loPI   GL212976   9.025   0.512   6.283  0.3619 -0.2673 -0.5490
  917loPI   C1A12977   9.105   0.887   6.641 -0.0173  0.2783 -0.3442
  917loPI   C2A12978   9.207   0.825   7.010 -0.1539 -0.0608 -0.3009
  917loPI   C3A12979   9.048   0.807   7.360  0.4440  0.0750  0.2674
  917loPI   C4A12980   9.135   0.730   7.704  0.0092 -0.1840  0.1916
  917loPI   C5A12981   9.336   0.640   8.101 -0.0546  0.0672  0.0732
  917loPI   C6A12982   9.490   0.354   8.433  0.1901  0.1615 -0.2333
  917loPI   C1B12983   8.733   0.521   6.557 -0.2385 -0.3753  0.1513
  917loPI   C2B12984   8.667   0.370   7.043  0.0083 -0.0566  0.0791
  917loPI   C3B12985   8.655  -0.021   7.262  0.1199 -0.1767  0.1693
  917loPI   C4B12986   8.620  -0.041   7.771  0.4132 -0.1014 -0.0810
  918loPI    C112987  15.616  15.150   5.784 -0.0605  0.0089  0.1318
  918loPI    C212988  15.820  14.988   5.481 -0.0759  0.2966 -0.0354
  918loPI    C312989  15.435  15.084   5.433 -0.1199  0.2035  0.1251
  918loPI   PO412990  15.612  15.085   6.042  0.4068 -0.2603 -0.2169
  918loPI   GL112991  15.336  15.005   6.340  0.2607 -0.1688  0.0234
  918loPI   GL212992  15.119  15.173   6.269  0.1496 -0.1654  0.0778
  918loPI   C1A12993  15.377  14.988   6.719  0.0215  0.1666 -0.1512
  918loPI   C2A12994  15.383  15.116   7.138 -0.2584  0.0210  0.2014
  918loPI   C3A12995  15.687  15.315   7.431 -0.0668 -0.1092 -0.1251
  918loPI   C4A12996  15.901  15.335   7.750 -0.0127 -0.1038 -0.3205
  918loPI   C5A12997  16.304  15.306   7.906  0.0369 -0.0623 -0.2664
  918loPI   C6A12998  16.709  15.187   8.051 -0.0057 -0.1145  0.0769
  918loPI   C1B12999  15.013  15.284   6.699  0.0575 -0.2171 -0.2527
  918loPI   C2B13000  14.922  15.335   7.061 -0.3028 -0.2683 -0.1875
  918loPI   C3B13001  15.106  15.487   7.508 -0.2044  0.1420  0.0633
  918loPI   C4B13002  15.425  15.552   7.821  0.0305 -0.0697 -0.0272
  919loPI    C113003   7.901  16.527   5.771  0.0055  0.0585 -0.0994
  919loPI    C213004   7.737  16.439   5.416 -0.0452  0.1049 -0.0876
  919loPI    C313005   7.595  16.269   5.750 -0.1087  0.1900 -0.0707
  919loPI   PO413006   7.934  16.829   5.677 -0.1783 -0.4229 -0.1113
  919loPI   GL113007   7.943  16.986   6.088 -0.0198 -0.2338  0.4520
  919loPI   GL213008   7.841  16.744   6.225 -0.2402  0.0924  0.1661
  919loPI   C1A13009   8.086  17.106   6.499 -0.4346 -0.1427  0.0039
  919loPI   C2A13010   8.149  17.042   6.857  0.0328 -0.0602 -0.1847
  919loPI   C3A13011   8.162  16.836   7.205  0.3099 -0.1749 -0.1096
  919loPI   C4A13012   8.197  16.641   7.590  0.0455  0.2000 -0.0399
  919loPI   C5A13013   8.422  16.436   7.900  0.0587  0.5805 -0.5112
  919loPI   C6A13014   8.480  16.220   8.264 -0.0443 -0.0239  0.1152
  919loPI   C1B13015   7.773  16.706   6.669  0.1366  0.1284 -0.0073
  919loPI   C2B13016   7.769  16.611   7.037  0.0806 -0.1756 -0.2363
  919loPI   C3B13017   7.799  16.438   7.412 -0.0737 -0.1432 -0.0638
  919loPI   C4B13018   7.877  16.291   7.762 -0.0596  0.0960  0.2972
  920loPI    C113019  17.837   4.779   5.476 -0.2253  0.2651  0.0718
  920loPI    C213020  17.596   5.017   5.265 -0.0800  0.2354 -0.1302
  920loPI    C313021  17.940   4.890   5.106 -0.1427 -0.0873 -0.0154
  920loPI   PO413022  17.843   4.875   5.728 -0.1715 -0.2537 -0.0525
  920loPI   GL113023  17.998   5.172   6.060 -0.1669 -0.0614  0.0860
  920loPI   GL213024  18.354   5.061   6.131 -0.2835 -0.1513 -0.0357
  920loPI   C1A13025  18.002   5.340   6.386 -0.1894  0.1704 -0.2794
  920loPI   C2A13026  18.062   5.322   6.748 -0.2298  0.0348  0.0203
  920loPI   C3A13027  18.177   5.241   7.109  0.2712 -0.0231  0.2933
  920loPI   C4A13028  18.442   5.275   7.458  0.0208 -0.0831 -0.0281
  920loPI   C5A13029  18.525   5.170   7.885  0.2207 -0.1765  0.1887
  920loPI   C6A13030  18.504   5.178   8.332 -0.0819  0.1826  0.0619
  920loPI   C1B13031  18.278   4.944   6.501  0.1059 -0.0262  0.3232
  920loPI   C2B13032  18.251   4.721   6.885 -0.0070 -0.1378  0.0055
  920loPI   C3B13033  18.210   4.743   7.344 -0.0575 -0.0569 -0.1338
  920loPI   C4B13034  18.191   4.780   7.791 -0.0792  0.0260 -0.0046
  921loPI    C113035   5.426   1.672   5.567  0.0242  0.0872 -0.0860
  921loPI    C213036   5.218   1.339   5.492 -0.0840  0.1661 -0.1395
  921loPI    C313037   5.501   1.459   5.236  0.1025  0.0016 -0.0138
  921loPI   PO413038   5.473   1.691   5.861  0.0454  0.1115  0.2521
  921loPI   GL113039   5.345   1.783   6.293  0.3639 -0.1834 -0.1335
  921loPI   GL213040   5.119   1.522   6.439  0.0256  0.3642 -0.0223
  921loPI   C1A13041   5.343   1.931   6.666 -0.0345 -0.0403  0.3416
  921loPI   C2A13042   5.488   1.899   7.030  0.1322 -0.1008  0.1191
  921loPI   C3A13043   5.383   1.788   7.468 -0.2508 -0.2032 -0.0678
  921loPI   C4A13044   5.323   1.738   7.892  0.0994 -0.2670 -0.2698
  921loPI   C5A13045   5.579   1.785   8.234 -0.4002  0.0669 -0.0421
  921loPI   C6A13046   5.625   1.572   8.695  0.0355  0.3033 -0.2550
  921loPI   C1B13047   5.094   1.360   6.880  0.1542  0.0283 -0.0945
  921loPI   C2B13048   5.182   1.479   7.159  0.0754  0.4847 -0.2539
  921loPI   C3B13049   5.070   1.424   7.514  0.0883  0.0815 -0.4254
  921loPI   C4B13050   4.868   1.430   7.891 -0.0711 -0.2587  0.2412
  922loPI    C113051  15.242   1.371   6.260 -0.2579  0.0445 -0.2416
  922loPI    C213052  15.439   1.555   5.965  0.1239 -0.0751 -0.0681
  922loPI    C313053  15.246   1.771   6.242  0.3424  0.0583 -0.0177
  922loPI   PO413054  15.309   1.140   6.304 -0.1260 -0.0663 -0.1249
  922loPI   GL113055  15.464   0.915   6.589  0.1178  0.0151 -0.1648
  922loPI   GL213056  15.749   0.957   6.726 -0.2023 -0.2916 -0.1099
  922loPI   C1A13057  15.370   0.846   7.057 -0.0127 -0.0762 -0.2498
  922loPI   C2A13058  15.340   0.840   7.498  0.1257 -0.1156 -0.3970
  922loPI   C3A13059  15.146   0.998   7.912  0.2845  0.0357  0.3269
  922loPI   C4A13060  14.839   0.815   8.213 -0.1983  0.2623 -0.1374
  922loPI   C5A13061  14.482   0.565   8.408 -0.0697  0.0160  0.1522
  922loPI   C6A13062  14.325   0.150   8.478 -0.2325  0.2227 -0.1901
  922loPI   C1B13063  15.811   0.990   7.104 -0.1303  0.1738 -0.1893
  922loPI   C2B13064  15.871   0.848   7.468 -0.2324 -0.2713  0.0302
  922loPI   C3B13065  15.929   0.752   7.861  0.1172 -0.0820  0.1727
  922loPI   C4B13066  16.069   0.545   8.208  0.3270  0.1810 -0.0433
  923loPI    C113067  17.769   8.291   5.461 -0.0279  0.0877 -0.0923
  923loPI    C213068  17.898   8.594   5.234  0.0583  0.0711 -0.0660
  923loPI    C313069  17.998   8.218   5.142  0.3673  0.0880  0.1829
  923loPI   PO413070  17.727   8.368   5.698 -0.1984 -0.0536 -0.1771
  923loPI   GL113071  17.990   8.404   6.009  0.1572  0.1643 -0.2775
  923loPI   GL213072  18.285   8.463   6.154 -0.3767  0.0399 -0.0290
  923loPI   C1A13073  17.895   8.176   6.409 -0.1140  0.1647  0.1406
  923loPI   C2A13074  18.021   7.932   6.774 -0.1193  0.2321 -0.1214
  923loPI   C3A13075  18.128   8.062   7.134  0.1917  0.2170  0.0823
  923loPI   C4A13076  18.083   8.065   7.508 -0.0209 -0.0531 -0.1011
  923loPI   C5A13077  18.315   8.063   7.869  0.1903 -0.1935 -0.2740
  923loPI   C6A13078  18.329   7.912   8.245  0.3578  0.0431 -0.1666
  923loPI   C1B13079  18.108   8.623   6.412  0.1731  0.1251 -0.1825
  923loPI   C2B13080  18.024   8.889   6.677 -0.1762 -0.0172  0.0506
  923loPI   C3B13081  17.858   8.809   7.106 -0.0236  0.4420  0.1465
  923loPI   C4B13082  17.887   8.868   7.496 -0.0147  0.1079 -0.1025
  924loPI    C113083  15.177  14.719   5.969  0.0866  0.1712  0.1692
  924loPI    C213084  15.484  14.667   5.718  0.0157 -0.1761  0.1495
  924loPI    C313085  15.112  14.697   5.575  0.0261  0.1356  0.1811
  924loPI   PO413086  15.197  14.505   6.132  0.3541 -0.0590  0.2807
  924loPI   GL113087  15.315  14.494   6.552 -0.0992 -0.1601  0.2063
  924loPI   GL213088  15.141  14.225   6.553  0.0644  0.0866  0.0665
  924loPI   C1A13089  15.345  14.545   7.003  0.2280  0.0475 -0.0711
  924loPI   C2A13090  15.522  14.642   7.405 -0.0378 -0.0494  0.2984
  924loPI   C3A13091  15.490  15.001   7.730  0.0520 -0.1702  0.2412
  924loPI   C4A13092  15.444  15.139   8.087  0.0286 -0.0983 -0.3023
  924loPI   C5A13093  15.165  15.187   8.472 -0.1833  0.0152 -0.0353
  924loPI   C6A13094  15.261  15.508   8.818  0.1492 -0.1009 -0.1391
  924loPI   C1B13095  14.923  14.349   6.819  0.0777  0.1972 -0.1809
  924loPI   C2B13096  14.941  14.386   7.250 -0.0876 -0.2342 -0.0999
  924loPI   C3B13097  15.044  14.310   7.637  0.2052 -0.0675 -0.0063
  924loPI   C4B13098  15.056  14.271   7.977 -0.3034 -0.2287 -0.0799
  925loPI    C113099  17.388   0.096   6.055  0.0420  0.1819  0.1352
  925loPI    C213100  17.440   0.091   5.658  0.1837  0.2322  0.1527
  925loPI    C313101  17.329   0.429   5.840  0.1290  0.2118  0.1575
  925loPI   PO413102  17.312  -0.209   6.101  0.1221  0.1470  0.0223
  925loPI   GL113103  17.572  -0.336   6.369 -0.0162  0.1467 -0.3484
  925loPI   GL213104  17.833  -0.088   6.319  0.0951  0.1181 -0.3600
  925loPI   C1A13105  17.518  -0.464   6.738  0.0735  0.1350  0.1952
  925loPI   C2A13106  17.598  -0.718   7.081  0.0123  0.1627  0.1141
  925loPI   C3A13107  17.580  -0.700   7.481  0.3134 -0.1989  0.1317
  925loPI   C4A13108  17.704  -0.753   7.943 -0.0875  0.0166 -0.2044
  925loPI   C5A13109  17.553  -0.968   8.262  0.3895  0.0294 -0.0888
  925loPI   C6A13110  17.150  -1.050   8.386 -0.0190 -0.1183  0.3178
  925loPI   C1B13111  18.011  -0.209   6.792  0.0090 -0.1376 -0.3487
  925loPI   C2B13112  17.908  -0.275   7.185 -0.3638  0.0848 -0.1053
  925loPI   C3B13113  17.767  -0.162   7.651 -0.1043  0.1599  0.1080
  925loPI   C4B13114  17.982  -0.250   8.026  0.2171  0.2498 -0.0036
  926loPI    C113115   6.618   7.322   5.877  0.2454 -0.1314  0.0372
  926loPI    C213116   6.628   7.504   5.521 -0.1127  0.1233  0.1510
  926loPI    C313117   6.666   7.106   5.543 -0.1159  0.1024 -0.1725
  926loPI   PO413118   6.644   7.544   6.056  0.0927  0.2337 -0.0426
  926loPI   GL113119   6.480   7.628   6.489 -0.0230  0.0387  0.3364
  926loPI   GL213120   6.217   7.873   6.610 -0.2376  0.2468 -0.1914
  926loPI   C1A13121   6.630   7.731   6.801 -0.0948  0.0364 -0.4563
  926loPI   C2A13122   6.649   7.819   7.257 -0.0464 -0.0004 -0.2088
  926loPI   C3A13123   6.559   7.926   7.495 -0.2662  0.0318  0.0564
  926loPI   C4A13124   6.617   8.143   7.922  0.0244  0.1549  0.2306
  926loPI   C5A13125   6.695   8.174   8.376 -0.0519 -0.1281 -0.1394
  926loPI   C6A13126   6.742   8.039   8.809  0.0538 -0.2123  0.1261
  926loPI   C1B13127   6.223   7.948   7.049  0.2120 -0.1243  0.0601
  926loPI   C2B13128   6.143   8.310   7.357  0.5599  0.1114  0.1507
  926loPI   C3B13129   6.177   8.420   7.782  0.0158  0.0436  0.0972
  926loPI   C4B13130   6.215   8.232   8.140 -0.1301  0.1806 -0.1938
  927loPI    C113131   8.418   9.320   5.625  0.0279 -0.0501  0.0497
  927loPI    C213132   8.665   9.158   5.356 -0.0143 -0.0679  0.0215
  927loPI    C313133   8.415   9.449   5.247 -0.1020 -0.1441  0.0178
  927loPI   PO413134   8.375   9.118   5.814 -0.1741 -0.1741  0.1426
  927loPI   GL113135   8.528   9.086   6.279  0.3794 -0.1146 -0.0503
  927loPI   GL213136   8.801   9.130   6.354 -0.0435  0.2025  0.0774
  927loPI   C1A13137   8.210   9.233   6.624  0.1808 -0.0665 -0.0862
  927loPI   C2A13138   8.172   9.358   6.967 -0.1908  0.3682  0.0979
  927loPI   C3A13139   8.343   9.483   7.391 -0.0143 -0.2435  0.0076
  927loPI   C4A13140   8.360   9.449   7.862 -0.2389 -0.2676  0.1563
  927loPI   C5A13141   8.625   9.823   8.242  0.1249  0.1971 -0.2470
  927loPI   C6A13142   8.861   9.734   8.571  0.2101  0.0083  0.0118
  927loPI   C1B13143   8.680   9.060   6.792 -0.3675  0.2393 -0.0848
  927loPI   C2B13144   8.734   9.101   7.148  0.3548  0.3497  0.0127
  927loPI   C3B13145   8.813   9.443   7.531  0.3243  0.1039 -0.1719
  927loPI   C4B13146   8.670   9.845   7.717  0.0155 -0.0576 -0.3803
  928loPI    C113147   7.222  17.176   5.749 -0.2607 -0.0930 -0.1195
  928loPI    C213148   7.422  17.018   5.441 -0.0866  0.1697 -0.1446
  928loPI    C313149   7.613  17.246   5.708 -0.3131  0.2571 -0.0547
  928loPI   PO413150   7.035  16.943   5.859 -0.0130 -0.1013  0.2656
  928loPI   GL113151   7.202  16.724   6.262 -0.1820  0.1261  0.1130
  928loPI   GL213152   7.386  16.887   6.319  0.3058 -0.0631  0.1024
  928loPI   C1A13153   6.831  16.905   6.510  0.1303 -0.2540 -0.1451
  928loPI   C2A13154   6.785  16.798   6.962 -0.1684  0.0969  0.1748
  928loPI   C3A13155   6.756  16.669   7.345 -0.0497 -0.0761 -0.0367
  928loPI   C4A13156   6.607  16.545   7.786 -0.0366  0.1901 -0.0839
  928loPI   C5A13157   6.851  16.363   8.208 -0.1392 -0.3538  0.0319
  928loPI   C6A13158   7.286  16.457   8.401  0.0534  0.0429 -0.2737
  928loPI   C1B13159   7.271  16.793   6.824  0.1920 -0.1637 -0.1166
  928loPI   C2B13160   7.227  16.841   7.195  0.1868 -0.1332 -0.0129
  928loPI   C3B13161   7.101  16.952   7.614 -0.3207  0.3583  0.2159
  928loPI   C4B13162   7.029  16.739   7.906  0.0990 -0.3245 -0.1363
  929loPI    C113163  14.236  14.896   5.484 -0.1742 -0.5010 -0.1557
  929loPI    C213164  13.980  14.990   5.191 -0.2249 -0.2371 -0.0297
  929loPI    C313165  14.370  14.954   5.112 -0.2194 -0.0261 -0.1042
  929loPI   PO413166  14.201  14.986   5.693 -0.0128 -0.0615  0.2378
  929loPI   GL113167  14.299  14.963   6.197  0.0539  0.0307  0.1224
  929loPI   GL213168  14.510  15.104   6.373 -0.1599  0.0059  0.0895
  929loPI   C1A13169  14.066  14.782   6.472  0.1744  0.1659  0.1650
  929loPI   C2A13170  14.010  14.847   6.874  0.0275  0.0081  0.1308
  929loPI   C3A13171  14.053  14.824   7.303 -0.0566  0.1999 -0.0113
  929loPI   C4A13172  14.175  14.883   7.736  0.3121  0.0401  0.4452
  929loPI   C5A13173  14.330  14.963   8.219 -0.2817  0.1514 -0.0660
  929loPI   C6A13174  14.641  15.078   8.462  0.0897 -0.2621 -0.0827
  929loPI   C1B13175  14.470  15.028   6.768 -0.1559  0.2549 -0.0879
  929loPI   C2B13176  14.562  15.082   7.306  0.1201 -0.2967  0.0670
  929loPI   C3B13177  14.625  15.131   7.773  0.0755 -0.1515 -0.0372
  929loPI   C4B13178  14.885  15.384   7.990  0.0621 -0.0343 -0.1629
  930loPI    C113179  17.824   1.143   5.695  0.0987  0.1758 -0.0389
  930loPI    C213180  17.686   1.386   5.981  0.1199 -0.0381  0.1563
  930loPI    C313181  17.456   1.296   5.667  0.0813  0.1660  0.1243
  930loPI   PO413182  17.898   0.892   5.914  0.0931 -0.1000 -0.1237
  930loPI   GL113183  17.944   0.872   6.322 -0.0131  0.0378 -0.0185
  930loPI   GL213184  17.700   1.074   6.410  0.1121 -0.2363 -0.2819
  930loPI   C1A13185  17.898   0.742   6.726 -0.0235  0.3762  0.0358
  930loPI   C2A13186  17.788   0.717   7.111 -0.0462  0.3055  0.3154
  930loPI   C3A13187  17.952   0.647   7.589  0.0448  0.3504 -0.0777
  930loPI   C4A13188  18.081   0.654   7.996 -0.1559  0.1292 -0.0060
  930loPI   C5A13189  18.164   0.599   8.408  0.1313 -0.0565 -0.0170
  930loPI   C6A13190  18.424   0.197   8.667 -0.3397  0.1434 -0.1483
  930loPI   C1B13191  17.796   1.212   6.797  0.0582  0.1262 -0.2503
  930loPI   C2B13192  17.552   1.242   7.114  0.1905  0.3484 -0.1090
  930loPI   C3B13193  17.660   1.380   7.499  0.2511  0.0696 -0.2193
  930loPI   C4B13194  17.625   1.617   7.854 -0.2192 -0.1039  0.1201
  931loPI    C113195  16.587   0.297   5.873 -0.2408 -0.0867 -0.0922
  931loPI    C213196  16.907   0.127   5.705  0.0138  0.1053  0.1860
  931loPI    C313197  16.646   0.328   5.479  0.1698  0.0764 -0.0235
  931loPI   PO413198  16.510   0.187   6.016  0.3437  0.3703 -0.3782
  931loPI   GL113199  16.396   0.221   6.463  0.2972  0.2641  0.2736
  931loPI   GL213200  16.711   0.325   6.538  0.3293  0.2040  0.1208
  931loPI   C1A13201  16.282   0.043   6.867  0.3082 -0.1165  0.0116
  931loPI   C2A13202  16.172  -0.014   7.274 -0.1352  0.0609 -0.0177
  931loPI   C3A13203  16.170  -0.207   7.700  0.3106 -0.1938  0.2076
  931loPI   C4A13204  16.012  -0.265   8.068 -0.1627 -0.0133  0.0063
  931loPI   C5A13205  15.936  -0.615   8.360  0.0900 -0.0039 -0.1687
  931loPI   C6A13206  15.647  -0.955   8.244  0.0855  0.0798  0.0464
  931loPI   C1B13207  16.832   0.144   6.857  0.0213 -0.2943  0.0856
  931loPI   C2B13208  17.020   0.153   7.305  0.0207  0.0750 -0.0967
  931loPI   C3B13209  17.103   0.078   7.726 -0.1280  0.2231 -0.0930
  931loPI   C4B13210  16.950  -0.089   8.087  0.0340 -0.0570 -0.0279
  932loPI    C113211   6.270  17.716   5.845 -0.1150  0.2419  0.0054
  932loPI    C213212   6.394  17.809   6.214  0.2758  0.1075 -0.0866
  932loPI    C313213   6.554  17.993   5.897 -0.2113  0.3785 -0.1860
  932loPI   PO413214   6.280  17.458   5.835  0.2372  0.0183 -0.0289
  932loPI   GL113215   6.166  17.190   6.204 -0.1212 -0.2482  0.3987
  932loPI   GL213216   6.011  17.500   6.320 -0.0707  0.0170  0.5391
  932loPI   C1A13217   6.348  17.028   6.574  0.0495 -0.1683 -0.1717
  932loPI   C2A13218   6.338  17.105   7.117 -0.1614  0.1110 -0.0409
  932loPI   C3A13219   6.217  17.132   7.431 -0.1467 -0.2729 -0.0655
  932loPI   C4A13220   6.065  17.216   7.729 -0.0229  0.1015 -0.2329
  932loPI   C5A13221   6.002  17.239   8.117  0.3580 -0.2378 -0.1306
  932loPI   C6A13222   5.943  17.305   8.568 -0.0926  0.0894  0.2659
  932loPI   C1B13223   6.013  17.360   6.735  0.2854 -0.0163 -0.2548
  932loPI   C2B13224   5.873  17.287   7.087 -0.4618 -0.0915  0.3549
  932loPI   C3B13225   5.706  17.567   7.426  0.2611 -0.2485 -0.1043
  932loPI   C4B13226   5.688  17.593   7.922 -0.0257  0.1412  0.3077
  933loPI    C113227  12.881   4.407   5.860  0.0720 -0.2560  0.0774
  933loPI    C213228  13.210   4.240   6.015  0.2443 -0.0419 -0.0513
  933loPI    C313229  13.233   4.450   5.675 -0.0358 -0.0672 -0.0887
  933loPI   PO413230  12.766   4.512   6.068 -0.3913  0.3182  0.1143
  933loPI   GL113231  12.809   4.651   6.571 -0.0468  0.0969 -0.3019
  933loPI   GL213232  13.017   4.614   6.769  0.0875 -0.4241  0.0841
  933loPI   C1A13233  12.449   4.762   6.883  0.1407 -0.1168 -0.3093
  933loPI   C2A13234  12.331   4.760   7.291 -0.1028 -0.2254 -0.2803
  933loPI   C3A13235  12.251   4.874   7.675  0.0967  0.1803  0.1458
  933loPI   C4A13236  12.149   4.874   8.141  0.0732  0.1643 -0.4418
  933loPI   C5A13237  12.337   5.048   8.541  0.3234 -0.1318 -0.1375
  933loPI   C6A13238  12.313   4.955   9.016 -0.2196  0.2632 -0.0009
  933loPI   C1B13239  13.087   4.532   7.182  0.3181  0.2460 -0.1857
  933loPI   C2B13240  13.035   4.687   7.647 -0.0613 -0.0356  0.0329
  933loPI   C3B13241  13.028   4.803   8.038 -0.0101  0.2050 -0.0227
  933loPI   C4B13242  13.137   5.006   8.427  0.0880  0.0969 -0.0343
  934loPI    C113243  16.249   5.487   5.566 -0.1236 -0.1530 -0.1551
  934loPI    C213244  16.436   5.692   5.277 -0.2071 -0.1628 -0.2161
  934loPI    C313245  16.616   5.378   5.448 -0.0576 -0.0079 -0.0865
  934loPI   PO413246  16.195   5.661   5.783  0.3644  0.0002 -0.1011
  934loPI   GL113247  16.036   5.691   6.156 -0.3203 -0.3449 -0.0227
  934loPI   GL213248  16.258   5.957   6.335  0.0738  0.1302  0.0786
  934loPI   C1A13249  15.721   5.572   6.509  0.3579 -0.0648  0.3825
  934loPI   C2A13250  15.543   5.645   6.983  0.2564  0.3711  0.1210
  934loPI   C3A13251  15.584   5.808   7.332  0.2558 -0.1374 -0.2545
  934loPI   C4A13252  15.637   5.865   7.763 -0.2687  0.1166 -0.0474
  934loPI   C5A13253  15.698   5.844   8.125 -0.3208 -0.0320 -0.0282
  934loPI   C6A13254  16.072   5.791   8.359 -0.0677  0.2660 -0.0448
  934loPI   C1B13255  16.384   6.106   6.657 -0.1060 -0.0320  0.1123
  934loPI   C2B13256  16.346   6.090   7.095 -0.2842 -0.3863  0.0193
  934loPI   C3B13257  16.135   5.901   7.459 -0.2646  0.2531  0.0162
  934loPI   C4B13258  16.223   5.848   7.873  0.0383 -0.0897 -0.3191
  935loPI    C113259  17.449  15.187   5.799  0.2329  0.0697  0.0201
  935loPI    C213260  17.321  15.306   5.439  0.1444  0.1270  0.0700
  935loPI    C313261  17.212  14.949   5.583  0.3082  0.0368 -0.0266
  935loPI   PO413262  17.414  15.364   5.888  0.1952 -0.0940  0.0569
  935loPI   GL113263  17.467  15.474   6.285 -0.1470 -0.1354  0.1492
  935loPI   GL213264  17.429  15.188   6.343 -0.1641 -0.0906  0.0142
  935loPI   C1A13265  17.464  15.535   6.758 -0.4953 -0.1997 -0.3261
  935loPI   C2A13266  17.444  15.715   7.150 -0.1206  0.1167 -0.1544
  935loPI   C3A13267  17.509  15.564   7.567  0.1574 -0.2303  0.0214
  935loPI   C4A13268  17.570  15.497   7.898 -0.4460 -0.2878 -0.3352
  935loPI   C5A13269  17.776  15.600   8.332 -0.1383  0.1426  0.3198
  935loPI   C6A13270  17.650  15.955   8.421 -0.1840  0.2447  0.4022
  935loPI   C1B13271  17.200  15.105   6.814  0.3850  0.2146  0.2193
  935loPI   C2B13272  16.957  14.855   7.153 -0.0058  0.1027 -0.0397
  935loPI   C3B13273  16.907  14.968   7.560 -0.2209  0.0705 -0.0485
  935loPI   C4B13274  17.131  15.298   7.755 -0.0187 -0.0195 -0.7367
  936loPI    C113275   9.866  10.711   5.629 -0.0941  0.0180 -0.0934
  936loPI    C213276   9.477  10.623   5.600 -0.0853 -0.1275  0.1960
  936loPI    C313277   9.747  10.404   5.401 -0.1354 -0.1582  0.1613
  936loPI   PO413278   9.909  10.645   5.948 -0.0032 -0.0457  0.1434
  936loPI   GL113279   9.922  10.871   6.353  0.2204 -0.0268  0.0818
  936loPI   GL213280  10.064  11.095   6.303 -0.1215 -0.2307  0.2017
  936loPI   C1A13281   9.626  10.817   6.620 -0.4442 -0.1106 -0.3124
  936loPI   C2A13282   9.437  10.937   6.936 -0.1505 -0.0977  0.3035
  936loPI   C3A13283   9.309  11.056   7.284  0.0161 -0.2059 -0.0294
  936loPI   C4A13284   9.157  11.283   7.669  0.3260 -0.0816 -0.1313
  936loPI   C5A13285   8.790  11.570   7.653 -0.0487  0.5455  0.0594
  936loPI   C6A13286   8.463  11.643   7.943 -0.1258  0.4514  0.0172
  936loPI   C1B13287  10.066  11.001   6.795 -0.1071 -0.1264  0.2446
  936loPI   C2B13288   9.942  11.142   7.225  0.1539  0.3129  0.0854
  936loPI   C3B13289   9.796  11.083   7.624 -0.0901 -0.2933  0.0671
  936loPI   C4B13290   9.678  10.984   8.030  0.1258  0.3216 -0.2712
  937loPI    C113291   1.825   7.585   5.677  0.0869  0.2056  0.0731
  937loPI    C213292   1.964   7.291   5.445  0.0937  0.3392 -0.0939
  937loPI    C313293   1.571   7.330   5.504  0.0961  0.2633 -0.0260
  937loPI   PO413294   2.003   7.846   5.588 -0.1007 -0.0410  0.3924
  937loPI   GL113295   2.094   8.090   5.981  0.3213  0.2694 -0.2869
  937loPI   GL213296   2.111   8.420   5.954  0.0930  0.0460 -0.2092
  937loPI   C1A13297   1.909   8.166   6.309 -0.0701  0.1874 -0.2377
  937loPI   C2A13298   1.716   8.026   6.667 -0.0131  0.1088  0.3235
  937loPI   C3A13299   1.711   8.054   7.140 -0.4552  0.0094  0.0979
  937loPI   C4A13300   1.744   8.153   7.486 -0.0345 -0.0803 -0.4813
  937loPI   C5A13301   1.733   8.101   7.863 -0.0755  0.0867  0.0112
  937loPI   C6A13302   2.051   8.030   8.257 -0.0220  0.1329 -0.0500
  937loPI   C1B13303   2.198   8.566   6.412 -0.2473  0.0214 -0.1855
  937loPI   C2B13304   1.999   8.453   6.860  0.0288  0.1685  0.2111
  937loPI   C3B13305   1.950   8.529   7.212  0.2165 -0.0747  0.1787
  937loPI   C4B13306   1.601   8.781   7.429 -0.0812  0.2901 -0.2056
  938loPI    C113307   2.425  12.063   6.408 -0.0443  0.0090  0.3068
  938loPI    C213308   2.319  12.042   6.023  0.1271 -0.0705  0.2631
  938loPI    C313309   2.363  12.398   6.199 -0.0193 -0.0349  0.2286
  938loPI   PO413310   2.669  11.841   6.383 -0.1283  0.0423  0.1463
  938loPI   GL113311   3.145  11.749   6.510 -0.1350  0.3074 -0.2697
  938loPI   GL213312   3.030  11.945   6.705 -0.0452 -0.2742  0.0623
  938loPI   C1A13313   3.267  11.530   6.848 -0.2474  0.0572  0.1341
  938loPI   C2A13314   3.409  11.491   7.372  0.1384 -0.1240 -0.2862
  938loPI   C3A13315   3.361  11.521   7.814 -0.0029 -0.1021  0.3200
  938loPI   C4A13316   3.333  11.762   8.231 -0.2757 -0.2560 -0.4196
  938loPI   C5A13317   3.087  11.908   8.448 -0.2785 -0.2071 -0.2123
  938loPI   C6A13318   2.762  12.150   8.615  0.1673 -0.3144 -0.0142
  938loPI   C1B13319   3.076  11.945   7.184  0.2099 -0.0553  0.0096
  938loPI   C2B13320   2.943  11.840   7.606 -0.0787  0.1881  0.0507
  938loPI   C3B13321   2.779  11.802   8.068 -0.2355  0.2169  0.1801
  938loPI   C4B13322   2.490  11.823   8.389 -0.3600  0.1606  0.0371
  939loPI    C113323  11.497   1.803   5.923 -0.0955 -0.1236  0.1799
  939loPI    C213324  11.662   1.811   5.559 -0.2643 -0.0412  0.1045
  939loPI    C313325  11.860   1.646   5.864  0.0035  0.1510  0.0380
  939loPI   PO413326  11.233   1.772   5.917 -0.5610  0.3306 -0.0333
  939loPI   GL113327  11.149   1.725   6.348 -0.1360  0.2635 -0.1001
  939loPI   GL213328  11.115   2.072   6.327  0.0894  0.0511 -0.2578
  939loPI   C1A13329  11.422   1.599   6.721 -0.0716  0.1326  0.0162
  939loPI   C2A13330  11.574   1.362   7.102 -0.1428 -0.2704  0.0787
  939loPI   C3A13331  11.475   1.124   7.582 -0.1826  0.2752  0.2462
  939loPI   C4A13332  11.389   1.147   7.999  0.0869  0.1409 -0.1020
  939loPI   C5A13333  11.226   1.438   8.204  0.0150 -0.1160 -0.1807
  939loPI   C6A13334  11.056   1.841   8.304 -0.3368 -0.0819 -0.0511
  939loPI   C1B13335  11.079   1.969   6.834 -0.1004  0.0171  0.1450
  939loPI   C2B13336  11.177   2.253   7.238 -0.1598 -0.0687  0.2846
  939loPI   C3B13337  11.291   2.142   7.631  0.0670 -0.1824  0.2212
  939loPI   C4B13338  10.903   2.137   7.889 -0.4144  0.3412 -0.0922
  940loPI    C113339  15.814  11.155   5.533 -0.3443  0.0156 -0.2560
  940loPI    C213340  16.118  11.034   5.304 -0.2192  0.1555 -0.1661
  940loPI    C313341  15.916  11.366   5.209 -0.2193  0.1690 -0.1191
  940loPI   PO413342  15.877  11.223   5.729  0.0046  0.1007  0.0846
  940loPI   GL113343  15.804  11.102   6.177  0.1721 -0.0831 -0.2072
  940loPI   GL213344  15.430  11.039   6.258  0.3020  0.4565  0.0421
  940loPI   C1A13345  15.750  11.176   6.643  0.0981 -0.2769 -0.1537
  940loPI   C2A13346  15.748  11.247   7.049  0.2138 -0.3638  0.1869
  940loPI   C3A13347  15.792  11.236   7.448  0.0607  0.0118  0.2712
  940loPI   C4A13348  15.797  11.171   7.869 -0.0343  0.1597 -0.0239
  940loPI   C5A13349  16.121  11.408   8.208 -0.0054  0.1844 -0.3343
  940loPI   C6A13350  16.373  11.601   8.381 -0.0549 -0.1689 -0.0100
  940loPI   C1B13351  15.285  10.997   6.610  0.0666 -0.1285 -0.2862
  940loPI   C2B13352  15.261  11.061   7.076  0.2036 -0.1522  0.2539
  940loPI   C3B13353  15.336  11.073   7.366  0.0168  0.2103  0.1110
  940loPI   C4B13354  15.307  11.119   7.759 -0.2733  0.0636 -0.1021
  941loPI    C113355  10.631  11.038   5.711 -0.0405 -0.0666 -0.0535
  941loPI    C213356  11.007  11.020   5.576 -0.1405  0.0488 -0.3564
  941loPI    C313357  10.744  11.266   5.403 -0.3127  0.0957 -0.0363
  941loPI   PO413358  10.714  10.979   6.019  0.1331  0.2140  0.0299
  941loPI   GL113359  10.486  10.953   6.403 -0.2605  0.1853 -0.4076
  941loPI   GL213360  10.424  10.680   6.534 -0.0130 -0.1065 -0.0819
  941loPI   C1A13361  10.897  10.894   6.739  0.3700 -0.0537  0.0550
  941loPI   C2A13362  11.044  11.170   7.057  0.1310  0.3855  0.1980
  941loPI   C3A13363  11.238  11.165   7.445  0.0726 -0.2845  0.1095
  941loPI   C4A13364  11.494  10.916   7.706 -0.2318  0.1546 -0.0360
  941loPI   C5A13365  11.454  10.769   8.032 -0.0288  0.0848  0.2459
  941loPI   C6A13366  11.754  10.818   8.352  0.1328 -0.0346  0.0758
  941loPI   C1B13367  10.465  10.726   6.957  0.1248  0.3265  0.0648
  941loPI   C2B13368  10.470  11.123   7.248  0.0093 -0.1295 -0.0480
  941loPI   C3B13369  10.303  11.226   7.663  0.0065  0.0548 -0.2822
  941loPI   C4B13370  10.138  11.216   8.067  0.1225  0.1227 -0.2412
  942loPI    C113371   4.461  14.258   6.212 -0.0354  0.0550  0.0202
  942loPI    C213372   4.610  14.204   5.845  0.1193  0.0191  0.0875
  942loPI    C313373   4.264  14.398   5.894  0.0330 -0.0884 -0.0864
  942loPI   PO413374   4.715  14.454   6.376 -0.1549  0.0784  0.0165
  942loPI   GL113375   4.920  14.522   6.767 -0.2216  0.1892 -0.0315
  942loPI   GL213376   4.953  14.830   6.980  0.1922 -0.0155 -0.1489
  942loPI   C1A13377   4.605  14.400   7.073 -0.1312 -0.0032 -0.0045
  942loPI   C2A13378   4.319  14.588   7.304  0.0841 -0.0939 -0.1615
  942loPI   C3A13379   4.288  14.801   7.741  0.2298  0.0950  0.1510
  942loPI   C4A13380   4.491  14.941   8.153 -0.3038  0.0164 -0.2890
  942loPI   C5A13381   4.633  15.076   8.546 -0.1531  0.0411 -0.1166
  942loPI   C6A13382   4.834  14.795   8.869 -0.2102  0.0563  0.0600
  942loPI   C1B13383   4.737  14.861   7.319 -0.0823  0.2492  0.0047
  942loPI   C2B13384   4.866  14.832   7.743  0.1293 -0.0298  0.0567
  942loPI   C3B13385   4.962  14.768   8.185 -0.2440 -0.1406  0.3620
  942loPI   C4B13386   5.239  14.671   8.568  0.1799 -0.1871  0.3475
  943loPI    C113387   1.431   2.913   5.854 -0.1572  0.0898  0.1839
  943loPI    C213388   1.675   3.185   5.692  0.2548 -0.2246  0.2592
  943loPI    C313389   1.427   2.975   5.459  0.0777  0.0699  0.1770
  943loPI   PO413390   1.500   2.765   6.055  0.0026 -0.1105  0.0175
  943loPI   GL113391   1.762   2.874   6.339  0.0655  0.0333 -0.1437
  943loPI   GL213392   1.678   2.633   6.536 -0.2128 -0.0100  0.0012
  943loPI   C1A13393   1.840   3.065   6.782 -0.0975 -0.0839 -0.0371
  943loPI   C2A13394   2.024   3.337   7.055 -0.4428 -0.0198  0.0807
  943loPI   C3A13395   1.864   3.322   7.363  0.0174 -0.1995 -0.1333
  943loPI   C4A13396   1.862   3.485   7.653  0.3103  0.1076 -0.0944
  943loPI   C5A13397   1.752   3.660   8.091  0.0575  0.0105  0.1226
  943loPI   C6A13398   1.899   3.813   8.386 -0.2473 -0.0263 -0.1126
  943loPI   C1B13399   1.707   2.584   7.027 -0.0764 -0.0609 -0.1279
  943loPI   C2B13400   1.896   2.794   7.419 -0.0659 -0.3113 -0.0649
  943loPI   C3B13401   2.042   3.047   7.753 -0.3639  0.1643 -0.2708
  943loPI   C4B13402   1.877   3.209   8.079 -0.2304  0.1437 -0.0007
  944loPI    C113403   2.989   1.758   5.962 -0.3295 -0.2286 -0.2231
  944loPI    C213404   3.353   1.595   5.940 -0.1117  0.2141 -0.0280
  944loPI    C313405   3.104   1.489   6.235 -0.0950  0.0031 -0.0883
  944loPI   PO413406   3.092   2.054   5.998  0.1783 -0.0499 -0.0830
  944loPI   GL113407   3.130   2.209   6.457 -0.2473  0.1342  0.0360
  944loPI   GL213408   3.390   2.315   6.316 -0.0192  0.0384  0.1658
  944loPI   C1A13409   3.042   2.191   6.912  0.0868  0.0498  0.2149
  944loPI   C2A13410   2.987   2.024   7.318 -0.1022 -0.1898  0.0205
  944loPI   C3A13411   2.967   2.041   7.753 -0.0871 -0.0516 -0.3483
  944loPI   C4A13412   3.092   2.264   8.135 -0.3083  0.3177 -0.1773
  944loPI   C5A13413   3.130   2.427   8.601  0.0842  0.1610 -0.0820
  944loPI   C6A13414   3.135   2.784   8.897  0.2521  0.2234 -0.2524
  944loPI   C1B13415   3.637   2.076   6.658 -0.2791 -0.2238  0.2069
  944loPI   C2B13416   3.625   2.126   7.075  0.1331  0.4459  0.2289
  944loPI   C3B13417   3.459   2.009   7.517 -0.2368  0.0284 -0.0127
  944loPI   C4B13418   3.555   1.951   7.914  0.1095 -0.1713  0.1948
  945loPI    C113419  13.150   0.079   5.805  0.1460  0.0849 -0.0019
  945loPI    C213420  13.203   0.450   5.664  0.0616  0.1842  0.2230
  945loPI    C313421  13.057   0.164   5.425 -0.0134  0.3323  0.0899
  945loPI   PO413422  13.010   0.082   6.005 -0.1768 -0.0539 -0.1676
  945loPI   GL113423  12.954   0.019   6.375  0.1985  0.0742  0.0475
  945loPI   GL213424  13.004  -0.241   6.542  0.1533  0.1392  0.0021
  945loPI   C1A13425  12.776   0.225   6.809  0.1050  0.1693 -0.1656
  945loPI   C2A13426  12.591   0.320   7.178 -0.3633 -0.0431  0.0873
  945loPI   C3A13427  12.494   0.300   7.582  0.0374  0.1933  0.1144
  945loPI   C4A13428  12.453   0.455   7.998  0.1712 -0.0260 -0.0611
  945loPI   C5A13429  12.121   0.541   8.351 -0.4449 -0.0695 -0.1690
  945loPI   C6A13430  11.980   0.405   8.749 -0.0960  0.1211  0.0611
  945loPI   C1B13431  13.138  -0.174   6.877  0.0420 -0.3172 -0.2732
  945loPI   C2B13432  13.023   0.012   7.311  0.1155 -0.0983  0.0644
  945loPI   C3B13433  12.969   0.198   7.785 -0.0323  0.0880  0.2569
  945loPI   C4B13434  12.777   0.049   8.135 -0.1020  0.1271 -0.1748
  946loPI    C113435  17.060   8.934   5.592 -0.0822  0.3578 -0.0837
  946loPI    C213436  16.858   8.687   5.351 -0.0112  0.1471  0.0695
  946loPI    C313437  17.074   8.985   5.195 -0.0628  0.0868 -0.1203
  946loPI   PO413438  17.050   8.777   5.838 -0.1479  0.2888 -0.1118
  946loPI   GL113439  17.356   8.594   6.142 -0.0453 -0.1282 -0.2795
  946loPI   GL213440  17.048   8.405   6.216  0.0892  0.0192 -0.1267
  946loPI   C1A13441  17.555   8.552   6.523  0.0359  0.1051  0.0817
  946loPI   C2A13442  17.798   8.366   6.880 -0.2169  0.0900  0.0641
  946loPI   C3A13443  17.739   8.374   7.322 -0.1140 -0.1960 -0.0569
  946loPI   C4A13444  17.565   8.510   7.731 -0.0242  0.0310  0.3605
  946loPI   C5A13445  17.603   8.508   8.187  0.2709  0.0808 -0.0507
  946loPI   C6A13446  17.576   8.182   8.455  0.4391 -0.1427  0.2498
  946loPI   C1B13447  17.089   8.582   6.672  0.0985 -0.1805 -0.0897
  946loPI   C2B13448  17.308   8.420   7.004  0.4903  0.0272 -0.3279
  946loPI   C3B13449  17.063   8.321   7.278 -0.0204 -0.0480 -0.0707
  946loPI   C4B13450  16.846   8.082   7.629 -0.0977  0.0327 -0.1380
  947loPI    C113451   5.159  12.666   5.973 -0.0618  0.1434 -0.0571
  947loPI    C213452   5.472  12.559   5.749  0.0457  0.1206  0.1018
  947loPI    C313453   5.466  12.918   5.926  0.1615 -0.0276  0.4138
  947loPI   PO413454   5.087  12.522   6.179  0.0762 -0.2246 -0.0909
  947loPI   GL113455   5.102  12.585   6.617  0.1010 -0.4025  0.3702
  947loPI   GL213456   4.809  12.532   6.585 -0.2718  0.1004 -0.0263
  947loPI   C1A13457   5.261  12.487   6.988 -0.2049  0.1158 -0.1351
  947loPI   C2A13458   5.270  12.391   7.498 -0.0341  0.1216  0.1823
  947loPI   C3A13459   5.133  12.547   7.906 -0.0905 -0.2795  0.1180
  947loPI   C4A13460   4.989  12.593   8.358  0.3049  0.0878  0.3005
  947loPI   C5A13461   4.715  12.815   8.751 -0.2570  0.2985 -0.2456
  947loPI   C6A13462   4.531  12.907   9.007  0.1453 -0.2350 -0.0209
  947loPI   C1B13463   4.788  12.702   7.071  0.0940 -0.0504  0.1240
  947loPI   C2B13464   4.862  12.720   7.544  0.0537  0.1703  0.0257
  947loPI   C3B13465   4.874  12.923   7.899  0.0403 -0.0691 -0.2809
  947loPI   C4B13466   4.941  13.096   8.338  0.2415  0.0820 -0.1459
  948loPI    C113467  10.842  10.574   5.803  0.0825  0.0435 -0.0097
  948loPI    C213468  10.638  10.244   5.707 -0.1044  0.1819 -0.0949
  948loPI    C313469  10.816  10.460   5.421  0.0020  0.1658 -0.0414
  948loPI   PO413470  11.018  10.487   6.019 -0.2349  0.1154 -0.2332
  948loPI   GL113471  10.810  10.354   6.359 -0.3500  0.0544 -0.0221
  948loPI   GL213472  10.568  10.138   6.205 -0.2096  0.1919  0.1363
  948loPI   C1A13473  10.800  10.304   6.827  0.0824  0.5150  0.0209
  948loPI   C2A13474  10.703  10.335   7.214  0.0891 -0.0252 -0.1394
  948loPI   C3A13475  10.533  10.313   7.668  0.0212  0.0093 -0.0539
  948loPI   C4A13476  10.449  10.003   7.930 -0.1401  0.2006  0.1521
  948loPI   C5A13477  10.176   9.773   8.230 -0.1324  0.1935 -0.0696
  948loPI   C6A13478   9.822  10.028   8.365  0.1863 -0.2418 -0.3193
  948loPI   C1B13479  10.391  10.214   6.680  0.0177  0.1918 -0.2499
  948loPI   C2B13480  10.298  10.053   7.097  0.1017  0.1037  0.0262
  948loPI   C3B13481  10.235   9.866   7.450  0.4272  0.1829  0.0671
  948loPI   C4B13482  10.103   9.544   7.766 -0.1340 -0.0422  0.1745
  949loPI    C113483   8.995  10.847   5.695 -0.0149 -0.1839  0.0662
  949loPI    C213484   8.919  10.627   5.370  0.0361  0.0973 -0.1401
  949loPI    C313485   9.175  10.934   5.348  0.2855 -0.0752  0.2447
  949loPI   PO413486   9.110  10.735   5.916 -0.4019 -0.0193  0.0284
  949loPI   GL113487   8.955  10.629   6.273 -0.2759  0.0037 -0.1346
  949loPI   GL213488   8.618  10.570   6.364  0.0216  0.0250  0.0763
  949loPI   C1A13489   9.181  10.370   6.648 -0.1414 -0.1594 -0.0135
  949loPI   C2A13490   9.482  10.453   6.918  0.3241  0.0762  0.2691
  949loPI   C3A13491   9.495  10.569   7.282  0.1086 -0.0384  0.0517
  949loPI   C4A13492   9.725  10.559   7.638  0.1465 -0.1504  0.2284
  949loPI   C5A13493  10.068  10.772   7.901  0.4029 -0.2120 -0.0102
  949loPI   C6A13494  10.447  10.828   8.109  0.4516 -0.1031  0.1692
  949loPI   C1B13495   8.502  10.490   6.826  0.0508  0.0022 -0.2340
  949loPI   C2B13496   8.539  10.578   7.267  0.1287 -0.0539 -0.0254
  949loPI   C3B13497   8.402  10.363   7.603 -0.1206 -0.0106 -0.0386
  949loPI   C4B13498   8.103  10.547   7.942 -0.1409  0.0973 -0.2755
  950loPI    C113499   8.576   7.522   5.706  0.1286  0.2253 -0.1026
  950loPI    C213500   8.279   7.715   5.519 -0.2457 -0.2919 -0.0644
  950loPI    C313501   8.494   7.440   5.323  0.0862 -0.0607 -0.0343
  950loPI   PO413502   8.460   7.523   5.987  0.1258 -0.1971  0.0112
  950loPI   GL113503   8.446   7.401   6.433  0.0895  0.1263 -0.2899
  950loPI   GL213504   8.154   7.308   6.338 -0.2039 -0.1430  0.0669
  950loPI   C1A13505   8.484   7.334   6.876  0.1918 -0.0754  0.1422
  950loPI   C2A13506   8.554   7.278   7.292  0.1240  0.0501 -0.1464
  950loPI   C3A13507   8.660   7.194   7.543  0.0307 -0.4322  0.0251
  950loPI   C4A13508   9.026   7.098   7.844 -0.2154  0.1045 -0.1284
  950loPI   C5A13509   9.074   6.784   8.197 -0.2057 -0.0321  0.0439
  950loPI   C6A13510   9.251   6.530   8.483  0.1723  0.1091  0.0067
  950loPI   C1B13511   8.132   7.034   6.716 -0.2257  0.2273  0.0988
  950loPI   C2B13512   8.057   7.023   7.146 -0.1136 -0.0441 -0.0729
  950loPI   C3B13513   8.172   6.992   7.509  0.1462  0.0965  0.2931
  950loPI   C4B13514   8.178   6.973   7.861  0.0884  0.1834  0.1242
  951loPI    C113515  10.179  10.141   5.588  0.0428 -0.1875  0.0842
  951loPI    C213516   9.860   9.934   5.464  0.0719 -0.0479 -0.2337
  951loPI    C313517  10.228   9.801   5.382  0.0959 -0.1186 -0.0177
  951loPI   PO413518  10.094  10.183   5.841  0.3344 -0.0933 -0.2858
  951loPI   GL113519  10.009  10.388   6.386 -0.0942 -0.1559 -0.2934
  951loPI   GL213520  10.063  10.079   6.339  0.1919  0.1622  0.2771
  951loPI   C1A13521   9.986  10.520   6.759  0.0863  0.1596 -0.4281
  951loPI   C2A13522   9.995  10.654   7.195  0.2029  0.4218  0.1964
  951loPI   C3A13523  10.318  10.696   7.495  0.0002 -0.0454 -0.2113
  951loPI   C4A13524  10.725  10.935   7.662  0.0443  0.1220 -0.2133
  951loPI   C5A13525  11.089  11.175   7.882  0.2049  0.2297  0.0191
  951loPI   C6A13526  11.417  11.220   8.190  0.2439  0.0445  0.2505
  951loPI   C1B13527  10.428   9.735   6.479  0.0842 -0.2514 -0.1129
  951loPI   C2B13528  10.431   9.375   6.745 -0.0787  0.2064 -0.0544
  951loPI   C3B13529  10.407   9.390   7.182  0.1450 -0.2419 -0.1766
  951loPI   C4B13530  10.544   9.468   7.548  0.1775 -0.1219 -0.0681
  952loPI    C113531   8.847  15.132   5.553  0.2206  0.3076 -0.1077
  952loPI    C213532   8.958  14.748   5.540 -0.0038  0.2415 -0.1126
  952loPI    C313533   8.949  14.965   5.204 -0.0503  0.2003 -0.1380
  952loPI   PO413534   8.716  15.162   5.750  0.2937  0.1999 -0.0295
  952loPI   GL113535   8.756  15.274   6.181 -0.1385  0.0068  0.0178
  952loPI   GL213536   8.467  15.263   6.202  0.2448 -0.1342  0.2980
  952loPI   C1A13537   8.704  15.442   6.675  0.0313  0.1617  0.2112
  952loPI   C2A13538   8.848  15.408   7.150  0.0770 -0.0428 -0.0701
  952loPI   C3A13539   8.993  15.378   7.521  0.1030  0.3346  0.1595
  952loPI   C4A13540   9.417  15.284   7.870 -0.2265 -0.2001  0.1385
  952loPI   C5A13541   9.798  15.358   8.086  0.1101 -0.0873 -0.1943
  952loPI   C6A13542  10.226  15.328   8.341  0.1635 -0.0828  0.4045
  952loPI   C1B13543   8.278  15.238   6.588  0.1742 -0.1342  0.0675
  952loPI   C2B13544   8.332  15.401   7.013 -0.0166  0.1106  0.2810
  952loPI   C3B13545   8.388  15.459   7.407  0.2220  0.2197 -0.0162
  952loPI   C4B13546   8.562  15.398   7.823  0.2908 -0.0508 -0.0134
  953loPI    C113547   3.167   4.191   5.562 -0.0111 -0.3798 -0.0725
  953loPI    C213548   3.367   4.346   5.252  0.0506 -0.0541  0.1251
  953loPI    C313549   2.975   4.274   5.221 -0.0393  0.4085  0.1158
  953loPI   PO413550   3.320   4.310   5.790 -0.0068  0.0305  0.3923
  953loPI   GL113551   3.403   4.602   6.098 -0.0482 -0.3312 -0.0649
  953loPI   GL213552   3.620   4.923   6.156 -0.0789  0.1296  0.0005
  953loPI   C1A13553   3.509   4.556   6.551  0.0450 -0.2329  0.0848
  953loPI   C2A13554   3.527   4.445   6.959 -0.0293  0.0079 -0.1493
  953loPI   C3A13555   3.360   4.533   7.399  0.0039  0.2586 -0.0813
  953loPI   C4A13556   3.222   4.722   7.771  0.3499  0.2188  0.2173
  953loPI   C5A13557   3.314   5.007   8.106 -0.1284 -0.0597  0.0062
  953loPI   C6A13558   3.470   5.446   8.062  0.1004  0.1064  0.1433
  953loPI   C1B13559   3.719   5.023   6.507  0.1087  0.2952  0.1476
  953loPI   C2B13560   3.785   5.040   6.970 -0.2532 -0.1487  0.6229
  953loPI   C3B13561   3.876   5.150   7.380  0.0507 -0.0543  0.1835
  953loPI   C4B13562   3.975   5.353   7.747  0.2827  0.0258 -0.3341
  954loPI    C113563   4.325   5.310   5.220  0.2999 -0.1817 -0.2283
  954loPI    C213564   4.206   4.994   5.006 -0.2933 -0.1619  0.0538
  954loPI    C313565   4.092   5.362   4.899  0.1298 -0.0677 -0.0883
  954loPI   PO413566   4.595   5.204   5.332 -0.0094  0.2294 -0.1577
  954loPI   GL113567   4.553   4.856   5.768  0.1282  0.2183  0.0696
  954loPI   GL213568   4.474   4.606   5.988  0.0246  0.1747 -0.0879
  954loPI   C1A13569   4.746   5.109   5.978 -0.0953 -0.2067 -0.1125
  954loPI   C2A13570   4.846   5.115   6.388 -0.1470  0.0538 -0.3290
  954loPI   C3A13571   4.857   5.184   6.732  0.2776  0.1154 -0.1943
  954loPI   C4A13572   4.931   5.048   7.105  0.1584  0.0649  0.3017
  954loPI   C5A13573   4.924   5.007   7.545  0.0520 -0.1577 -0.1093
  954loPI   C6A13574   4.686   4.784   7.888 -0.0332  0.1609  0.0772
  954loPI   C1B13575   4.461   4.473   6.433  0.0027  0.1192 -0.0907
  954loPI   C2B13576   4.238   4.149   6.723 -0.2862  0.2753 -0.3551
  954loPI   C3B13577   4.284   4.146   7.184 -0.1191 -0.1009  0.0194
  954loPI   C4B13578   4.077   4.316   7.595  0.1217  0.1567  0.1689
  955loPI    C113579  11.395   4.986   5.917 -0.1136  0.0038 -0.0052
  955loPI    C213580  11.164   5.152   5.636  0.0596  0.3098  0.0281
  955loPI    C313581  11.560   5.209   5.629  0.1296 -0.1339  0.0245
  955loPI   PO413582  11.272   5.118   6.167  0.1262 -0.0266  0.0192
  955loPI   GL113583  11.089   5.246   6.525 -0.3120  0.3367  0.1398
  955loPI   GL213584  10.847   5.435   6.565 -0.0460 -0.0901 -0.0053
  955loPI   C1A13585  11.436   5.278   6.928  0.0067  0.1956 -0.2473
  955loPI   C2A13586  11.445   5.475   7.285 -0.0322 -0.3023 -0.2215
  955loPI   C3A13587  11.532   5.463   7.781 -0.1775  0.0618  0.0486
  955loPI   C4A13588  11.862   5.600   7.989  0.2328  0.0259  0.5077
  955loPI   C5A13589  12.012   5.344   8.161 -0.1204 -0.0100 -0.2025
  955loPI   C6A13590  12.040   5.420   8.732 -0.0930 -0.0139  0.0896
  955loPI   C1B13591  11.012   5.592   6.957 -0.0431  0.0654  0.0614
  955loPI   C2B13592  10.962   5.476   7.360  0.0402  0.1356 -0.1312
  955loPI   C3B13593  11.034   5.518   7.767 -0.1155  0.0652  0.3209
  955loPI   C4B13594  11.126   5.362   8.207  0.0664 -0.0996  0.0794
  956loPI    C113595  15.758   7.784   5.639  0.1495 -0.0200 -0.1150
  956loPI    C213596  15.657   7.414   5.526  0.2197 -0.0506 -0.0782
  956loPI    C313597  16.041   7.525   5.527  0.2574 -0.1609  0.4527
  956loPI   PO413598  15.649   7.783   5.885  0.1650  0.0258 -0.1795
  956loPI   GL113599  15.796   7.668   6.198  0.0370  0.2369 -0.3068
  956loPI   GL213600  15.572   7.815   6.389 -0.2805 -0.0794 -0.0324
  956loPI   C1A13601  16.006   7.805   6.546 -0.3827 -0.0694  0.1376
  956loPI   C2A13602  16.034   7.959   6.992 -0.0233  0.0791 -0.1612
  956loPI   C3A13603  15.890   7.949   7.407  0.0642 -0.0796 -0.0506
  956loPI   C4A13604  15.964   7.918   7.870 -0.3084 -0.0528  0.1389
  956loPI   C5A13605  15.860   7.835   8.252 -0.2142 -0.3243  0.1523
  956loPI   C6A13606  15.958   7.493   8.500 -0.1010  0.2171 -0.2121
  956loPI   C1B13607  15.597   7.741   6.870 -0.1752  0.0703 -0.0949
  956loPI   C2B13608  15.469   7.677   7.273  0.2391  0.3526 -0.1355
  956loPI   C3B13609  15.444   7.796   7.702  0.1009  0.1852 -0.0278
  956loPI   C4B13610  15.400   7.719   8.099 -0.0081  0.2113  0.0118
  957loPI    C113611   9.022  14.214   5.951 -0.1970  0.0553 -0.0609
  957loPI    C213612   8.977  13.892   5.718  0.0598 -0.1499  0.1665
  957loPI    C313613   9.100  14.238   5.560 -0.1605 -0.1768 -0.0694
  957loPI   PO413614   9.082  14.155   6.158  0.1188  0.0935 -0.1957
  957loPI   GL113615   8.916  14.062   6.583 -0.0644  0.0163 -0.2292
  957loPI   GL213616   8.735  14.446   6.578  0.2177  0.1455 -0.0255
  957loPI   C1A13617   8.886  14.066   7.043  0.4065  0.1452  0.1630
  957loPI   C2A13618   8.936  14.026   7.468 -0.2095 -0.1967  0.1851
  957loPI   C3A13619   8.921  13.989   7.938 -0.1666  0.1023  0.2811
  957loPI   C4A13620   8.636  14.179   8.217  0.1713 -0.0740 -0.0025
  957loPI   C5A13621   8.186  14.281   8.320  0.1521 -0.0491  0.0521
  957loPI   C6A13622   7.872  14.036   8.030  0.2424 -0.0263  0.0370
  957loPI   C1B13623   8.780  14.587   7.030  0.0801 -0.1561  0.0321
  957loPI   C2B13624   8.739  14.488   7.459  0.0814 -0.2475  0.3182
  957loPI   C3B13625   8.912  14.491   7.861  0.1050  0.0163  0.1525
  957loPI   C4B13626   9.042  14.436   8.251  0.1157 -0.0923  0.0371
  958loPI    C113627   0.952   6.229   5.540 -0.0476  0.1498 -0.2316
  958loPI    C213628   0.870   6.085   5.176 -0.0011 -0.1558 -0.1238
  958loPI    C313629   1.225   6.011   5.345  0.0089  0.0554 -0.0497
  958loPI   PO413630   0.756   6.050   5.735 -0.1793  0.1452  0.0271
  958loPI   GL113631   0.850   6.143   6.160 -0.0844 -0.0405 -0.2031
  958loPI   GL213632   0.864   6.454   6.232  0.4794  0.0268 -0.0688
  958loPI   C1A13633   0.982   6.103   6.516  0.1235 -0.0647  0.2663
  958loPI   C2A13634   1.037   6.098   6.840  0.0226  0.1670 -0.0460
  958loPI   C3A13635   0.918   6.040   7.187  0.1611 -0.2415  0.2858
  958loPI   C4A13636   0.837   5.842   7.462 -0.1817 -0.1182 -0.1955
  958loPI   C5A13637   0.495   5.685   7.737 -0.1092  0.3661  0.1742
  958loPI   C6A13638   0.548   5.641   8.161  0.4854 -0.0194  0.1495
  958loPI   C1B13639   0.827   6.540   6.588 -0.1902 -0.0987 -0.1047
  958loPI   C2B13640   0.846   6.554   7.092  0.1132 -0.2391  0.0934
  958loPI   C3B13641   0.870   6.598   7.549  0.3309  0.0195  0.0948
  958loPI   C4B13642   0.629   6.648   7.965 -0.2011  0.1159  0.1161
  959loPI    C113643  10.764  11.476   5.853  0.2017 -0.0335 -0.0774
  959loPI    C213644  10.457  11.402   6.098  0.1356  0.1457 -0.1046
  959loPI    C313645  10.388  11.508   5.719  0.2357 -0.0203 -0.1700
  959loPI   PO413646  10.945  11.431   6.042 -0.1978  0.0530 -0.0896
  959loPI   GL113647  11.003  11.308   6.419  0.0528 -0.0252 -0.0548
  959loPI   GL213648  10.734  11.657   6.398 -0.0261  0.0449  0.1588
  959loPI   C1A13649  11.391  11.070   6.702  0.0511 -0.3100 -0.0173
  959loPI   C2A13650  11.596  11.021   7.088 -0.1960  0.0774 -0.1303
  959loPI   C3A13651  11.848  11.248   7.462  0.2214 -0.0172  0.0138
  959loPI   C4A13652  11.798  11.348   7.952 -0.5181 -0.2567  0.1028
  959loPI   C5A13653  12.076  11.162   8.425  0.3246  0.1114  0.5041
  959loPI   C6A13654  12.301  10.745   8.512  0.0469  0.0428  0.1346
  959loPI   C1B13655  10.698  11.467   6.856 -0.0611  0.0354 -0.0619
  959loPI   C2B13656  10.782  11.527   7.302 -0.0578  0.3395 -0.2827
  959loPI   C3B13657  10.703  11.528   7.716  0.4138  0.2019  0.0623
  959loPI   C4B13658  10.691  11.246   8.122 -0.0197 -0.1661 -0.1606
  960loPI    C113659   6.092   3.878   5.531  0.0643 -0.0048 -0.1275
  960loPI    C213660   6.217   3.533   5.689 -0.2197  0.0059  0.1292
  960loPI    C313661   6.479   3.779   5.514 -0.0118 -0.3290 -0.0414
  960loPI   PO413662   6.012   4.056   5.674  0.0603  0.1509 -0.2204
  960loPI   GL113663   5.793   4.109   6.033  0.1204 -0.0928  0.1124
  960loPI   GL213664   5.741   3.705   6.022 -0.0806  0.0261  0.1146
  960loPI   C1A13665   5.699   4.015   6.483 -0.0224 -0.0254 -0.2977
  960loPI   C2A13666   5.765   4.136   6.936 -0.0513  0.0428 -0.0670
  960loPI   C3A13667   5.657   4.447   7.204  0.0136  0.0107  0.1370
  960loPI   C4A13668   5.652   4.396   7.613  0.0689  0.0817 -0.1763
  960loPI   C5A13669   5.774   4.149   7.967 -0.0996  0.0371 -0.1303
  960loPI   C6A13670   5.640   3.697   8.146 -0.0786 -0.0082  0.0334
  960loPI   C1B13671   5.591   3.531   6.375 -0.1102 -0.0492 -0.1943
  960loPI   C2B13672   5.650   3.664   6.872 -0.2639 -0.1234  0.2488
  960loPI   C3B13673   5.590   3.716   7.257 -0.0291 -0.3269  0.2214
  960loPI   C4B13674   5.443   3.844   7.731  0.3516 -0.1948 -0.1033
  961loPI    C113675  14.292  15.695   5.584 -0.2008  0.0641 -0.1547
  961loPI    C213676  13.985  15.453   5.499 -0.0850 -0.0191 -0.3445
  961loPI    C313677  14.337  15.399   5.318  0.0485  0.0624 -0.1126
  961loPI   PO413678  14.322  15.772   5.866 -0.0483  0.3109  0.2044
  961loPI   GL113679  14.265  15.580   6.251  0.5159  0.0836  0.0493
  961loPI   GL213680  14.058  15.298   6.486 -0.0307  0.0343  0.0481
  961loPI   C1A13681  14.134  15.818   6.602  0.1790 -0.4405  0.0925
  961loPI   C2A13682  14.103  15.893   7.066 -0.1309 -0.1488  0.2119
  961loPI   C3A13683  14.211  15.904   7.506 -0.0580 -0.0972 -0.2446
  961loPI   C4A13684  14.052  15.852   7.973 -0.0041  0.0117  0.0611
  961loPI   C5A13685  13.965  16.083   8.422  0.1769 -0.2231  0.1809
  961loPI   C6A13686  13.804  16.000   8.751 -0.2117  0.1434 -0.3841
  961loPI   C1B13687  14.055  15.383   6.917  0.0738  0.2798  0.1974
  961loPI   C2B13688  14.141  15.321   7.374  0.2763 -0.0486  0.2094
  961loPI   C3B13689  14.086  15.380   7.647  0.2988  0.1603 -0.1895
  961loPI   C4B13690  13.969  15.316   8.071  0.0441 -0.1400  0.0330
  962loPI    C113691   2.524  12.875   5.891  0.1277 -0.0343 -0.0397
  962loPI    C213692   2.275  12.596   5.749  0.1486 -0.0074 -0.1302
  962loPI    C313693   2.290  12.957   5.577 -0.0337  0.1221  0.1189
  962loPI   PO413694   2.721  12.754   6.015 -0.3369 -0.1080 -0.0119
  962loPI   GL113695   2.861  12.765   6.409  0.1654  0.0925 -0.3192
  962loPI   GL213696   2.762  12.472   6.538 -0.1508  0.0807 -0.1410
  962loPI   C1A13697   2.721  12.841   6.826  0.0023  0.1324  0.2415
  962loPI   C2A13698   2.816  12.825   7.201  0.0635 -0.1209  0.2563
  962loPI   C3A13699   2.870  12.882   7.622  0.0273 -0.1575  0.2512
  962loPI   C4A13700   2.775  12.762   8.083  0.0034 -0.0285 -0.0198
  962loPI   C5A13701   2.538  12.599   8.387 -0.1627  0.1338 -0.0672
  962loPI   C6A13702   2.418  12.713   8.878  0.0724  0.3963  0.0948
  962loPI   C1B13703   2.933  12.426   6.942 -0.0321 -0.1715  0.1385
  962loPI   C2B13704   2.784  12.335   7.344  0.4868 -0.3051  0.2498
  962loPI   C3B13705   2.834  12.339   7.782 -0.0928  0.5079  0.1749
  962loPI   C4B13706   3.032  12.310   8.216  0.0972  0.3978 -0.0679
  963loPI    C113707   8.080   4.524   5.489  0.0565  0.0649  0.0489
  963loPI    C213708   8.434   4.578   5.312  0.0738 -0.0581  0.0451
  963loPI    C313709   8.101   4.570   5.092  0.0655  0.0850  0.0518
  963loPI   PO413710   8.104   4.714   5.651 -0.1135 -0.0422  0.1870
  963loPI   GL113711   8.033   4.833   6.050 -0.3288 -0.1736 -0.2149
  963loPI   GL213712   8.269   4.879   6.171  0.0290 -0.2980 -0.0633
  963loPI   C1A13713   7.751   4.778   6.375 -0.2543  0.4303 -0.5327
  963loPI   C2A13714   7.799   4.701   6.797  0.0473  0.0427  0.3271
  963loPI   C3A13715   7.827   4.550   7.239  0.2819 -0.2156  0.0076
  963loPI   C4A13716   7.517   4.364   7.582 -0.0338 -0.0417  0.1588
  963loPI   C5A13717   7.431   4.681   8.009 -0.0358  0.0904  0.2825
  963loPI   C6A13718   7.188   4.688   8.298  0.0020  0.1079 -0.0938
  963loPI   C1B13719   8.230   4.612   6.528 -0.2161  0.1168  0.1768
  963loPI   C2B13720   8.330   4.770   6.854 -0.2105  0.3253  0.0277
  963loPI   C3B13721   8.261   4.732   7.362 -0.2114 -0.0114 -0.1146
  963loPI   C4B13722   8.050   4.522   7.761  0.2036  0.0518  0.3207
  964loPI    C113723   0.531   7.003   5.545 -0.1728 -0.0038 -0.2614
  964loPI    C213724   0.861   7.151   5.374 -0.0645  0.1761  0.0934
  964loPI    C313725   0.548   7.047   5.148  0.3163 -0.2177 -0.2714
  964loPI   PO413726   0.577   7.064   5.763  0.0278 -0.1027  0.0528
  964loPI   GL113727   0.667   7.370   6.096 -0.0728  0.1845  0.1075
  964loPI   GL213728   0.481   7.680   6.025  0.2396 -0.3793 -0.3421
  964loPI   C1A13729   0.484   7.394   6.406  0.0304  0.3034 -0.0760
  964loPI   C2A13730   0.483   7.399   6.963  0.2789 -0.0302  0.0801
  964loPI   C3A13731   0.425   7.555   7.334  0.4116 -0.0343  0.2394
  964loPI   C4A13732   0.448   7.555   7.751  0.3405  0.1182  0.2071
  964loPI   C5A13733   0.888   7.552   7.977 -0.0446 -0.3721  0.0140
  964loPI   C6A13734   1.221   7.739   7.769  0.1818  0.1432 -0.0038
  964loPI   C1B13735   0.491   7.914   6.401  0.0867  0.2554 -0.0015
  964loPI   C2B13736   0.726   7.907   6.822 -0.0818  0.0593  0.3272
  964loPI   C3B13737   0.790   8.153   7.159 -0.0730  0.0696 -0.1469
  964loPI   C4B13738   0.717   8.413   7.612  0.0260  0.0575  0.2051
  965loPI    C113739   8.969   0.340   5.640 -0.1035 -0.1015  0.0518
  965loPI    C213740   8.841   0.719   5.627 -0.1496 -0.1192 -0.0209
  965loPI    C313741   8.934   0.528   5.288 -0.0075 -0.1331  0.0253
  965loPI   PO413742   9.128   0.341   5.836  0.2784  0.1003  0.0099
  965loPI   GL113743   9.312  -0.030   6.044 -0.2769  0.0674 -0.2995
  965loPI   GL213744   9.576   0.003   5.927 -0.0935  0.2589  0.2982
  965loPI   C1A13745   9.302   0.152   6.440 -0.0003 -0.2793  0.1658
  965loPI   C2A13746   9.182   0.329   6.833 -0.0505  0.2190  0.2213
  965loPI   C3A13747   9.083   0.330   7.244 -0.0603  0.0334 -0.1769
  965loPI   C4A13748   8.774   0.434   7.492 -0.0562 -0.1937 -0.1472
  965loPI   C5A13749   8.721   0.579   7.959 -0.1920 -0.0025 -0.0704
  965loPI   C6A13750   8.958   0.604   8.379 -0.2186 -0.0336  0.4531
  965loPI   C1B13751   9.643  -0.184   6.436  0.0907  0.1427  0.0387
  965loPI   C2B13752   9.634  -0.028   6.963 -0.3248 -0.0497  0.1561
  965loPI   C3B13753   9.504   0.048   7.419 -0.3151  0.0360 -0.1857
  965loPI   C4B13754   9.210   0.185   7.709  0.0186 -0.0355 -0.2685
  966loPI    C113755   3.220   5.167   5.205 -0.1192 -0.2293  0.3250
  966loPI    C213756   3.248   4.790   5.074 -0.1369 -0.1124 -0.0254
  966loPI    C313757   2.897   4.982   5.057 -0.1160 -0.0620  0.1036
  966loPI   PO413758   3.349   5.232   5.439 -0.1640  0.0518  0.2715
  966loPI   GL113759   3.245   5.207   5.907  0.0204 -0.1347  0.3109
  966loPI   GL213760   3.058   4.924   5.939 -0.3692 -0.1690  0.1470
  966loPI   C1A13761   3.403   5.443   6.211  0.0113  0.1330  0.1224
  966loPI   C2A13762   3.459   5.413   6.671 -0.3134  0.0804 -0.1518
  966loPI   C3A13763   3.563   5.442   7.043  0.1065  0.0723  0.1656
  966loPI   C4A13764   3.632   5.589   7.436  0.0395 -0.4000  0.0377
  966loPI   C5A13765   3.703   5.760   7.840 -0.1166  0.0621 -0.1824
  966loPI   C6A13766   3.844   6.155   8.069 -0.1560 -0.1029  0.0974
  966loPI   C1B13767   3.224   5.010   6.390 -0.0430  0.1580  0.1404
  966loPI   C2B13768   3.274   4.936   6.856 -0.1045  0.5284 -0.2019
  966loPI   C3B13769   3.322   4.994   7.228  0.2281 -0.1775 -0.3731
  966loPI   C4B13770   3.404   5.161   7.625  0.3098  0.1049  0.2137
  967loPI    C113771  12.235   3.616   5.768  0.0822  0.0813 -0.1563
  967loPI    C213772  12.126   3.257   5.629  0.0336  0.0247  0.0251
  967loPI    C313773  12.086   3.581   5.399  0.1834 -0.1007 -0.1813
  967loPI   PO413774  12.155   3.600   6.009  0.1323  0.2110 -0.2810
  967loPI   GL113775  12.038   3.946   6.267  0.0142 -0.3101  0.1012
  967loPI   GL213776  12.255   4.169   6.203  0.1833 -0.2813  0.3424
  967loPI   C1A13777  11.760   4.088   6.666 -0.2261 -0.0513  0.0790
  967loPI   C2A13778  11.653   4.180   7.072  0.0093 -0.0702 -0.0403
  967loPI   C3A13779  11.562   4.430   7.460  0.0719  0.1667 -0.0824
  967loPI   C4A13780  11.502   4.568   7.841 -0.2871  0.0473 -0.0339
  967loPI   C5A13781  11.313   4.467   8.248  0.0038 -0.2989  0.1724
  967loPI   C6A13782  11.185   4.327   8.589  0.0896 -0.2709 -0.0458
  967loPI   C1B13783  12.273   4.235   6.571  0.1471 -0.1605  0.0296
  967loPI   C2B13784  12.115   4.413   6.953  0.1842 -0.1151 -0.2216
  967loPI   C3B13785  12.019   4.377   7.391  0.0889  0.0814 -0.0919
  967loPI   C4B13786  11.971   4.487   7.835 -0.1721 -0.0587  0.1207
  968loPI    C113787  10.577  15.431   5.501 -0.0406  0.0118  0.2060
  968loPI    C213788  10.551  15.828   5.463 -0.1355 -0.0126  0.0064
  968loPI    C313789  10.493  15.592   5.145 -0.1026 -0.1878  0.1291
  968loPI   PO413790  10.499  15.403   5.790  0.0983  0.2927  0.1297
  968loPI   GL113791  10.655  15.407   6.234  0.1081 -0.1326 -0.3237
  968loPI   GL213792  10.500  15.085   6.413  0.2023 -0.0506  0.2285
  968loPI   C1A13793  10.594  15.548   6.625  0.0089 -0.1052 -0.0492
  968loPI   C2A13794  10.445  15.570   7.080 -0.1919  0.3296 -0.0694
  968loPI   C3A13795  10.480  15.505   7.554  0.1452 -0.0330 -0.0913
  968loPI   C4A13796  10.404  15.741   7.950 -0.3923 -0.0971 -0.0667
  968loPI   C5A13797  10.012  15.888   7.979 -0.1977  0.2081 -0.2314
  968loPI   C6A13798   9.629  15.808   7.883  0.1636  0.1359 -0.0697
  968loPI   C1B13799  10.390  15.114   6.815  0.1268  0.1474 -0.0111
  968loPI   C2B13800  10.419  15.114   7.276  0.0756  0.3354 -0.0961
  968loPI   C3B13801  10.690  15.054   7.677  0.2810 -0.4124 -0.0768
  968loPI   C4B13802  10.708  15.069   8.188  0.0437 -0.3886 -0.0223
  969loPI    C113803   5.913  12.461   5.929  0.0095 -0.0328  0.0442
  969loPI    C213804   6.140  12.136   5.985  0.0687  0.0580  0.3476
  969loPI    C313805   6.272  12.435   5.754  0.0083 -0.1356  0.0564
  969loPI   PO413806   5.763  12.415   6.187  0.1497  0.2521  0.2048
  969loPI   GL113807   5.801  12.408   6.611 -0.3250  0.0129 -0.1225
  969loPI   GL213808   6.139  12.337   6.524 -0.0469 -0.0907  0.3192
  969loPI   C1A13809   5.772  12.244   7.038 -0.1598  0.0631 -0.0571
  969loPI   C2A13810   5.821  12.239   7.503  0.1815  0.1700 -0.3900
  969loPI   C3A13811   6.034  12.310   7.886 -0.1807 -0.0365 -0.1645
  969loPI   C4A13812   6.235  12.103   8.162 -0.0567 -0.0102  0.1292
  969loPI   C5A13813   6.583  11.780   8.075  0.0406 -0.2181 -0.1747
  969loPI   C6A13814   6.983  11.597   8.267  0.2276 -0.0863  0.1809
  969loPI   C1B13815   6.276  12.222   6.948 -0.1429  0.0416 -0.0262
  969loPI   C2B13816   6.333  12.309   7.339 -0.2098 -0.1318 -0.3538
  969loPI   C3B13817   6.468  12.316   7.731 -0.1225  0.1903 -0.0821
  969loPI   C4B13818   6.684  12.242   8.134 -0.1109 -0.2103 -0.1649
  970loPI    C113819  15.842   5.289   5.912 -0.1602 -0.0803  0.0694
  970loPI    C213820  15.732   5.151   5.552  0.2428 -0.0648 -0.0651
  970loPI    C313821  15.694   5.540   5.638  0.0205 -0.0908 -0.0395
  970loPI   PO413822  15.982   5.158   5.969  0.0216 -0.0486 -0.0021
  970loPI   GL113823  16.032   5.229   6.401 -0.4256  0.0131 -0.2110
  970loPI   GL213824  16.104   4.957   6.460 -0.4144  0.1366 -0.0960
  970loPI   C1A13825  15.829   5.167   6.814 -0.1371  0.3490 -0.1435
  970loPI   C2A13826  15.843   4.925   7.105  0.0872 -0.0911  0.2770
  970loPI   C3A13827  15.851   5.015   7.643  0.0190 -0.1456  0.1876
  970loPI   C4A13828  15.778   5.226   7.988  0.0484 -0.0171 -0.0214
  970loPI   C5A13829  15.742   5.349   8.397  0.1456  0.1643 -0.0948
  970loPI   C6A13830  16.139   5.371   8.573  0.3132  0.1898 -0.0655
  970loPI   C1B13831  16.348   4.894   6.932 -0.0366  0.1168 -0.2089
  970loPI   C2B13832  16.331   5.064   7.273  0.1052  0.0371 -0.2094
  970loPI   C3B13833  16.315   5.166   7.707 -0.0802 -0.1737  0.2272
  970loPI   C4B13834  16.249   5.387   8.122  0.0540  0.0466  0.1800
  971loPI    C113835  14.509  13.850   5.889 -0.2079  0.2425  0.1453
  971loPI    C213836  14.830  13.760   5.668 -0.1889  0.4101  0.1033
  971loPI    C313837  14.466  13.647   5.547 -0.1606  0.3461  0.0774
  971loPI   PO413838  14.604  13.761   6.147 -0.3653 -0.0982 -0.0248
  971loPI   GL113839  14.579  13.980   6.507 -0.0331 -0.0025 -0.3673
  971loPI   GL213840  14.844  13.865   6.540 -0.1337 -0.0969  0.2414
  971loPI   C1A13841  14.481  14.075   6.903  0.0943  0.1449 -0.1652
  971loPI   C2A13842  14.536  14.107   7.332  0.0422 -0.2491  0.1390
  971loPI   C3A13843  14.669  13.990   7.756 -0.1653 -0.0034 -0.2484
  971loPI   C4A13844  14.686  13.534   7.958 -0.2296  0.0344 -0.2236
  971loPI   C5A13845  14.556  13.281   8.297  0.1042 -0.4171 -0.2614
  971loPI   C6A13846  14.693  12.977   8.619 -0.0715  0.2165  0.1456
  971loPI   C1B13847  14.965  13.858   6.907 -0.2629 -0.1625  0.1917
  971loPI   C2B13848  15.094  13.890   7.323 -0.0797  0.1667  0.0713
  971loPI   C3B13849  15.181  13.687   7.766  0.4727 -0.1133  0.0904
  971loPI   C4B13850  15.230  13.749   8.254 -0.1740 -0.0093  0.1056
  972loPI    C113851   3.860  11.152   5.626  0.0023 -0.0052  0.1996
  972loPI    C213852   3.611  10.876   5.776  0.0404 -0.0560  0.1698
  972loPI    C313853   3.711  10.866   5.388 -0.2446  0.2138  0.0853
  972loPI   PO413854   4.098  11.154   5.757  0.1909 -0.0153  0.0026
  972loPI   GL113855   3.857  11.129   6.195  0.1413  0.3524 -0.0577
  972loPI   GL213856   4.102  11.190   6.340  0.0452  0.4161  0.2468
  972loPI   C1A13857   3.723  11.033   6.639 -0.1371 -0.2957  0.1453
  972loPI   C2A13858   3.586  11.178   7.038  0.0421  0.2738  0.2291
  972loPI   C3A13859   3.767  11.143   7.452  0.2492  0.0097  0.1656
  972loPI   C4A13860   3.697  11.114   7.818  0.1048 -0.0768 -0.1926
  972loPI   C5A13861   3.922  11.014   8.248 -0.1825 -0.0902  0.1908
  972loPI   C6A13862   3.983  10.667   8.424 -0.1954 -0.0400 -0.0892
  972loPI   C1B13863   4.182  10.945   6.696 -0.2956  0.0757 -0.0145
  972loPI   C2B13864   4.065  10.997   7.082  0.0590 -0.0224  0.1857
  972loPI   C3B13865   4.049  10.755   7.410 -0.0919 -0.0627  0.2785
  972loPI   C4B13866   4.100  10.733   7.827 -0.0463  0.0163  0.2098
  973loPI    C113867   1.908   6.841   5.762  0.0768  0.3381 -0.0898
  973loPI    C213868   1.894   6.773   5.368  0.0548  0.0207 -0.0369
  973loPI    C313869   2.241   6.866   5.543  0.0633  0.1687 -0.1311
  973loPI   PO413870   1.621   6.983   5.824  0.0122 -0.2933 -0.1784
  973loPI   GL113871   1.471   7.153   6.201 -0.0780 -0.1001 -0.0347
  973loPI   GL213872   1.779   7.130   6.301 -0.3789  0.2772  0.1586
  973loPI   C1A13873   1.322   7.241   6.551  0.3384 -0.2016 -0.3455
  973loPI   C2A13874   1.398   7.166   7.040 -0.3229  0.0359  0.1732
  973loPI   C3A13875   1.505   6.854   7.340 -0.1773 -0.1279 -0.0189
  973loPI   C4A13876   1.357   6.803   7.696 -0.1453  0.2196 -0.0802
  973loPI   C5A13877   1.152   6.652   7.997  0.3376 -0.2241 -0.1190
  973loPI   C6A13878   1.441   6.293   8.163 -0.0659  0.0731  0.0762
  973loPI   C1B13879   1.828   7.040   6.768 -0.2570  0.2845  0.1788
  973loPI   C2B13880   1.911   7.120   7.104 -0.0610 -0.1911 -0.2934
  973loPI   C3B13881   1.951   7.201   7.521 -0.2762 -0.1535  0.0845
  973loPI   C4B13882   1.693   7.039   7.949 -0.1075  0.1532  0.0356
  974loPI    C113883   1.037  15.282   5.788  0.2048  0.0318 -0.0420
  974loPI    C213884   0.852  15.589   5.610  0.1859  0.2228  0.2999
  974loPI    C313885   1.083  15.343   5.395 -0.1495  0.2130 -0.0592
  974loPI   PO413886   0.937  15.224   6.019  0.2189  0.1801 -0.1058
  974loPI   GL113887   0.776  15.271   6.448  0.0276 -0.2534 -0.1677
  974loPI   GL213888   0.716  15.500   6.584  0.1188  0.0176  0.5390
  974loPI   C1A13889   0.842  15.070   6.785 -0.0912 -0.0182 -0.1277
  974loPI   C2A13890   0.937  15.052   7.212 -0.1317  0.0826  0.0266
  974loPI   C3A13891   0.890  15.054   7.713  0.2460 -0.1309 -0.2001
  974loPI   C4A13892   0.567  15.024   8.050  0.0011  0.1725  0.0567
  974loPI   C5A13893   0.238  14.875   8.347  0.1337  0.0429  0.2103
  974loPI   C6A13894   0.188  14.518   8.540 -0.1883 -0.0285 -0.0012
  974loPI   C1B13895   0.694  15.503   7.012 -0.3746 -0.0378 -0.1379
  974loPI   C2B13896   0.708  15.498   7.517  0.0520  0.0358  0.0675
  974loPI   C3B13897   0.689  15.462   7.945 -0.1104 -0.0155 -0.1195
  974loPI   C4B13898   0.943  15.197   8.249 -0.3868  0.2102  0.1769
  975loPI    C113899  11.196   9.316   6.061 -0.2687  0.0148 -0.0831
  975loPI    C213900  11.365   9.305   5.699  0.0861 -0.0725  0.0810
  975loPI    C313901  10.995   9.164   5.751 -0.0840  0.2149 -0.3044
  975loPI   PO413902  11.415   9.256   6.193  0.0658 -0.3034  0.2276
  975loPI   GL113903  11.502   9.412   6.569 -0.3529  0.0082  0.1434
  975loPI   GL213904  11.298   9.579   6.684  0.1256 -0.0387  0.2701
  975loPI   C1A13905  11.486   9.185   7.005  0.0719  0.0344 -0.0183
  975loPI   C2A13906  11.503   9.307   7.299 -0.0557  0.0822 -0.1611
  975loPI   C3A13907  11.461   9.303   7.691  0.0371  0.1756  0.2781
  975loPI   C4A13908  11.248   9.108   7.899 -0.0852  0.2044  0.0785
  975loPI   C5A13909  11.021   8.852   8.115 -0.2648 -0.2558  0.0729
  975loPI   C6A13910  10.655   8.624   8.243  0.0857  0.3803  0.0195
  975loPI   C1B13911  11.247   9.692   7.063  0.2168 -0.0529  0.5032
  975loPI   C2B13912  11.179   9.597   7.439  0.1287  0.1075  0.0902
  975loPI   C3B13913  10.972   9.532   7.763 -0.0839 -0.0146 -0.0100
  975loPI   C4B13914  10.601   9.486   8.132  0.0785 -0.2312 -0.3142
  976loPI    C113915   0.584   4.390   5.416 -0.2482 -0.0489  0.2855
  976loPI    C213916   0.249   4.445   5.203 -0.1000  0.1333  0.0954
  976loPI    C313917   0.539   4.721   5.196  0.0607 -0.0283  0.2487
  976loPI   PO413918   0.474   4.305   5.697  0.0681  0.1580 -0.1500
  976loPI   GL113919   0.471   4.248   6.114 -0.0281  0.0771 -0.2825
  976loPI   GL213920   0.605   4.510   6.297  0.1105 -0.0180  0.2385
  976loPI   C1A13921   0.268   4.319   6.546  0.1315 -0.4136  0.3920
  976loPI   C2A13922   0.256   4.278   6.995 -0.2481 -0.1530 -0.2865
  976loPI   C3A13923   0.180   4.277   7.413  0.0352  0.0844 -0.0014
  976loPI   C4A13924   0.027   4.283   7.851  0.0240 -0.2549 -0.2002
  976loPI   C5A13925  -0.262   4.461   8.301 -0.1536 -0.1730 -0.0253
  976loPI   C6A13926  -0.654   4.425   8.524 -0.2639  0.1813 -0.0875
  976loPI   C1B13927   0.878   4.533   6.625 -0.1717 -0.0166  0.0268
  976loPI   C2B13928   0.868   4.485   7.029  0.0678  0.3604 -0.1115
  976loPI   C3B13929   0.702   4.385   7.490 -0.0761  0.2289  0.2471
  976loPI   C4B13930   0.524   4.265   7.845  0.1871  0.2005  0.1497
  977loPI    C113931   5.631   8.934   5.825 -0.2815  0.2019  0.2184
  977loPI    C213932   5.330   8.827   5.584  0.1647 -0.3714 -0.1101
  977loPI    C313933   5.552   9.148   5.497  0.0793 -0.3488 -0.2459
  977loPI   PO413934   5.726   8.612   5.907 -0.2042 -0.0332  0.1502
  977loPI   GL113935   5.772   8.572   6.336  0.1818 -0.2798 -0.2784
  977loPI   GL213936   5.948   8.296   6.450 -0.1119  0.1344  0.0352
  977loPI   C1A13937   6.163   8.779   6.544 -0.1725  0.0427  0.0639
  977loPI   C2A13938   6.236   8.810   6.915  0.1296  0.1262  0.0930
  977loPI   C3A13939   6.325   8.798   7.354 -0.0587 -0.1327 -0.1444
  977loPI   C4A13940   6.514   9.026   7.617 -0.0575 -0.3692 -0.0664
  977loPI   C5A13941   6.615   9.082   8.036  0.0199 -0.3927 -0.1407
  977loPI   C6A13942   6.391   9.043   8.464  0.0725  0.0274 -0.2313
  977loPI   C1B13943   5.973   8.410   6.798 -0.1157 -0.0997  0.1178
  977loPI   C2B13944   5.768   8.629   7.246 -0.1640  0.2288  0.0736
  977loPI   C3B13945   5.814   8.714   7.552  0.0068  0.1903 -0.0871
  977loPI   C4B13946   5.678   8.918   7.826 -0.0110 -0.1186  0.1656
  978loPI    C113947   7.338   0.520   5.601  0.1330 -0.2033 -0.0057
  978loPI    C213948   7.507   0.835   5.421 -0.0298 -0.0616  0.0857
  978loPI    C313949   7.574   0.466   5.283  0.0238  0.0269 -0.1289
  978loPI   PO413950   7.406   0.498   5.805 -0.0335 -0.0713 -0.0018
  978loPI   GL113951   7.484   0.724   6.292  0.0910 -0.2396 -0.0457
  978loPI   GL213952   7.234   0.549   6.302 -0.0009 -0.1490 -0.2606
  978loPI   C1A13953   7.450   0.931   6.702 -0.0604 -0.1752  0.1755
  978loPI   C2A13954   7.504   0.903   7.037  0.2048  0.0614  0.1345
  978loPI   C3A13955   7.513   0.802   7.438 -0.1804 -0.0590 -0.0175
  978loPI   C4A13956   7.503   0.659   7.818  0.1096  0.3700  0.0240
  978loPI   C5A13957   7.790   0.493   8.185  0.0481  0.1807 -0.1142
  978loPI   C6A13958   7.996   0.718   8.447 -0.2737  0.0994  0.0967
  978loPI   C1B13959   7.191   0.298   6.694  0.0034 -0.0588  0.0041
  978loPI   C2B13960   7.252   0.357   7.125  0.0824  0.2461  0.1269
  978loPI   C3B13961   7.251   0.319   7.558 -0.2206  0.2302 -0.2079
  978loPI   C4B13962   7.209   0.080   7.883 -0.0989 -0.1130  0.0208
  979loPI    C113963  15.938  16.608   5.583  0.0745 -0.0499 -0.0610
  979loPI    C213964  16.269  16.393   5.644 -0.0109 -0.1384  0.0986
  979loPI    C313965  16.001  16.275   5.371 -0.0377 -0.2124  0.1563
  979loPI   PO413966  15.833  16.633   5.892 -0.0433 -0.1030 -0.1281
  979loPI   GL113967  15.892  16.835   6.410  0.1959  0.1907 -0.0476
  979loPI   GL213968  16.174  16.702   6.661  0.0022 -0.1537 -0.1263
  979loPI   C1A13969  15.682  17.163   6.721 -0.0328 -0.0033  0.2782
  979loPI   C2A13970  15.532  17.170   7.080 -0.0740 -0.2490  0.0851
  979loPI   C3A13971  15.351  17.299   7.503 -0.2914  0.0822  0.1882
  979loPI   C4A13972  15.285  17.346   7.884  0.5544 -0.0929 -0.2343
  979loPI   C5A13973  15.063  17.398   8.264 -0.1550  0.0673 -0.2065
  979loPI   C6A13974  14.786  17.590   8.500 -0.2461 -0.1939 -0.0010
  979loPI   C1B13975  15.949  16.891   7.034 -0.1515  0.3704 -0.0879
  979loPI   C2B13976  15.907  16.829   7.554  0.1906  0.0493  0.0851
  979loPI   C3B13977  15.729  16.564   7.872  0.1533 -0.0921  0.0621
  979loPI   C4B13978  15.421  16.439   8.225  0.2900  0.2372 -0.2064
  980loPI    C113979  11.397   2.629   5.845  0.1603 -0.1020  0.0020
  980loPI    C213980  11.464   2.263   5.990  0.0737 -0.1670 -0.1206
  980loPI    C313981  11.098   2.365   5.867  0.0848 -0.0198 -0.0327
  980loPI   PO413982  11.421   2.791   6.009 -0.1143  0.0894  0.0831
  980loPI   GL113983  11.514   2.851   6.518 -0.3618 -0.1131 -0.2066
  980loPI   GL213984  11.825   2.900   6.453 -0.1812  0.0702  0.3139
  980loPI   C1A13985  11.390   2.769   6.950  0.0865  0.3055  0.0135
  980loPI   C2A13986  11.257   2.894   7.374 -0.2303  0.0761  0.1839
  980loPI   C3A13987  11.215   2.640   7.687 -0.0033  0.1230  0.1278
  980loPI   C4A13988  11.307   2.527   8.095 -0.3321  0.3150 -0.2685
  980loPI   C5A13989  11.487   2.195   8.184  0.0256  0.1361  0.1369
  980loPI   C6A13990  11.547   1.803   8.409  0.1326  0.0719 -0.1428
  980loPI   C1B13991  11.770   3.026   6.907 -0.0928  0.1234 -0.1354
  980loPI   C2B13992  11.721   3.103   7.358  0.2659  0.0182  0.0794
  980loPI   C3B13993  11.582   3.253   7.817  0.1794 -0.2245  0.2609
  980loPI   C4B13994  11.351   3.058   8.224 -0.1464 -0.2647  0.0856
  981loPI    C113995   7.154   7.183   5.492  0.0857 -0.1117  0.1172
  981loPI    C213996   7.067   6.830   5.325 -0.0368  0.0713 -0.2143
  981loPI    C313997   7.401   7.025   5.221  0.1207 -0.0250  0.0980
  981loPI   PO413998   7.089   7.112   5.811 -0.1972  0.0070  0.3886
  981loPI   GL113999   7.136   7.108   6.195 -0.0088 -0.1823 -0.0243
  981loPI   GL214000   7.060   7.417   6.321 -0.2518 -0.5616 -0.2523
  981loPI   C1A14001   7.146   6.939   6.566  0.2651  0.1570 -0.0514
  981loPI   C2A14002   7.128   7.006   7.039  0.0019  0.3198  0.0423
  981loPI   C3A14003   7.281   7.027   7.450 -0.0194  0.1216  0.2343
  981loPI   C4A14004   7.389   7.117   7.875  0.0277 -0.0997 -0.0344
  981loPI   C5A14005   7.777   6.883   8.175  0.1011  0.4014  0.1319
  981loPI   C6A14006   8.092   6.476   8.288  0.0716  0.1065  0.0363
  981loPI   C1B14007   7.048   7.357   6.751  0.3969 -0.1446  0.1332
  981loPI   C2B14008   7.066   7.493   7.240  0.0324 -0.0855 -0.1014
  981loPI   C3B14009   6.922   7.490   7.647  0.0691  0.0506  0.3183
  981loPI   C4B14010   6.980   7.338   8.130 -0.0667 -0.0738  0.1385
  982loPI    C114011   5.154   2.099   5.483 -0.0095  0.4216 -0.0738
  982loPI    C214012   4.909   2.414   5.455 -0.1938  0.2764 -0.1154
  982loPI    C314013   5.071   2.258   5.125 -0.2362  0.2243 -0.1117
  982loPI   PO414014   5.237   2.091   5.746 -0.1293 -0.0568  0.1865
  982loPI   GL114015   5.308   2.505   5.825 -0.2231 -0.0439  0.0460
  982loPI   GL214016   5.566   2.360   6.122  0.0545 -0.1993  0.1624
  982loPI   C1A14017   5.260   2.768   6.133  0.0351  0.0690  0.2529
  982loPI   C2A14018   5.339   3.136   6.502 -0.0335 -0.0483 -0.1763
  982loPI   C3A14019   5.422   3.239   6.965  0.1800  0.3170  0.2464
  982loPI   C4A14020   5.475   3.292   7.444 -0.1003  0.1166  0.2292
  982loPI   C5A14021   5.422   3.341   7.840  0.0689  0.1501 -0.2012
  982loPI   C6A14022   5.537   3.286   8.328  0.0119 -0.0651 -0.1881
  982loPI   C1B14023   5.653   2.348   6.522 -0.1675 -0.1593  0.3854
  982loPI   C2B14024   5.519   2.432   6.918  0.1723 -0.0759 -0.3169
  982loPI   C3B14025   5.496   2.313   7.394 -0.4518  0.0382  0.2528
  982loPI   C4B14026   5.455   2.175   7.742 -0.1096  0.2711 -0.1867
  983loPI    C114027   3.753  16.526   6.357 -0.1750  0.0214  0.0043
  983loPI    C214028   3.826  16.629   5.978 -0.0635 -0.1174 -0.0127
  983loPI    C314029   3.579  16.325   6.058  0.1810 -0.3128  0.0136
  983loPI   PO414030   3.847  16.710   6.536  0.1427  0.2035 -0.3080
  983loPI   GL114031   4.104  16.648   6.989 -0.3448  0.2352  0.0054
  983loPI   GL214032   4.469  16.681   6.869 -0.0285 -0.1138 -0.2605
  983loPI   C1A14033   3.989  16.601   7.369 -0.2520 -0.1146  0.0766
  983loPI   C2A14034   3.806  16.535   7.741 -0.0966  0.0689  0.2687
  983loPI   C3A14035   3.602  16.730   8.016  0.0100  0.2194 -0.0208
  983loPI   C4A14036   3.793  16.848   8.385 -0.1539  0.1383  0.0776
  983loPI   C5A14037   4.192  16.977   8.351  0.1433  0.1176  0.0686
  983loPI   C6A14038   4.520  16.949   8.460 -0.1509 -0.1237  0.0877
  983loPI   C1B14039   4.459  16.855   7.248 -0.1936 -0.0690  0.1976
  983loPI   C2B14040   4.625  16.798   7.653 -0.0233  0.0155 -0.0785
  983loPI   C3B14041   4.681  16.673   8.116  0.2004 -0.0785  0.3217
  983loPI   C4B14042   4.966  16.599   8.467 -0.0627  0.1623 -0.1873
  984loPI    C114043   8.447  11.136   5.930 -0.0410  0.1601  0.0894
  984loPI    C214044   8.524  10.925   5.599 -0.2880  0.3504 -0.0930
  984loPI    C314045   8.383  11.298   5.570 -0.0659  0.4635  0.2272
  984loPI   PO414046   8.636  10.977   6.095 -0.2185  0.0903 -0.0944
  984loPI   GL114047   8.738  11.058   6.391 -0.3085  0.1184 -0.0517
  984loPI   GL214048   8.808  11.462   6.459 -0.1342  0.2146  0.1045
  984loPI   C1A14049   8.863  10.777   6.747  0.1347  0.1333  0.0384
  984loPI   C2A14050   9.000  10.532   7.101 -0.2130 -0.2400 -0.1325
  984loPI   C3A14051   9.067  10.674   7.535 -0.0661 -0.2454 -0.0347
  984loPI   C4A14052   9.243  10.752   7.849 -0.0021  0.2743  0.0107
  984loPI   C5A14053   9.061  10.664   8.226 -0.1098  0.0179 -0.0381
  984loPI   C6A14054   8.683  10.856   8.414  0.1542 -0.1122  0.1150
  984loPI   C1B14055   8.945  11.505   6.828  0.1461 -0.0500  0.2203
  984loPI   C2B14056   9.063  11.509   7.176 -0.0494 -0.2628  0.0597
  984loPI   C3B14057   9.246  11.716   7.452  0.3208  0.1974 -0.0223
  984loPI   C4B14058   9.282  11.810   7.823 -0.0465 -0.1331 -0.1603
  985loPI    C114059   1.295  15.749   5.790 -0.1034 -0.0229  0.1239
  985loPI    C214060   1.572  16.037   5.787 -0.0803 -0.0441  0.1912
  985loPI    C314061   1.361  15.958   5.456  0.1042 -0.1345  0.0933
  985loPI   PO414062   1.401  15.516   6.001 -0.2008 -0.2527  0.1985
  985loPI   GL114063   1.240  15.211   6.434 -0.0571  0.1150 -0.1734
  985loPI   GL214064   1.613  15.071   6.258  0.0939  0.0232  0.1424
  985loPI   C1A14065   1.172  15.497   6.802 -0.0326  0.1248 -0.2410
  985loPI   C2A14066   1.161  15.545   7.284 -0.4074  0.2262 -0.0383
  985loPI   C3A14067   1.177  15.579   7.730 -0.2577 -0.0544  0.2100
  985loPI   C4A14068   1.174  15.644   8.116 -0.1046  0.0430 -0.1694
  985loPI   C5A14069   1.242  15.865   8.474  0.2512  0.2182  0.1126
  985loPI   C6A14070   1.010  16.091   8.762  0.0387 -0.0157  0.0971
  985loPI   C1B14071   1.628  15.416   6.606  0.2539 -0.1730 -0.1604
  985loPI   C2B14072   1.623  15.497   7.122 -0.0094  0.1695 -0.2768
  985loPI   C3B14073   1.653  15.663   7.547  0.2807  0.1271 -0.2164
  985loPI   C4B14074   1.628  15.601   7.921 -0.1397 -0.0237 -0.1194
  986loPI    C114075   3.141  17.707   6.079 -0.1077  0.1971 -0.0274
  986loPI    C214076   2.882  17.414   6.162 -0.1038  0.2626  0.2246
  986loPI    C314077   2.965  17.505   5.781  0.0477 -0.1973  0.1415
  986loPI   PO414078   3.409  17.631   6.197 -0.1491 -0.0412  0.0439
  986loPI   GL114079   3.674  17.445   6.566 -0.1549 -0.0312  0.1161
  986loPI   GL214080   3.781  17.786   6.504  0.0614  0.0925  0.0672
  986loPI   C1A14081   3.870  17.574   6.950  0.0513  0.1349  0.1477
  986loPI   C2A14082   3.908  17.553   7.385  0.1953  0.4227  0.0877
  986loPI   C3A14083   3.757  17.546   7.771 -0.0662 -0.1134  0.0087
  986loPI   C4A14084   3.901  17.304   8.132 -0.0255  0.1280 -0.2401
  986loPI   C5A14085   3.774  17.326   8.556  0.1764 -0.3207  0.3125
  986loPI   C6A14086   3.472  17.451   8.779  0.0926 -0.0678  0.2905
  986loPI   C1B14087   3.568  17.917   6.798  0.1517 -0.0411 -0.1844
  986loPI   C2B14088   3.523  17.965   7.279 -0.0269  0.0047  0.1179
  986loPI   C3B14089   3.366  18.032   7.699 -0.0214 -0.0762 -0.1582
  986loPI   C4B14090   3.390  18.152   8.218 -0.0698  0.0088 -0.0726
  987loPI    C114091   0.548  17.121   5.570  0.0666  0.0326 -0.1741
  987loPI    C214092   0.479  16.806   5.333  0.0959 -0.0802 -0.0341
  987loPI    C314093   0.668  17.128   5.188 -0.0738 -0.0626 -0.2207
  987loPI   PO414094   0.298  17.252   5.652 -0.1734 -0.0877  0.1019
  987loPI   GL114095   0.140  17.125   6.073  0.1641 -0.1477  0.2073
  987loPI   GL214096   0.441  17.322   6.197 -0.0779  0.1725 -0.0804
  987loPI   C1A14097  -0.197  16.992   6.360 -0.0223  0.0952 -0.0685
  987loPI   C2A14098  -0.146  16.779   6.656 -0.0127 -0.1457  0.1065
  987loPI   C3A14099   0.085  16.592   6.982  0.4102 -0.1540 -0.2977
  987loPI   C4A14100  -0.045  16.725   7.374 -0.2075  0.3335  0.0331
  987loPI   C5A14101  -0.200  16.534   7.755 -0.1088 -0.0457 -0.1825
  987loPI   C6A14102  -0.030  16.416   8.225 -0.0597 -0.0001 -0.1378
  987loPI   C1B14103   0.228  17.219   6.555 -0.0486 -0.1154 -0.1116
  987loPI   C2B14104   0.237  17.129   6.961  0.1515  0.2041  0.1076
  987loPI   C3B14105   0.300  17.133   7.448 -0.1184 -0.1748  0.0127
  987loPI   C4B14106   0.691  16.937   7.722  0.0024 -0.0145 -0.0692
  988loPI    C114107  11.598   8.477   5.910  0.1646  0.1201 -0.0100
  988loPI    C214108  11.332   8.474   5.612  0.1368  0.3035  0.0114
  988loPI    C314109  11.404   8.813   5.812  0.2401  0.2082  0.1377
  988loPI   PO414110  11.534   8.170   5.983 -0.0001 -0.1517  0.0773
  988loPI   GL114111  11.301   7.954   6.232  0.0431  0.0765 -0.1126
  988loPI   GL214112  11.204   7.667   6.302 -0.1076 -0.2158 -0.0733
  988loPI   C1A14113  11.292   8.124   6.703  0.4498 -0.1483 -0.1014
  988loPI   C2A14114  11.374   8.002   7.144  0.1436  0.0795  0.1274
  988loPI   C3A14115  11.427   7.971   7.591 -0.1563 -0.0655 -0.0212
  988loPI   C4A14116  11.350   7.928   8.033  0.0471  0.1075  0.1491
  988loPI   C5A14117  10.930   7.788   8.251  0.2359  0.1473 -0.2755
  988loPI   C6A14118  10.719   8.050   8.543 -0.0316 -0.0787  0.0097
  988loPI   C1B14119  11.204   7.653   6.761 -0.3020 -0.0952 -0.0249
  988loPI   C2B14120  11.309   7.521   7.241  0.2141  0.2834 -0.0262
  988loPI   C3B14121  11.231   7.515   7.720  0.1404  0.1032  0.1487
  988loPI   C4B14122  11.253   7.415   8.141 -0.0245  0.2882  0.0664
  989loPI    C114123  13.188  15.022   5.760  0.1100 -0.3492 -0.2084
  989loPI    C214124  12.941  15.015   5.447  0.1822 -0.0679 -0.2744
  989loPI    C314125  13.203  15.315   5.488 -0.0045  0.0402  0.1913
  989loPI   PO414126  12.994  15.003   5.976  0.4581  0.0779 -0.0614
  989loPI   GL114127  12.920  14.857   6.223 -0.0778 -0.0651 -0.0740
  989loPI   GL214128  12.720  14.716   6.430  0.3483  0.0388  0.0241
  989loPI   C1A14129  13.192  14.821   6.554  0.0647  0.0930 -0.1038
  989loPI   C2A14130  13.154  14.777   6.967  0.0326 -0.1271  0.0352
  989loPI   C3A14131  13.131  14.793   7.409  0.0035  0.1350 -0.1829
  989loPI   C4A14132  13.146  14.552   7.748 -0.0269 -0.1690  0.0955
  989loPI   C5A14133  13.104  14.516   8.199  0.1048  0.3389  0.1115
  989loPI   C6A14134  12.781  14.363   8.456 -0.1025  0.1374 -0.0694
  989loPI   C1B14135  12.705  14.681   6.811  0.0002  0.1401 -0.1423
  989loPI   C2B14136  12.722  14.790   7.166  0.2095 -0.1127  0.5729
  989loPI   C3B14137  12.728  14.854   7.717  0.1206  0.0810  0.0144
  989loPI   C4B14138  12.559  14.829   8.132 -0.3100  0.2504  0.0503
  990loPI    C114139   7.203  14.438   5.827 -0.2989  0.0666 -0.0550
  990loPI    C214140   7.482  14.213   5.649 -0.0473  0.1973  0.1658
  990loPI    C314141   7.315  14.518   5.452  0.0202  0.1650  0.0579
  990loPI   PO414142   7.282  14.576   6.111 -0.3944 -0.0280 -0.2390
  990loPI   GL114143   7.321  14.336   6.460  0.2098 -0.2146  0.1609
  990loPI   GL214144   7.509  14.187   6.585  0.4885  0.0423  0.2875
  990loPI   C1A14145   7.626  14.578   6.756  0.1306  0.1029 -0.5536
  990loPI   C2A14146   7.615  14.658   7.077  0.2140  0.1133  0.0118
  990loPI   C3A14147   7.618  14.609   7.459  0.3040 -0.0301 -0.1408
  990loPI   C4A14148   7.569  14.835   7.799 -0.3149 -0.2681  0.0279
  990loPI   C5A14149   7.525  15.008   8.216 -0.3254  0.0736  0.0503
  990loPI   C6A14150   7.604  15.365   8.381  0.0369 -0.2908 -0.0519
  990loPI   C1B14151   7.466  14.114   6.961  0.2915 -0.3808 -0.1629
  990loPI   C2B14152   7.449  14.009   7.363 -0.1744 -0.1528  0.0279
  990loPI   C3B14153   7.497  13.799   7.719 -0.1076 -0.1500 -0.1720
  990loPI   C4B14154   7.412  13.858   8.139  0.0900 -0.1458 -0.2079
  991loPI    C114155  14.170   4.608   6.371 -0.1934  0.0358 -0.0662
  991loPI    C214156  14.097   4.425   6.022  0.0488 -0.0391 -0.0795
  991loPI    C314157  14.038   4.820   6.057 -0.0356 -0.0417 -0.1863
  991loPI   PO414158  14.317   4.461   6.484  0.0371 -0.1700  0.0249
  991loPI   GL114159  14.661   4.409   6.680 -0.0199 -0.3268 -0.1430
  991loPI   GL214160  14.779   4.634   6.493 -0.2378  0.1675 -0.1811
  991loPI   C1A14161  14.660   4.565   7.105 -0.0764 -0.0578  0.2112
  991loPI   C2A14162  14.516   4.537   7.489 -0.2300  0.0073 -0.0052
  991loPI   C3A14163  14.831   4.649   7.869  0.0011 -0.0648 -0.4374
  991loPI   C4A14164  15.029   4.650   8.188 -0.0307 -0.0027 -0.3249
  991loPI   C5A14165  15.307   4.469   8.417 -0.0922  0.2316 -0.0008
  991loPI   C6A14166  15.447   4.182   8.708 -0.0787 -0.1032  0.2524
  991loPI   C1B14167  14.886   5.025   6.704 -0.1176 -0.2793 -0.0859
  991loPI   C2B14168  14.725   5.089   7.213 -0.0848  0.1547 -0.2521
  991loPI   C3B14169  14.800   5.319   7.496 -0.0738 -0.1799 -0.1053
  991loPI   C4B14170  14.759   5.606   7.825  0.0258  0.0379  0.5018
  992loPI    C114171  15.717  10.235   5.851  0.0321 -0.0160 -0.0523
  992loPI    C214172  15.870  10.091   5.511  0.2395  0.2386 -0.0698
  992loPI    C314173  15.598  10.384   5.500 -0.1826 -0.1409 -0.0346
  992loPI   PO414174  16.002  10.300   5.947  0.0685  0.1517 -0.3188
  992loPI   GL114175  15.923  10.090   6.289  0.5873 -0.0966  0.0470
  992loPI   GL214176  16.208   9.913   6.363 -0.3430 -0.1174  0.0262
  992loPI   C1A14177  16.066  10.287   6.660 -0.1297  0.0826  0.0798
  992loPI   C2A14178  15.985  10.401   7.062  0.1798  0.0699  0.1032
  992loPI   C3A14179  16.069  10.304   7.474  0.4415  0.0453  0.0093
  992loPI   C4A14180  16.151  10.319   7.952 -0.1836  0.0528 -0.0053
  992loPI   C5A14181  16.210  10.608   8.198  0.1114 -0.1031  0.2169
  992loPI   C6A14182  16.040  10.964   8.352  0.2953  0.2320 -0.3695
  992loPI   C1B14183  16.347   9.879   6.805  0.3816 -0.1427 -0.1620
  992loPI   C2B14184  16.361   9.969   7.189 -0.0702 -0.1403 -0.1370
  992loPI   C3B14185  16.748  10.041   7.405  0.0432 -0.0997 -0.3642
  992loPI   C4B14186  17.187   9.939   7.643  0.2584  0.2189  0.2833
  993loPI    C114187  11.120  13.418   5.873 -0.5236  0.1435  0.1065
  993loPI    C214188  11.012  13.151   6.150 -0.1023 -0.1026  0.0431
  993loPI    C314189  11.193  13.029   5.815 -0.0339  0.2511 -0.0528
  993loPI   PO414190  11.159  13.670   5.996  0.0326  0.0694  0.1698
  993loPI   GL114191  11.348  13.879   6.375 -0.1306  0.0710 -0.0646
  993loPI   GL214192  11.550  13.671   6.467  0.0015  0.3467 -0.3600
  993loPI   C1A14193  11.515  14.242   6.723  0.4519  0.3018 -0.1517
  993loPI   C2A14194  11.603  14.357   7.126 -0.1606  0.0043  0.1254
  993loPI   C3A14195  11.945  14.619   7.450 -0.1323  0.1001 -0.0468
  993loPI   C4A14196  11.884  14.861   7.837 -0.0946 -0.1676  0.0963
  993loPI   C5A14197  12.059  14.937   8.200 -0.0267 -0.0470 -0.1275
  993loPI   C6A14198  12.254  15.082   8.486  0.2693 -0.1146 -0.1754
  993loPI   C1B14199  11.528  13.791   6.882 -0.1742  0.1398  0.1317
  993loPI   C2B14200  11.560  13.821   7.318  0.2422 -0.0684 -0.2548
  993loPI   C3B14201  11.710  14.122   7.696 -0.1790  0.1598  0.2310
  993loPI   C4B14202  11.964  14.101   8.110  0.0677  0.0626 -0.1467
  994loPI    C114203  17.646  11.375   5.839 -0.1762 -0.0840 -0.0482
  994loPI    C214204  17.820  11.515   5.507 -0.0219 -0.0220  0.0579
  994loPI    C314205  17.445  11.375   5.493 -0.0237  0.0009 -0.1375
  994loPI   PO414206  17.878  11.538   5.995 -0.1160  0.0756  0.3338
  994loPI   GL114207  18.061  11.592   6.374  0.2116  0.1380  0.2156
  994loPI   GL214208  17.944  11.302   6.481 -0.0478 -0.3222 -0.2942
  994loPI   C1A14209  18.277  11.717   6.730 -0.0388 -0.3536 -0.5372
  994loPI   C2A14210  18.176  11.897   7.070 -0.0140 -0.0503 -0.0326
  994loPI   C3A14211  18.049  11.833   7.512 -0.2109 -0.0308 -0.0533
  994loPI   C4A14212  17.958  11.922   7.958 -0.0592 -0.0553 -0.2504
  994loPI   C5A14213  18.046  12.345   8.181 -0.0686  0.1520  0.0279
  994loPI   C6A14214  18.284  12.717   8.279  0.3261  0.0505 -0.0515
  994loPI   C1B14215  18.224  11.175   6.814 -0.0631 -0.1327 -0.0879
  994loPI   C2B14216  18.194  10.975   7.206 -0.4244  0.0905 -0.5090
  994loPI   C3B14217  18.418  10.842   7.558  0.0033  0.1585 -0.2049
  994loPI   C4B14218  18.325  10.756   8.051  0.0148  0.2649  0.0937
  995loPI    C114219   4.629   8.456   5.617  0.2108 -0.2352  0.2829
  995loPI    C214220   4.895   8.218   5.436  0.2952 -0.1191  0.2534
  995loPI    C314221   5.019   8.492   5.700  0.2211  0.0372  0.1277
  995loPI   PO414222   4.442   8.348   5.686 -0.2958  0.1325 -0.0721
  995loPI   GL114223   4.382   8.140   6.064 -0.0618 -0.0839  0.2126
  995loPI   GL214224   4.265   8.293   6.252 -0.1054 -0.0401 -0.0956
  995loPI   C1A14225   4.603   7.964   6.425  0.0804  0.4783 -0.0108
  995loPI   C2A14226   4.696   7.612   6.723 -0.0921  0.1548  0.2602
  995loPI   C3A14227   4.777   7.447   7.019 -0.1503  0.1155 -0.0356
  995loPI   C4A14228   5.000   7.480   7.428  0.1108  0.0407  0.0052
  995loPI   C5A14229   5.046   7.570   7.746  0.0596  0.1640 -0.5783
  995loPI   C6A14230   5.229   7.802   8.079 -0.3388  0.0991 -0.2323
  995loPI   C1B14231   4.295   8.280   6.684  0.0690  0.2110  0.1262
  995loPI   C2B14232   4.357   8.310   7.115  0.1816  0.1713  0.0843
  995loPI   C3B14233   4.506   8.337   7.469  0.1227 -0.2353  0.1306
  995loPI   C4B14234   4.610   8.584   7.861 -0.1582  0.2128 -0.0924
  996loPI    C114235   7.483   7.737   5.437  0.2858 -0.1195 -0.1643
  996loPI    C214236   7.757   8.020   5.373 -0.0554  0.3082  0.1947
  996loPI    C314237   7.426   8.008   5.149  0.1081 -0.0213 -0.0388
  996loPI   PO414238   7.615   7.753   5.754 -0.0325  0.2672 -0.1372
  996loPI   GL114239   7.574   7.939   6.147  0.1626 -0.1082 -0.0509
  996loPI   GL214240   7.505   8.243   6.308  0.1098  0.1468 -0.1385
  996loPI   C1A14241   7.477   7.658   6.461 -0.1144  0.0145 -0.0113
  996loPI   C2A14242   7.403   7.687   6.874  0.2573 -0.3327  0.0991
  996loPI   C3A14243   7.470   7.710   7.392 -0.1713  0.0995 -0.2734
  996loPI   C4A14244   7.391   7.684   7.825 -0.0408  0.2810  0.0340
  996loPI   C5A14245   7.108   7.873   8.192 -0.1288  0.0743  0.0272
  996loPI   C6A14246   7.169   8.236   8.530 -0.0346  0.0821  0.0537
  996loPI   C1B14247   7.573   8.119   6.775  0.2002  0.2171  0.1347
  996loPI   C2B14248   7.573   8.134   7.159 -0.2732 -0.0320 -0.0703
  996loPI   C3B14249   7.708   8.140   7.578 -0.1935  0.0959  0.2065
  996loPI   C4B14250   8.063   8.080   7.826 -0.1917  0.0424 -0.0048
  997loPI    C114251  16.925  14.501   5.810  0.0273  0.0245 -0.0032
  997loPI    C214252  16.816  14.258   5.512  0.3207  0.0213 -0.1107
  997loPI    C314253  16.766  14.653   5.476 -0.0879 -0.0125  0.0343
  997loPI   PO414254  16.781  14.541   6.077  0.0300  0.1250  0.0819
  997loPI   GL114255  16.608  14.901   6.386 -0.4255  0.0204  0.2810
  997loPI   GL214256  16.944  14.897   6.488 -0.2260 -0.0024  0.1841
  997loPI   C1A14257  16.667  14.640   6.810  0.0362 -0.0745 -0.1495
  997loPI   C2A14258  16.364  14.704   7.132 -0.0354 -0.1674 -0.0348
  997loPI   C3A14259  16.445  14.756   7.538 -0.0507  0.0125  0.2527
  997loPI   C4A14260  16.383  14.544   7.982  0.0678 -0.0279  0.0557
  997loPI   C5A14261  16.330  14.862   8.335 -0.2267  0.2155 -0.2169
  997loPI   C6A14262  16.021  15.026   8.682  0.0686  0.0395  0.0639
  997loPI   C1B14263  16.664  15.082   6.812 -0.2763 -0.3077  0.2027
  997loPI   C2B14264  16.524  15.137   7.243 -0.0463  0.0651  0.0625
  997loPI   C3B14265  16.695  15.446   7.510 -0.3305  0.2429 -0.1689
  997loPI   C4B14266  16.958  15.764   7.528  0.1355  0.0533  0.1408
  998loPI    C114267  16.216   2.966   5.898  0.1355  0.1383 -0.0354
  998loPI    C214268  16.452   2.920   5.578  0.1836  0.0465  0.0129
  998loPI    C314269  16.078   2.776   5.574  0.1924  0.0237  0.0068
  998loPI   PO414270  16.445   2.970   6.217  0.1522 -0.0082 -0.1557
  998loPI   GL114271  16.629   2.961   6.684  0.2371 -0.0738 -0.0779
  998loPI   GL214272  16.331   2.860   6.718 -0.2301 -0.1027  0.0453
  998loPI   C1A14273  16.867   3.001   7.017 -0.1903 -0.1264  0.0344
  998loPI   C2A14274  16.947   3.101   7.302 -0.0945  0.2058  0.1338
  998loPI   C3A14275  16.910   3.338   7.605 -0.0993 -0.3745  0.0814
  998loPI   C4A14276  16.995   3.243   8.041  0.0458  0.0853 -0.1731
  998loPI   C5A14277  16.931   3.091   8.483  0.0728  0.4984  0.1418
  998loPI   C6A14278  17.144   2.838   8.717 -0.0090  0.0965  0.0376
  998loPI   C1B14279  16.397   3.099   7.074 -0.4013  0.0486 -0.0363
  998loPI   C2B14280  16.501   3.071   7.555 -0.0112  0.2192  0.3983
  998loPI   C3B14281  16.313   3.154   7.936  0.1096  0.0905 -0.1810
  998loPI   C4B14282  16.495   3.353   8.303 -0.0154 -0.2429 -0.4241
  999loPI    C114283  13.675  13.484   5.756  0.0850 -0.1515 -0.0958
  999loPI    C214284  13.573  13.549   5.375  0.1228 -0.2053 -0.1152
  999loPI    C314285  13.416  13.239   5.574 -0.2977  0.1180  0.0721
  999loPI   PO414286  13.669  13.679   5.925 -0.1051 -0.0075 -0.1331
  999loPI   GL114287  13.461  13.860   6.232 -0.0450 -0.0676 -0.1793
  999loPI   GL214288  13.399  13.557   6.357  0.1640 -0.0932 -0.0155
  999loPI   C1A14289  13.606  14.160   6.476 -0.2764 -0.3152  0.2220
  999loPI   C2A14290  13.598  14.164   6.937 -0.0318 -0.0115  0.1532
  999loPI   C3A14291  13.662  14.098   7.281 -0.1946  0.2675 -0.0135
  999loPI   C4A14292  13.757  13.952   7.719 -0.4633 -0.3034  0.0117
  999loPI   C5A14293  13.824  14.155   8.123 -0.1221 -0.3224  0.1816
  999loPI   C6A14294  13.945  14.191   8.553  0.0319 -0.2105 -0.1728
  999loPI   C1B14295  13.540  13.730   6.721 -0.3232 -0.1798 -0.0980
  999loPI   C2B14296  13.553  13.637   7.136 -0.2258  0.0116  0.0935
  999loPI   C3B14297  13.658  13.525   7.499 -0.0994 -0.3444  0.0924
  999loPI   C4B14298  13.742  13.507   7.927  0.0132  0.0291 -0.4262
 1000loPI    C114299  13.112   5.584   5.979  0.0678  0.0304  0.3438
 1000loPI    C214300  12.727   5.517   5.898  0.1429  0.0240 -0.0284
 1000loPI    C314301  12.847   5.881   6.010  0.0391  0.0406  0.0302
 1000loPI   PO414302  13.161   5.278   6.124  0.1264  0.1192 -0.1450
 1000loPI   GL114303  13.061   5.112   6.496  0.2639  0.1320  0.3840
 1000loPI   GL214304  13.306   5.008   6.537  0.2189 -0.1596 -0.2582
 1000loPI   C1A14305  12.867   5.083   6.816  0.0095  0.0765 -0.0120
 1000loPI   C2A14306  12.803   4.911   7.255 -0.1431 -0.0570  0.0505
 1000loPI   C3A14307  12.709   5.109   7.741 -0.3504  0.1297  0.1825
 1000loPI   C4A14308  12.610   5.176   8.087 -0.1075 -0.0537  0.0146
 1000loPI   C5A14309  12.771   5.300   8.502  0.2532 -0.0155 -0.1245
 1000loPI   C6A14310  12.816   4.986   8.801  0.3161 -0.0662  0.2586
 1000loPI   C1B14311  13.407   4.873   7.064  0.0979  0.3120  0.1641
 1000loPI   C2B14312  13.698   4.885   7.430  0.0448  0.1297 -0.1097
 1000loPI   C3B14313  13.984   4.835   7.681  0.1253 -0.3220  0.0499
 1000loPI   C4B14314  14.310   4.693   7.908  0.0863 -0.0733  0.0091
 1001loPI    C114315   0.273  16.178   5.753 -0.0086  0.0350  0.0437
 1001loPI    C214316   0.524  16.261   6.053 -0.0161 -0.1907  0.1146
 1001loPI    C314317   0.528  15.899   5.883 -0.1012 -0.1054 -0.0724
 1001loPI   PO414318   0.061  16.221   5.883  0.0765 -0.0285  0.1132
 1001loPI   GL114319   0.137  16.095   6.315 -0.1750 -0.1398 -0.2759
 1001loPI   GL214320   0.449  15.890   6.417  0.1670 -0.0536  0.0395
 1001loPI   C1A14321  -0.054  16.160   6.767  0.0253 -0.1101  0.1093
 1001loPI   C2A14322  -0.219  16.231   7.233 -0.3240  0.0753  0.4655
 1001loPI   C3A14323  -0.063  16.063   7.576 -0.0013  0.1959  0.1244
 1001loPI   C4A14324   0.264  16.220   7.850 -0.3219  0.2626 -0.0371
 1001loPI   C5A14325   0.409  16.198   8.225  0.1672  0.3714  0.2260
 1001loPI   C6A14326   0.541  16.356   8.714  0.2755 -0.1690  0.0174
 1001loPI   C1B14327   0.469  16.213   6.698 -0.1184  0.2462  0.0051
 1001loPI   C2B14328   0.529  16.274   7.106  0.1014 -0.1033  0.0807
 1001loPI   C3B14329   0.452  16.644   7.401  0.2282  0.1960 -0.2568
 1001loPI   C4B14330   0.233  16.768   7.833 -0.1566 -0.1024 -0.1046
 1002loPI    C114331  16.776   6.938   5.513 -0.0000  0.0949 -0.0616
 1002loPI    C214332  16.653   6.577   5.393 -0.0927  0.1293 -0.0715
 1002loPI    C314333  16.607   6.894   5.153 -0.0470  0.1545 -0.0472
 1002loPI   PO414334  16.738   6.968   5.711  0.0325 -0.1809  0.2454
 1002loPI   GL114335  16.937   7.121   6.053  0.0560  0.1622 -0.0669
 1002loPI   GL214336  16.973   6.792   6.134 -0.2023 -0.1158  0.1586
 1002loPI   C1A14337  16.794   7.207   6.404 -0.1076  0.0322  0.1721
 1002loPI   C2A14338  16.697   7.272   6.873 -0.2349 -0.0315  0.0019
 1002loPI   C3A14339  16.653   7.251   7.285  0.2626 -0.2917 -0.0116
 1002loPI   C4A14340  16.939   7.114   7.659  0.3804  0.0345  0.0971
 1002loPI   C5A14341  17.115   6.889   8.014 -0.0406 -0.0131  0.0161
 1002loPI   C6A14342  17.309   6.370   7.987 -0.2603 -0.2118 -0.0524
 1002loPI   C1B14343  17.218   6.904   6.422  0.1015  0.0615 -0.1859
 1002loPI   C2B14344  17.168   6.935   6.882  0.1307 -0.3519 -0.3029
 1002loPI   C3B14345  17.279   7.009   7.277  0.0068 -0.0076  0.2008
 1002loPI   C4B14346  17.401   6.809   7.605 -0.1071  0.0753 -0.0972
 1003loPI    C114347  10.941   9.642   5.719  0.2406 -0.1871 -0.1143
 1003loPI    C214348  10.602   9.461   5.608  0.0179  0.0529  0.1578
 1003loPI    C314349  10.923   9.448   5.370 -0.1394 -0.2881 -0.0433
 1003loPI   PO414350  10.863   9.814   5.873 -0.2825  0.0875  0.1040
 1003loPI   GL114351  10.891   9.684   6.309 -0.1599  0.1537 -0.1548
 1003loPI   GL214352  11.138   9.893   6.280  0.0829  0.0811 -0.2512
 1003loPI   C1A14353  10.862   9.799   6.801 -0.1929 -0.0712  0.1727
 1003loPI   C2A14354  10.752   9.727   7.132  0.0983  0.0762 -0.0034
 1003loPI   C3A14355  10.738   9.898   7.452  0.0630  0.1911 -0.2191
 1003loPI   C4A14356  10.924  10.140   7.887  0.1038  0.1879 -0.0124
 1003loPI   C5A14357  10.694  10.348   8.221  0.1534  0.0467  0.2020
 1003loPI   C6A14358  10.721  10.293   8.630  0.2563 -0.2192 -0.0273
 1003loPI   C1B14359  11.275  10.131   6.695 -0.1468 -0.2347 -0.0323
 1003loPI   C2B14360  11.135  10.138   7.200  0.0016  0.0011  0.2384
 1003loPI   C3B14361  11.330  10.050   7.565  0.2639 -0.0167 -0.1924
 1003loPI   C4B14362  11.334   9.782   7.914 -0.0037 -0.4069 -0.0923
 1004loPI    C114363   2.023  16.783   6.278 -0.1396 -0.0212  0.0073
 1004loPI    C214364   2.131  16.414   6.388  0.2432 -0.0173 -0.3347
 1004loPI    C314365   2.001  16.482   6.016 -0.1342  0.1392 -0.1795
 1004loPI   PO414366   2.264  16.927   6.332  0.1024  0.1512 -0.1681
 1004loPI   GL114367   2.273  17.122   6.679  0.0480  0.1981 -0.0306
 1004loPI   GL214368   2.175  17.456   6.742 -0.2372  0.0140 -0.0631
 1004loPI   C1A14369   2.521  16.981   7.000 -0.0165  0.2228 -0.2365
 1004loPI   C2A14370   2.549  16.897   7.352  0.0125  0.1473 -0.1448
 1004loPI   C3A14371   2.441  16.930   7.686 -0.1243  0.0276 -0.2174
 1004loPI   C4A14372   2.407  17.151   8.150 -0.0560 -0.0577 -0.3175
 1004loPI   C5A14373   2.669  17.069   8.525 -0.3861 -0.1287 -0.2460
 1004loPI   C6A14374   2.652  17.445   8.859 -0.1823 -0.1657  0.1410
 1004loPI   C1B14375   2.324  17.412   7.162 -0.0400  0.2157 -0.0976
 1004loPI   C2B14376   2.205  17.410   7.619  0.0222 -0.1016 -0.1395
 1004loPI   C3B14377   2.066  17.463   7.979 -0.0498 -0.0242 -0.3582
 1004loPI   C4B14378   2.258  17.515   8.470 -0.1567 -0.4447  0.2170
 1005loPI    C114379  13.490   0.787   5.855 -0.3959 -0.0200  0.0839
 1005loPI    C214380  13.701   1.101   5.725  0.0378 -0.3053  0.0769
 1005loPI    C314381  13.385   0.973   5.517 -0.2822  0.2554  0.1970
 1005loPI   PO414382  13.463   0.739   6.126  0.0238  0.2375  0.0793
 1005loPI   GL114383  13.427   0.831   6.472  0.1702  0.0796 -0.2403
 1005loPI   GL214384  13.259   0.874   6.664 -0.0990 -0.1787 -0.3232
 1005loPI   C1A14385  13.732   0.692   6.786  0.1841  0.0391  0.3638
 1005loPI   C2A14386  13.897   0.671   7.136 -0.2864  0.1430  0.0082
 1005loPI   C3A14387  13.987   0.554   7.596 -0.1063  0.0347  0.0311
 1005loPI   C4A14388  13.926   0.445   7.945  0.0041 -0.0242 -0.0824
 1005loPI   C5A14389  13.858   0.247   8.371 -0.2697  0.1455  0.1929
 1005loPI   C6A14390  13.863   0.059   8.855  0.0243  0.2296  0.5786
 1005loPI   C1B14391  13.367   0.927   7.090 -0.3230  0.0787 -0.0644
 1005loPI   C2B14392  13.286   0.905   7.433  0.1537 -0.0475 -0.1406
 1005loPI   C3B14393  13.376   1.057   7.880  0.0290  0.0169 -0.2332
 1005loPI   C4B14394  13.038   1.124   8.206  0.2047 -0.2353  0.0455
 1006loPI    C114395  12.469  14.700   6.002  0.0467 -0.2306 -0.0857
 1006loPI    C214396  12.095  14.588   5.912 -0.0465 -0.0492  0.0684
 1006loPI    C314397  12.406  14.389   5.757 -0.2060 -0.2308 -0.0239
 1006loPI   PO414398  12.427  15.013   5.949  0.0800 -0.0514 -0.2449
 1006loPI   GL114399  12.520  15.288   6.257  0.1867  0.1636 -0.0889
 1006loPI   GL214400  12.346  15.579   6.383 -0.3167  0.0573 -0.0414
 1006loPI   C1A14401  12.451  15.097   6.634  0.0291 -0.0108  0.2632
 1006loPI   C2A14402  12.336  15.019   6.967 -0.1462  0.1386 -0.0565
 1006loPI   C3A14403  12.332  15.027   7.391  0.0401 -0.2711 -0.0353
 1006loPI   C4A14404  12.278  15.110   7.815 -0.1286  0.0827  0.0464
 1006loPI   C5A14405  12.435  15.292   8.079  0.1093 -0.1477 -0.4405
 1006loPI   C6A14406  12.552  15.677   8.324  0.1860 -0.3555  0.1820
 1006loPI   C1B14407  12.289  15.577   6.870  0.1431  0.0352  0.2180
 1006loPI   C2B14408  12.297  15.509   7.320  0.1489  0.1075 -0.1483
 1006loPI   C3B14409  12.274  15.679   7.683  0.2946 -0.4042  0.3292
 1006loPI   C4B14410  12.139  15.644   8.056  0.2813  0.2356 -0.0031
 1007loPI    C114411  17.285   7.046   5.568  0.0496 -0.0544 -0.0873
 1007loPI    C214412  17.152   6.887   5.226 -0.1322 -0.0682 -0.0116
 1007loPI    C314413  17.118   7.280   5.289  0.0552 -0.0402 -0.0788
 1007loPI   PO414414  17.497   6.921   5.629 -0.1485  0.1098 -0.1404
 1007loPI   GL114415  17.542   6.915   6.054  0.2237 -0.1565 -0.0064
 1007loPI   GL214416  17.481   6.614   6.107 -0.0176 -0.0014 -0.2651
 1007loPI   C1A14417  17.708   6.905   6.573 -0.1833 -0.1310  0.2833
 1007loPI   C2A14418  17.708   6.953   6.917 -0.0299  0.4107 -0.0399
 1007loPI   C3A14419  17.745   7.151   7.320 -0.1705 -0.0154  0.1887
 1007loPI   C4A14420  17.829   7.107   7.680  0.2161 -0.2114 -0.0594
 1007loPI   C5A14421  18.063   7.004   8.024 -0.2906 -0.1378 -0.2053
 1007loPI   C6A14422  18.323   7.151   8.124 -0.1953  0.0132  0.0265
 1007loPI   C1B14423  17.755   6.341   6.424 -0.0561  0.4055 -0.1613
 1007loPI   C2B14424  17.872   6.432   6.807 -0.3437 -0.0784  0.3504
 1007loPI   C3B14425  17.883   6.635   7.292  0.2067  0.2193  0.0277
 1007loPI   C4B14426  18.026   6.664   7.674 -0.0387 -0.2334 -0.2110
 1008loPI    C114427   9.370   7.946   5.605 -0.0329  0.1686 -0.0271
 1008loPI    C214428   9.424   7.585   5.442  0.2588  0.1577  0.0874
 1008loPI    C314429   9.218   7.865   5.244  0.3081  0.0328 -0.1445
 1008loPI   PO414430   9.603   8.008   5.674  0.0552  0.5323  0.1226
 1008loPI   GL114431   9.913   8.048   6.069  0.0330 -0.1196  0.4109
 1008loPI   GL214432   9.809   7.629   6.148 -0.0473 -0.1365  0.1452
 1008loPI   C1A14433   9.896   8.221   6.457  0.0214  0.1178  0.2069
 1008loPI   C2A14434   9.864   8.215   6.858 -0.2568  0.0976 -0.3024
 1008loPI   C3A14435   9.923   8.158   7.372  0.0298 -0.1216  0.1026
 1008loPI   C4A14436   9.936   8.134   7.858  0.0292  0.1106  0.0415
 1008loPI   C5A14437   9.934   8.275   8.361 -0.0191  0.3705  0.3574
 1008loPI   C6A14438  10.304   8.421   8.637  0.1293 -0.0716 -0.2107
 1008loPI   C1B14439   9.845   7.644   6.648 -0.1119 -0.2069  0.0074
 1008loPI   C2B14440   9.817   7.752   7.136 -0.0683  0.3324 -0.1169
 1008loPI   C3B14441   9.802   7.614   7.534  0.0335 -0.3413 -0.1427
 1008loPI   C4B14442   9.919   7.453   8.071 -0.1789  0.0697 -0.0780
 1009loPI    C114443   8.022  17.549   5.737  0.0788 -0.1452 -0.0532
 1009loPI    C214444   8.381  17.723   5.710 -0.0335  0.1262  0.1519
 1009loPI    C314445   8.134  17.723   5.395  0.0783  0.0876  0.0634
 1009loPI   PO414446   8.010  17.500   5.903  0.3199 -0.4898 -0.1584
 1009loPI   GL114447   8.386  17.395   6.232 -0.0178  0.0467 -0.2054
 1009loPI   GL214448   8.251  17.687   6.279 -0.1209 -0.0965  0.0595
 1009loPI   C1A14449   8.528  17.417   6.643  0.0097 -0.1498 -0.0281
 1009loPI   C2A14450   8.518  17.367   7.102  0.0653  0.0873 -0.0360
 1009loPI   C3A14451   8.501  17.404   7.550  0.0217 -0.3470 -0.2218
 1009loPI   C4A14452   8.760  17.289   7.776 -0.0182 -0.1424 -0.1354
 1009loPI   C5A14453   9.002  17.544   8.022 -0.2025  0.1135  0.0911
 1009loPI   C6A14454   8.920  18.017   8.160  0.2982 -0.2445 -0.0778
 1009loPI   C1B14455   7.956  17.977   6.530 -0.0142  0.1899 -0.0531
 1009loPI   C2B14456   7.674  18.240   6.634 -0.0439 -0.1599 -0.0897
 1009loPI   C3B14457   7.782  18.339   7.055 -0.0721 -0.1676 -0.0927
 1009loPI   C4B14458   7.781  18.296   7.514 -0.5864 -0.0729 -0.3899
 1010loPI    C114459   1.409  12.364   5.692 -0.1188 -0.0017 -0.1508
 1010loPI    C214460   1.629  12.552   5.416 -0.0915  0.2148  0.0156
 1010loPI    C314461   1.376  12.262   5.306  0.2764 -0.0417 -0.1781
 1010loPI   PO414462   1.501  12.516   5.924  0.1412 -0.2478 -0.2420
 1010loPI   GL114463   1.596  12.320   6.296  0.1001  0.0367 -0.1877
 1010loPI   GL214464   1.928  12.350   6.397  0.0693  0.0908  0.0162
 1010loPI   C1A14465   1.627  12.182   6.768  0.1569 -0.1390  0.1236
 1010loPI   C2A14466   1.504  12.192   7.112 -0.0301  0.1682 -0.0924
 1010loPI   C3A14467   1.149  12.289   7.393 -0.0017  0.1599  0.0773
 1010loPI   C4A14468   1.084  12.471   7.785  0.0012 -0.2060  0.1096
 1010loPI   C5A14469   0.861  12.362   8.240  0.2309 -0.0713  0.0803
 1010loPI   C6A14470   0.643  12.142   8.298 -0.3052  0.1094 -0.0792
 1010loPI   C1B14471   2.159  12.346   6.738 -0.1517  0.2028  0.1744
 1010loPI   C2B14472   2.388  12.531   7.087  0.0321 -0.0653 -0.2342
 1010loPI   C3B14473   2.437  12.712   7.472  0.1887 -0.0714  0.1471
 1010loPI   C4B14474   2.247  12.663   7.932  0.0356  0.0976 -0.1565
 1011loPI    C114475  13.606  10.138   5.594 -0.2089 -0.3607  0.0287
 1011loPI    C214476  13.394  10.391   5.819 -0.0159 -0.1308 -0.0429
 1011loPI    C314477  13.211  10.170   5.541 -0.1788 -0.0258 -0.0212
 1011loPI   PO414478  13.833   9.918   5.764  0.2855 -0.1861 -0.0123
 1011loPI   GL114479  13.890   9.859   6.133 -0.1015  0.0029 -0.4635
 1011loPI   GL214480  14.139   9.803   6.246 -0.1878  0.1937  0.2314
 1011loPI   C1A14481  13.859  10.110   6.563  0.0210 -0.0194  0.5023
 1011loPI   C2A14482  13.929  10.178   7.089 -0.3154 -0.0931 -0.3514
 1011loPI   C3A14483  14.019  10.273   7.567  0.0431 -0.0347  0.1803
 1011loPI   C4A14484  14.035  10.204   7.942 -0.0246  0.3393  0.0767
 1011loPI   C5A14485  13.918   9.954   8.270 -0.1930 -0.0631  0.4112
 1011loPI   C6A14486  13.879   9.752   8.708  0.2136 -0.1025  0.0891
 1011loPI   C1B14487  14.332   9.847   6.616 -0.3785 -0.1664 -0.0279
 1011loPI   C2B14488  14.503   9.904   7.014 -0.0703  0.2377  0.1065
 1011loPI   C3B14489  14.559   9.951   7.467 -0.0833  0.0649  0.1722
 1011loPI   C4B14490  14.565  10.062   7.914 -0.0030  0.1110 -0.0179
 1012loPI    C114491   7.743  12.385   5.627  0.0983  0.2484 -0.1281
 1012loPI    C214492   7.345  12.416   5.593  0.0234 -0.1409  0.2950
 1012loPI    C314493   7.584  12.611   5.338 -0.4351  0.1136  0.0485
 1012loPI   PO414494   7.839  12.499   5.863 -0.0975 -0.0000 -0.0054
 1012loPI   GL114495   7.978  12.536   6.365 -0.0718  0.1708  0.1585
 1012loPI   GL214496   7.651  12.475   6.370  0.2915  0.2007 -0.4104
 1012loPI   C1A14497   8.209  12.719   6.682  0.0124  0.0484  0.0066
 1012loPI   C2A14498   8.172  12.831   7.062  0.1067  0.1572 -0.2620
 1012loPI   C3A14499   8.328  12.766   7.458  0.3287 -0.0965  0.3054
 1012loPI   C4A14500   8.107  12.708   7.774 -0.4794 -0.0857  0.0768
 1012loPI   C5A14501   7.954  12.685   8.220 -0.4656  0.4548 -0.0874
 1012loPI   C6A14502   7.648  12.651   8.511 -0.6272 -0.2375 -0.0944
 1012loPI   C1B14503   7.771  12.479   6.891 -0.1689 -0.2116  0.1364
 1012loPI   C2B14504   7.882  12.478   7.322  0.1794  0.0237  0.0168
 1012loPI   C3B14505   7.818  12.345   7.704 -0.0916  0.1216 -0.0441
 1012loPI   C4B14506   8.039  12.167   8.037 -0.0180 -0.0681  0.0986
 1013POPI    C114507  10.159   0.488   5.459 -0.0512 -0.0313 -0.3128
 1013POPI    C214508  10.557   0.521   5.431  0.0097 -0.2011  0.2357
 1013POPI    C314509  10.327   0.847   5.407  0.1686 -0.1153 -0.2003
 1013POPI   PO414510  10.056   0.360   5.662  0.4256  0.0449  0.0679
 1013POPI   GL114511  10.084   0.439   6.117 -0.1932  0.1286  0.1121
 1013POPI   GL214512   9.955   0.237   6.142  0.1330 -0.0409  0.1990
 1013POPI   C1A14513  10.533   0.744   6.382  0.0570 -0.1233 -0.1533
 1013POPI   D2A14514  10.579   1.071   6.742 -0.1512  0.1888 -0.1062
 1013POPI   C3A14515  10.487   1.087   7.120  0.0203  0.1228 -0.0520
 1013POPI   C4A14516  10.613   1.014   7.544 -0.2529 -0.4378  0.0585
 1013POPI   C1B14517   9.789   0.266   6.527 -0.1423  0.0806  0.2531
 1013POPI   C2B14518   9.624   0.575   6.853 -0.1664  0.1981 -0.2630
 1013POPI   C3B14519   9.589   0.578   7.252 -0.0971 -0.1025 -0.0116
 1013POPI   C4B14520   9.642   0.500   7.701  0.0197  0.2439  0.3716
 1014POPI    C114521   6.606  10.974   5.546 -0.1245 -0.1599 -0.0658
 1014POPI    C214522   6.671  10.708   5.254  0.3270  0.0608 -0.1755
 1014POPI    C314523   6.588  11.088   5.163  0.3086  0.0957 -0.0163
 1014POPI   PO414524   6.685  10.851   5.769 -0.0445  0.0707  0.1362
 1014POPI   GL114525   6.866  11.049   6.251  0.0289  0.0107 -0.1885
 1014POPI   GL214526   7.155  11.241   6.273  0.3021 -0.4252 -0.3129
 1014POPI   C1A14527   6.858  11.094   6.734 -0.0636 -0.0050 -0.0689
 1014POPI   D2A14528   6.883  11.109   7.195  0.1652 -0.0198 -0.1082
 1014POPI   C3A14529   7.064  10.797   7.460 -0.2032  0.0631  0.0094
 1014POPI   C4A14530   7.228  10.732   7.814 -0.0413 -0.0309  0.2056
 1014POPI   C1B14531   7.234  11.417   6.747 -0.3566 -0.0733 -0.1483
 1014POPI   C2B14532   7.537  11.512   7.119  0.0144  0.0277  0.1315
 1014POPI   C3B14533   7.699  11.468   7.466  0.1570  0.0816 -0.1265
 1014POPI   C4B14534   7.724  11.085   7.724 -0.1737 -0.0081 -0.1076
 1015POPI    C114535   1.728   0.366   5.916 -0.3362 -0.0720  0.1329
 1015POPI    C214536   2.052   0.325   5.685 -0.1216 -0.0344  0.4212
 1015POPI    C314537   1.697   0.407   5.519  0.0677  0.2056  0.1239
 1015POPI   PO414538   1.773   0.327   6.113 -0.1064  0.0799  0.1129
 1015POPI   GL114539   1.852   0.296   6.506  0.1091  0.0680  0.2717
 1015POPI   GL214540   2.039   0.104   6.639  0.1347  0.0392 -0.1655
 1015POPI   C1A14541   1.815   0.344   7.009  0.0119  0.1064 -0.1133
 1015POPI   D2A14542   2.059   0.405   7.433  0.2809 -0.1157  0.0493
 1015POPI   C3A14543   1.706   0.315   7.672  0.1892  0.0646  0.2368
 1015POPI   C4A14544   1.644   0.230   8.008  0.1299 -0.1957 -0.0826
 1015POPI   C1B14545   2.274   0.060   7.011  0.2645  0.3595  0.0326
 1015POPI   C2B14546   2.441   0.008   7.497  0.0679  0.2676  0.1362
 1015POPI   C3B14547   2.146   0.199   7.834 -0.1156 -0.0013  0.0683
 1015POPI   C4B14548   2.059   0.144   8.298 -0.0790 -0.0737  0.0072
 1016POPI    C114549   7.024  12.953   5.875 -0.0134 -0.0109  0.1132
 1016POPI    C214550   6.740  13.178   5.705  0.1259  0.0372 -0.0580
 1016POPI    C314551   7.022  13.006   5.479 -0.1449 -0.5514  0.0331
 1016POPI   PO414552   6.852  12.876   6.095 -0.0018  0.1982 -0.1260
 1016POPI   GL114553   6.943  12.810   6.481 -0.2461 -0.0669 -0.1426
 1016POPI   GL214554   6.799  13.110   6.507 -0.1088  0.1536  0.0555
 1016POPI   C1A14555   6.599  12.619   6.837 -0.3470 -0.0781  0.1165
 1016POPI   D2A14556   6.713  12.659   7.204  0.0580  0.0351 -0.3383
 1016POPI   C3A14557   6.670  12.739   7.615 -0.0479 -0.1067 -0.1263
 1016POPI   C4A14558   6.559  12.709   8.001  0.0233  0.2691 -0.0666
 1016POPI   C1B14559   7.003  13.049   6.961  0.0047  0.1813 -0.2723
 1016POPI   C2B14560   7.115  12.964   7.427  0.4037 -0.1934 -0.1184
 1016POPI   C3B14561   7.077  13.027   7.837  0.1349  0.0871  0.1666
 1016POPI   C4B14562   7.222  12.944   8.271 -0.1304  0.0171  0.0744
 1017POPI    C114563   1.840  10.823   5.761 -0.1084  0.1704 -0.0394
 1017POPI    C214564   2.210  10.797   5.611 -0.0335 -0.1459  0.1905
 1017POPI    C314565   1.920  10.560   5.470 -0.0847 -0.0854  0.1938
 1017POPI   PO414566   1.960  11.005   6.016 -0.0212  0.1904 -0.0242
 1017POPI   GL114567   2.052  10.920   6.439 -0.1016  0.1565  0.0199
 1017POPI   GL214568   1.930  11.241   6.487  0.1145 -0.2475 -0.0551
 1017POPI   C1A14569   2.318  10.700   6.785 -0.1891  0.2292 -0.2037
 1017POPI   D2A14570   2.554  10.465   7.125  0.0233  0.0317  0.0214
 1017POPI   C3A14571   2.483  10.425   7.492 -0.3541  0.1072  0.3844
 1017POPI   C4A14572   2.660  10.171   7.800  0.1554  0.2787  0.2775
 1017POPI   C1B14573   1.752  11.446   6.877 -0.1149 -0.0823  0.1285
 1017POPI   C2B14574   1.735  11.610   7.280 -0.1496  0.2576 -0.2042
 1017POPI   C3B14575   1.988  11.803   7.617 -0.0890  0.2923  0.1440
 1017POPI   C4B14576   2.270  11.717   7.940 -0.0212  0.0620 -0.0994
 1018POPI    C114577   4.185  16.405   5.831 -0.4493  0.2228  0.0051
 1018POPI    C214578   4.149  16.684   5.546 -0.1227 -0.0360 -0.2986
 1018POPI    C314579   4.335  16.339   5.466 -0.0127 -0.1088  0.2359
 1018POPI   PO414580   4.307  16.546   6.077 -0.0350 -0.1217 -0.1159
 1018POPI   GL114581   4.294  16.363   6.532  0.1147 -0.0243  0.0054
 1018POPI   GL214582   3.990  16.239   6.740  0.2630  0.1405  0.0242
 1018POPI   C1A14583   4.444  16.200   6.945  0.0689 -0.2281  0.3195
 1018POPI   D2A14584   4.561  16.372   7.260 -0.3470 -0.0898 -0.0303
 1018POPI   C3A14585   4.390  16.344   7.683 -0.0834 -0.3571  0.3208
 1018POPI   C4A14586   4.432  16.178   8.017 -0.0502  0.0219 -0.0313
 1018POPI   C1B14587   3.961  16.123   7.110  0.0389 -0.1087  0.1907
 1018POPI   C2B14588   3.966  16.110   7.488 -0.1796  0.1168  0.0347
 1018POPI   C3B14589   3.976  16.056   7.913  0.0269 -0.0224  0.1732
 1018POPI   C4B14590   4.101  15.884   8.325 -0.2523  0.1089 -0.2007
 1019POPI    C114591   0.687  11.662   5.834 -0.1756 -0.2994  0.0037
 1019POPI    C214592   0.343  11.786   5.672  0.0041  0.2534  0.0229
 1019POPI    C314593   0.679  11.785   5.454  0.0670  0.0879  0.1180
 1019POPI   PO414594   0.721  11.833   6.124  0.0870 -0.4247 -0.6647
 1019POPI   GL114595   0.743  12.287   6.391 -0.1140 -0.1715 -0.0973
 1019POPI   GL214596   1.047  12.093   6.589 -0.2091  0.2470 -0.1455
 1019POPI   C1A14597   0.455  12.298   6.720  0.1147  0.0837  0.1176
 1019POPI   D2A14598   0.059  12.359   6.852 -0.0254  0.0468  0.0960
 1019POPI   C3A14599  -0.135  12.140   7.189  0.0787 -0.0478  0.2472
 1019POPI   C4A14600  -0.286  12.166   7.615  0.0443  0.0935  0.0814
 1019POPI   C1B14601   0.912  12.126   7.008 -0.1491  0.2476 -0.0482
 1019POPI   C2B14602   0.721  12.084   7.348  0.0944  0.0559 -0.2468
 1019POPI   C3B14603   0.636  11.970   7.752 -0.1246  0.2582 -0.1113
 1019POPI   C4B14604   0.496  11.673   8.206  0.1876  0.2104 -0.1770
 1020POPI    C114605  10.592   2.613   5.982  0.2782 -0.1710  0.0157
 1020POPI    C214606  10.875   2.777   5.751  0.0056  0.1503 -0.0986
 1020POPI    C314607  10.512   2.702   5.600 -0.0581  0.0029  0.1229
 1020POPI   PO414608  10.649   2.382   6.073 -0.0920 -0.1518 -0.0833
 1020POPI   GL114609  10.705   2.220   6.538  0.2606 -0.0528 -0.1221
 1020POPI   GL214610  10.587   1.972   6.315  0.0781  0.1659 -0.0143
 1020POPI   C1A14611  10.656   2.069   7.037  0.0173 -0.0722 -0.0871
 1020POPI   D2A14612  10.636   2.056   7.491 -0.2769  0.1273  0.1761
 1020POPI   C3A14613  10.671   1.693   7.707 -0.0509 -0.1337  0.1138
 1020POPI   C4A14614  10.742   1.552   8.117  0.2813 -0.2619 -0.0518
 1020POPI   C1B14615  10.322   1.682   6.442  0.1814 -0.0485 -0.1190
 1020POPI   C2B14616  10.395   1.552   6.842 -0.0105  0.3490  0.0571
 1020POPI   C3B14617  10.612   1.583   7.218  0.3476  0.4488  0.1115
 1020POPI   C4B14618  11.019   1.704   7.395 -0.0353 -0.0117  0.2047
 1021POPI    C114619   9.276  15.449   5.742  0.0970  0.0486 -0.2065
 1021POPI    C214620   9.149  15.786   5.567 -0.1490  0.0368 -0.0544
 1021POPI    C314621   8.913  15.594   5.827 -0.0017 -0.2414 -0.1225
 1021POPI   PO414622   9.619  15.522   5.908  0.0439  0.0576 -0.0608
 1021POPI   GL114623   9.749  15.328   6.309  0.0402 -0.4927  0.0069
 1021POPI   GL214624   9.894  15.123   6.461 -0.1152 -0.0674 -0.0428
 1021POPI   C1A14625   9.632  15.625   6.616  0.1763  0.0765 -0.0419
 1021POPI   D2A14626   9.525  16.035   6.780  0.3145  0.0408 -0.0478
 1021POPI   C3A14627   9.487  16.171   7.165  0.2870  0.0001  0.3201
 1021POPI   C4A14628   9.639  16.206   7.546  0.1217 -0.1122 -0.3087
 1021POPI   C1B14629   9.862  15.150   6.823  0.4584  0.0885  0.1632
 1021POPI   C2B14630   9.939  15.105   7.137 -0.1622 -0.1574 -0.1140
 1021POPI   C3B14631  10.012  15.216   7.559  0.1263 -0.0713 -0.1804
 1021POPI   C4B14632  10.249  15.172   7.916 -0.2594 -0.0668  0.0623
 1022POPI    C114633   8.807   4.423   5.604 -0.1961 -0.0891 -0.0068
 1022POPI    C214634   8.823   4.128   5.873 -0.1387 -0.0172  0.0692
 1022POPI    C314635   8.890   4.050   5.487 -0.2488 -0.1257  0.0714
 1022POPI   PO414636   8.924   4.665   5.797  0.0517  0.0723  0.0710
 1022POPI   GL114637   8.828   4.809   6.129  0.1846  0.2387  0.0753
 1022POPI   GL214638   8.742   4.660   6.302 -0.2192 -0.1341  0.1985
 1022POPI   C1A14639   9.029   5.113   6.395  0.1705  0.1007  0.1707
 1022POPI   D2A14640   9.081   5.183   6.864 -0.3147 -0.1282 -0.2407
 1022POPI   C3A14641   9.210   5.456   7.185  0.1358  0.0775 -0.0811
 1022POPI   C4A14642   9.182   5.380   7.683 -0.0593  0.0695 -0.1799
 1022POPI   C1B14643   8.773   4.689   6.702  0.1195 -0.0188  0.0751
 1022POPI   C2B14644   8.794   4.587   7.047 -0.3274  0.1894 -0.0672
 1022POPI   C3B14645   8.752   4.647   7.484 -0.1137  0.1537  0.0176
 1022POPI   C4B14646   8.536   4.663   7.833 -0.1560 -0.1604 -0.2031
 1023POPI    C114647   1.513   7.859   5.383  0.0604 -0.0807  0.1821
 1023POPI    C214648   1.436   7.923   4.996  0.0513  0.0853  0.2108
 1023POPI    C314649   1.717   7.659   5.102 -0.1990 -0.2333  0.0990
 1023POPI   PO414650   1.336   7.751   5.546 -0.1225 -0.1490  0.0683
 1023POPI   GL114651   1.400   7.667   5.897 -0.0484 -0.0602  0.2284
 1023POPI   GL214652   1.570   7.958   6.021 -0.2067  0.0646  0.0790
 1023POPI   C1A14653   1.458   7.699   6.387 -0.0994 -0.0581  0.4341
 1023POPI   D2A14654   1.609   7.540   6.764  0.1665 -0.0472 -0.2845
 1023POPI   C3A14655   1.721   7.624   7.280  0.1128 -0.0934 -0.1684
 1023POPI   C4A14656   1.453   7.360   7.514  0.0410  0.1279  0.1820
 1023POPI   C1B14657   1.394   8.158   6.229 -0.1798 -0.3456  0.2016
 1023POPI   C2B14658   1.083   8.048   6.505  0.1697 -0.0486  0.0907
 1023POPI   C3B14659   1.280   8.006   6.903  0.1156  0.0174 -0.1074
 1023POPI   C4B14660   1.250   7.865   7.261 -0.0170 -0.3019 -0.2035
 1024POPI    C114661  12.872   6.366   5.906  0.1178  0.2107 -0.0499
 1024POPI    C214662  13.084   6.143   5.650 -0.1774  0.1036 -0.2057
 1024POPI    C314663  12.819   6.409   5.512 -0.2864  0.0979 -0.0120
 1024POPI   PO414664  12.982   6.383   6.159  0.1511  0.1300  0.2873
 1024POPI   GL114665  13.211   6.163   6.455 -0.0542  0.2118 -0.0011
 1024POPI   GL214666  13.304   6.466   6.477  0.0911 -0.1131 -0.0471
 1024POPI   C1A14667  13.240   5.916   6.839  0.0549  0.0308 -0.2972
 1024POPI   D2A14668  13.313   5.712   7.245 -0.1672  0.2115 -0.1267
 1024POPI   C3A14669  13.381   5.760   7.694 -0.0765  0.0963 -0.0098
 1024POPI   C4A14670  13.550   5.628   8.037  0.1386 -0.4216  0.0243
 1024POPI   C1B14671  13.312   6.453   6.893 -0.4140 -0.0246  0.0762
 1024POPI   C2B14672  13.419   6.258   7.150  0.0018 -0.1473  0.0210
 1024POPI   C3B14673  13.467   6.253   7.612 -0.2109  0.2122  0.0188
 1024POPI   C4B14674  13.300   6.074   8.062  0.0737 -0.2431 -0.1547
 1025POPI    C114675  11.383   1.291   5.865  0.0615 -0.2126 -0.1394
 1025POPI    C214676  11.344   0.948   5.663  0.0021 -0.3041  0.0254
 1025POPI    C314677  11.679   1.165   5.627 -0.1223 -0.1703 -0.3953
 1025POPI   PO414678  11.233   1.219   6.154 -0.2534 -0.2015 -0.3768
 1025POPI   GL114679  11.309   1.150   6.531  0.0876 -0.0383  0.2434
 1025POPI   GL214680  11.571   1.094   6.665 -0.0243 -0.1840 -0.1390
 1025POPI   C1A14681  10.984   0.768   6.688 -0.1737 -0.1335 -0.1384
 1025POPI   D2A14682  10.556   0.624   6.890 -0.0529  0.2080  0.1139
 1025POPI   C3A14683  10.546   0.539   7.219  0.0591 -0.0560 -0.1015
 1025POPI   C4A14684  10.598   0.516   7.587  0.3240 -0.0090  0.0629
 1025POPI   C1B14685  11.443   0.854   6.946 -0.0642 -0.1511 -0.3529
 1025POPI   C2B14686  11.490   0.631   7.249 -0.1129  0.1263 -0.2505
 1025POPI   C3B14687  11.548   0.674   7.572 -0.0413  0.1266 -0.0027
 1025POPI   C4B14688  11.792   0.832   7.911  0.1336  0.0401  0.1477
 1026POPI    C114689   6.954   1.333   6.216  0.1876 -0.4456 -0.1807
 1026POPI    C214690   7.153   1.672   6.289 -0.1935 -0.2447 -0.0459
 1026POPI    C314691   7.036   1.584   5.916 -0.0796 -0.2370 -0.0838
 1026POPI   PO414692   6.756   1.363   6.452  0.1709 -0.1356  0.1932
 1026POPI   GL114693   6.858   1.505   6.768 -0.1249  0.1277 -0.1067
 1026POPI   GL214694   6.937   1.790   6.742  0.0538  0.0677 -0.0402
 1026POPI   C1A14695   6.689   1.409   7.133 -0.2822 -0.0482 -0.2256
 1026POPI   D2A14696   6.818   1.318   7.567 -0.0970 -0.1590  0.0267
 1026POPI   C3A14697   6.502   1.125   7.873  0.0276 -0.1316  0.1836
 1026POPI   C4A14698   6.383   1.014   8.201 -0.1162 -0.0921  0.0803
 1026POPI   C1B14699   7.004   1.821   7.139  0.2328 -0.0664 -0.2332
 1026POPI   C2B14700   6.945   1.816   7.561  0.0776  0.3838 -0.1977
 1026POPI   C3B14701   6.743   1.753   7.911 -0.1723  0.0385 -0.0537
 1026POPI   C4B14702   6.826   1.466   8.203 -0.1302 -0.0938 -0.0986
 1027POPI    C114703   1.161   2.270   5.634 -0.0825  0.0502 -0.1357
 1027POPI    C214704   1.052   2.655   5.617  0.0105  0.0689 -0.3376
 1027POPI    C314705   0.776   2.367   5.584 -0.0533  0.1173 -0.2324
 1027POPI   PO414706   1.310   2.244   5.870 -0.3546  0.0814  0.0838
 1027POPI   GL114707   1.348   2.293   6.335 -0.1481  0.1469  0.0580
 1027POPI   GL214708   1.172   2.645   6.368 -0.3405  0.0588  0.2461
 1027POPI   C1A14709   1.542   2.172   6.775 -0.1030 -0.0261 -0.3457
 1027POPI   D2A14710   2.030   2.074   6.913 -0.4192 -0.1373  0.3273
 1027POPI   C3A14711   2.111   2.197   7.309  0.1704 -0.1334  0.3394
 1027POPI   C4A14712   2.179   2.454   7.703 -0.1493  0.1457  0.0151
 1027POPI   C1B14713   1.287   2.816   6.785  0.4003 -0.2160  0.2332
 1027POPI   C2B14714   1.405   2.940   7.211 -0.0544 -0.1103 -0.2706
 1027POPI   C3B14715   1.486   2.990   7.654 -0.1413  0.1973  0.2831
 1027POPI   C4B14716   1.383   3.341   8.051  0.0067 -0.2135  0.1749
 1028POPI    C114717  15.628   9.145   5.755 -0.0288 -0.0681 -0.1835
 1028POPI    C214718  15.517   8.769   5.679 -0.1040 -0.0730 -0.0521
 1028POPI    C314719  15.413   9.062   5.428  0.1431 -0.1700 -0.2713
 1028POPI   PO414720  15.544   9.193   5.954 -0.0092 -0.0165  0.2314
 1028POPI   GL114721  15.265   9.258   6.345  0.0690 -0.0105  0.3144
 1028POPI   GL214722  15.126   9.479   6.092 -0.2000 -0.0996  0.0070
 1028POPI   C1A14723  15.345   9.279   6.835  0.0380  0.0722  0.2701
 1028POPI   D2A14724  15.195   9.274   7.271  0.1991  0.3045  0.3426
 1028POPI   C3A14725  15.208   9.287   7.747 -0.0590 -0.0118  0.0925
 1028POPI   C4A14726  15.271   9.560   8.192  0.3192  0.1496  0.0245
 1028POPI   C1B14727  15.289   9.686   6.554  0.0430 -0.0088 -0.1117
 1028POPI   C2B14728  15.297   9.744   7.037 -0.0905  0.1092 -0.0501
 1028POPI   C3B14729  15.344   9.770   7.459 -0.1033 -0.0851 -0.0815
 1028POPI   C4B14730  15.588   9.685   7.780  0.0254  0.2205  0.2294
 1029POPI    C114731  12.267   5.091   5.918  0.1617 -0.1973 -0.0699
 1029POPI    C214732  11.929   4.891   5.840 -0.1810  0.2713  0.1651
 1029POPI    C314733  12.094   5.123   5.559 -0.2668  0.3381  0.1693
 1029POPI   PO414734  12.236   5.180   6.124  0.1747  0.1687  0.0054
 1029POPI   GL114735  12.099   5.344   6.484  0.1154  0.0461 -0.0856
 1029POPI   GL214736  12.088   5.625   6.496  0.0414 -0.2858  0.1949
 1029POPI   C1A14737  12.254   5.411   6.899  0.2095  0.1088  0.2671
 1029POPI   D2A14738  12.392   5.229   7.343  0.2253  0.1346 -0.0158
 1029POPI   C3A14739  12.329   5.407   7.689 -0.2407 -0.0384 -0.0916
 1029POPI   C4A14740  12.374   5.599   7.978  0.0576 -0.1059 -0.2560
 1029POPI   C1B14741  12.314   5.871   6.813 -0.3099 -0.5865 -0.1513
 1029POPI   C2B14742  12.432   6.216   7.202  0.1111 -0.0132  0.0925
 1029POPI   C3B14743  12.559   6.441   7.573 -0.0057  0.0391 -0.1356
 1029POPI   C4B14744  12.568   6.756   7.911 -0.0350  0.2248 -0.1867
 1030POPI    C114745   4.061   0.966   5.970 -0.0372  0.1893  0.0146
 1030POPI    C214746   4.153   0.584   6.042 -0.1438  0.1300 -0.1596
 1030POPI    C314747   3.774   0.707   6.070 -0.1095  0.2233 -0.1032
 1030POPI   PO414748   4.167   1.101   6.005 -0.1754 -0.2759  0.1411
 1030POPI   GL114749   4.217   1.260   6.397  0.2361  0.2618 -0.0358
 1030POPI   GL214750   4.038   1.028   6.497  0.0415 -0.2071  0.2305
 1030POPI   C1A14751   4.344   1.324   6.830 -0.1460  0.2529  0.2441
 1030POPI   D2A14752   4.668   1.298   7.100 -0.1454 -0.0071 -0.0226
 1030POPI   C3A14753   4.572   1.243   7.458  0.3007  0.1091 -0.0308
 1030POPI   C4A14754   4.400   1.082   7.819  0.2255 -0.2322  0.1726
 1030POPI   C1B14755   3.939   0.931   6.882 -0.0470 -0.3169  0.1247
 1030POPI   C2B14756   4.074   0.883   7.347  0.2590 -0.1442 -0.1175
 1030POPI   C3B14757   3.916   1.024   7.880  0.0495 -0.0067 -0.3762
 1030POPI   C4B14758   4.179   0.899   8.277  0.1581  0.1232 -0.0815
 1031POPI    C114759   5.828   6.725   6.049  0.1739 -0.0099 -0.0157
 1031POPI    C214760   5.520   6.575   5.842  0.0427  0.0524  0.1329
 1031POPI    C314761   5.895   6.505   5.721 -0.0318  0.0733 -0.1150
 1031POPI   PO414762   5.732   6.975   6.091 -0.0375 -0.0969 -0.1237
 1031POPI   GL114763   5.566   7.066   6.471 -0.0607 -0.2168 -0.0491
 1031POPI   GL214764   5.651   6.761   6.536  0.2229  0.2136 -0.3022
 1031POPI   C1A14765   5.520   7.276   6.890  0.3841 -0.0170 -0.1575
 1031POPI   D2A14766   5.685   7.557   7.031  0.0385 -0.1118  0.2338
 1031POPI   C3A14767   5.760   7.378   7.332 -0.1734 -0.2286 -0.0253
 1031POPI   C4A14768   5.652   7.115   7.656  0.0913  0.0512 -0.2212
 1031POPI   C1B14769   5.641   6.720   7.045  0.3017 -0.1652  0.1157
 1031POPI   C2B14770   5.555   6.660   7.453 -0.1421  0.1081 -0.4701
 1031POPI   C3B14771   5.620   6.461   7.912 -0.0885 -0.1613 -0.3904
 1031POPI   C4B14772   5.578   6.097   7.953  0.0867 -0.2730 -0.0735
 1032POPI    C114773   2.221  11.426   6.047 -0.0047  0.0006 -0.2496
 1032POPI    C214774   2.438  11.639   5.787 -0.1129  0.1305 -0.2345
 1032POPI    C314775   2.236  11.317   5.662  0.3175 -0.1629 -0.1935
 1032POPI   PO414776   2.086  11.641   6.215  0.1695 -0.2737 -0.3555
 1032POPI   GL114777   2.003  11.880   6.589 -0.1399  0.1490  0.2512
 1032POPI   GL214778   2.238  11.604   6.676 -0.3977 -0.2286 -0.0503
 1032POPI   C1A14779   1.970  11.884   6.980  0.1746  0.1278  0.0054
 1032POPI   D2A14780   2.064  12.124   7.228 -0.0445 -0.0776 -0.1854
 1032POPI   C3A14781   2.394  12.093   7.622 -0.1324  0.0855  0.0306
 1032POPI   C4A14782   2.340  12.207   8.057  0.3083 -0.0860  0.1379
 1032POPI   C1B14783   2.210  11.233   6.905  0.1049  0.3041  0.0802
 1032POPI   C2B14784   2.281  10.892   7.285 -0.2692 -0.0605  0.0201
 1032POPI   C3B14785   2.212  10.821   7.689  0.0149  0.1087  0.0223
 1032POPI   C4B14786   2.114  10.927   8.076 -0.3236  0.2837  0.0013
 1033POPI    C114787   9.614  14.536   5.445  0.0675 -0.0709  0.0599
 1033POPI    C214788   9.672  14.428   5.064  0.1544 -0.1647  0.0993
 1033POPI    C314789   9.308  14.536   5.188  0.1355 -0.0885 -0.0216
 1033POPI   PO414790   9.787  14.356   5.619  0.3406  0.3966  0.2020
 1033POPI   GL114791   9.948  14.487   6.022 -0.2212 -0.1861  0.1234
 1033POPI   GL214792  10.131  14.719   6.165 -0.0105  0.1715  0.2962
 1033POPI   C1A14793  10.031  14.253   6.352  0.0235 -0.1491  0.1825
 1033POPI   D2A14794  10.323  14.226   6.709 -0.0139 -0.2665 -0.2511
 1033POPI   C3A14795  10.351  14.240   7.191  0.2843  0.1818 -0.0892
 1033POPI   C4A14796  10.274  14.230   7.613 -0.0314  0.1994 -0.1523
 1033POPI   C1B14797  10.163  14.725   6.587  0.0366  0.2441 -0.2614
 1033POPI   C2B14798  10.166  14.666   7.009  0.2305  0.0941  0.3117
 1033POPI   C3B14799  10.137  14.712   7.459  0.1074 -0.1244  0.2727
 1033POPI   C4B14800  10.001  14.534   7.864  0.0911 -0.1427 -0.0976
 1034POPI    C114801   6.328   9.561   5.503 -0.2018  0.0811 -0.0115
 1034POPI    C214802   6.470   9.784   5.203  0.0796 -0.0270  0.0381
 1034POPI    C314803   6.223   9.478   5.126 -0.3320  0.3117 -0.0280
 1034POPI   PO414804   6.220   9.761   5.676  0.1047  0.2960 -0.1457
 1034POPI   GL114805   6.254   9.606   6.109  0.1876  0.0649 -0.1188
 1034POPI   GL214806   6.081   9.419   6.331 -0.4194  0.2724 -0.2084
 1034POPI   C1A14807   6.282   9.821   6.418  0.0383  0.1918 -0.1865
 1034POPI   D2A14808   6.481   9.729   6.748 -0.1533 -0.0680 -0.1565
 1034POPI   C3A14809   6.466   9.973   7.133 -0.2167  0.0167 -0.1299
 1034POPI   C4A14810   6.589   9.947   7.595 -0.1164  0.0969  0.1795
 1034POPI   C1B14811   5.956   9.179   6.743 -0.3017  0.0514  0.1011
 1034POPI   C2B14812   5.806   9.099   7.133  0.1031 -0.0115 -0.3302
 1034POPI   C3B14813   6.040   9.194   7.494 -0.0599  0.1974  0.2887
 1034POPI   C4B14814   6.182   9.280   7.898 -0.2045  0.1848  0.1658
 1035POPI    C114815   1.220   3.408   5.600  0.1340 -0.0863 -0.0749
 1035POPI    C214816   1.238   3.785   5.468  0.1002 -0.0311  0.0756
 1035POPI    C314817   1.451   3.499   5.286  0.3992  0.1238  0.1761
 1035POPI   PO414818   1.280   3.424   5.844 -0.0607 -0.0605 -0.1042
 1035POPI   GL114819   1.536   3.665   6.166 -0.0435  0.2419  0.1804
 1035POPI   GL214820   1.841   3.847   6.119  0.2185  0.1624 -0.0138
 1035POPI   C1A14821   1.462   3.943   6.458 -0.0584 -0.1071 -0.0547
 1035POPI   D2A14822   1.098   3.981   6.747  0.0520 -0.2489 -0.0065
 1035POPI   C3A14823   1.068   4.029   7.210  0.3231  0.0178 -0.0225
 1035POPI   C4A14824   0.981   3.999   7.638 -0.0459  0.1717 -0.0630
 1035POPI   C1B14825   1.932   4.112   6.533  0.0681 -0.0801  0.1558
 1035POPI   C2B14826   1.936   4.328   6.812  0.1307 -0.0048  0.0656
 1035POPI   C3B14827   1.861   4.581   7.133 -0.2193  0.1679  0.4084
 1035POPI   C4B14828   1.700   4.527   7.591  0.1600 -0.1439 -0.0382
 1036POPI    C114829   7.697   4.182   5.467  0.1857  0.0132 -0.0008
 1036POPI    C214830   7.350   4.361   5.382  0.0750 -0.0930  0.2204
 1036POPI    C314831   7.608   4.275   5.089 -0.0846 -0.0126  0.0549
 1036POPI   PO414832   7.589   4.081   5.711  0.2449  0.0929 -0.4090
 1036POPI   GL114833   7.495   4.176   6.089 -0.1721  0.0697 -0.0943
 1036POPI   GL214834   7.278   3.952   6.156 -0.0992  0.0024 -0.0735
 1036POPI   C1A14835   7.627   4.270   6.457 -0.0689  0.2264  0.0692
 1036POPI   D2A14836   7.579   4.155   6.851  0.1667  0.0963  0.0090
 1036POPI   C3A14837   7.354   4.163   7.171 -0.3074  0.0327 -0.1750
 1036POPI   C4A14838   7.025   3.964   7.375 -0.2953 -0.1162 -0.1322
 1036POPI   C1B14839   7.196   3.945   6.571 -0.0526 -0.1052  0.2936
 1036POPI   C2B14840   7.013   4.242   6.780  0.0766  0.1922 -0.1303
 1036POPI   C3B14841   6.905   4.506   7.088 -0.0729 -0.2380 -0.0336
 1036POPI   C4B14842   6.631   4.657   7.296  0.2111 -0.0113 -0.1681
 1037POPI    C114843   0.635   1.454   6.036 -0.1202  0.1137  0.1155
 1037POPI    C214844   0.505   1.077   6.065  0.2119 -0.0237 -0.1168
 1037POPI    C314845   0.467   1.276   5.720  0.0345  0.1593  0.0061
 1037POPI   PO414846   0.808   1.476   6.218  0.1741  0.1373 -0.2389
 1037POPI   GL114847   1.004   1.255   6.613  0.1023 -0.0130  0.2266
 1037POPI   GL214848   1.295   1.205   6.695  0.0505  0.2146  0.1671
 1037POPI   C1A14849   0.762   1.443   6.874 -0.2750 -0.1985  0.3103
 1037POPI   D2A14850   0.670   1.503   7.257  0.0385 -0.0455 -0.0439
 1037POPI   C3A14851   0.847   1.416   7.683  0.1802  0.2975  0.0185
 1037POPI   C4A14852   1.153   1.625   8.005 -0.0010  0.2549  0.0998
 1037POPI   C1B14853   1.576   1.281   7.024 -0.2767 -0.4348 -0.3500
 1037POPI   C2B14854   1.850   1.253   7.371  0.1431 -0.3749  0.0443
 1037POPI   C3B14855   1.830   1.216   7.746  0.1948  0.0253  0.1277
 1037POPI   C4B14856   1.938   1.147   8.143 -0.1242 -0.0715 -0.1643
 1038POPI    C114857   4.277  12.935   5.916 -0.1120 -0.1743 -0.0210
 1038POPI    C214858   3.955  13.143   5.799 -0.0402 -0.0877 -0.0657
 1038POPI    C314859   4.311  13.213   5.630  0.0637  0.0340  0.1984
 1038POPI   PO414860   4.138  12.873   6.140 -0.0015 -0.1458 -0.4035
 1038POPI   GL114861   4.223  12.823   6.506 -0.2612 -0.2246 -0.2101
 1038POPI   GL214862   4.131  13.157   6.589  0.2427  0.2204 -0.1551
 1038POPI   C1A14863   4.358  12.439   6.780  0.2116 -0.1414  0.0772
 1038POPI   D2A14864   4.332  12.505   7.246 -0.1053  0.3146  0.2373
 1038POPI   C3A14865   4.351  12.347   7.674  0.0139  0.1050 -0.0836
 1038POPI   C4A14866   4.621  12.524   7.926  0.4118 -0.0564  0.1364
 1038POPI   C1B14867   4.189  13.035   6.906 -0.0006 -0.0290  0.0406
 1038POPI   C2B14868   4.383  12.981   7.319  0.0470 -0.0546 -0.0045
 1038POPI   C3B14869   4.295  12.891   7.829 -0.1638  0.1548  0.3299
 1038POPI   C4B14870   4.014  13.068   8.127  0.0932  0.1356 -0.0898
 1039POPI    C114871  10.598  13.446   5.659 -0.0316 -0.0327  0.1301
 1039POPI    C214872  10.737  13.072   5.632 -0.0820 -0.0674  0.3321
 1039POPI    C314873  10.454  13.199   5.380  0.2520 -0.0213 -0.0298
 1039POPI   PO414874  10.621  13.484   5.913  0.2823 -0.0167  0.2105
 1039POPI   GL114875  10.716  13.611   6.277  0.0675 -0.1285 -0.2836
 1039POPI   GL214876  11.006  13.535   6.458  0.1637 -0.2220  0.2985
 1039POPI   C1A14877  10.599  13.716   6.601 -0.4736  0.0167 -0.0511
 1039POPI   D2A14878  10.573  13.777   6.964  0.0394 -0.1056 -0.2677
 1039POPI   C3A14879  10.739  13.905   7.426  0.0478  0.0588  0.0823
 1039POPI   C4A14880  10.787  14.140   7.808  0.1058  0.0130  0.0339
 1039POPI   C1B14881  11.035  13.507   6.909 -0.2650  0.0909 -0.3095
 1039POPI   C2B14882  11.139  13.639   7.347  0.1207  0.3467 -0.2187
 1039POPI   C3B14883  11.234  13.864   7.685  0.2759 -0.0343  0.0208
 1039POPI   C4B14884  11.391  13.935   8.103 -0.1459  0.2155  0.0317
 1040POPI    C114885   9.410  11.359   5.351 -0.0414  0.0599  0.0923
 1040POPI    C214886   9.133  11.467   5.083  0.1668 -0.0874 -0.1879
 1040POPI    C314887   9.504  11.615   5.058  0.1545 -0.0028  0.0984
 1040POPI   PO414888   9.384  11.395   5.618 -0.2510 -0.1981  0.1798
 1040POPI   GL114889   9.506  11.451   6.105 -0.1450  0.0236 -0.1921
 1040POPI   GL214890   9.249  11.679   6.297 -0.0958 -0.0176  0.0882
 1040POPI   C1A14891   9.603  11.353   6.577 -0.1907 -0.3045 -0.1148
 1040POPI   D2A14892   9.557  11.407   7.013  0.1677 -0.0040 -0.0201
 1040POPI   C3A14893   9.751  11.537   7.333 -0.0480 -0.1807  0.0975
 1040POPI   C4A14894   9.787  11.558   7.784 -0.0668 -0.0666 -0.0004
 1040POPI   C1B14895   9.346  11.855   6.732 -0.1756 -0.0732 -0.1309
 1040POPI   C2B14896   9.453  12.019   7.152  0.0298  0.0864  0.0558
 1040POPI   C3B14897   9.293  12.209   7.503  0.1009  0.2764  0.0190
 1040POPI   C4B14898   9.305  12.282   7.857  0.2497  0.1272  0.0604
 1041POPI    C114899  17.164  13.518   5.688  0.2228 -0.2023  0.2267
 1041POPI    C214900  17.500  13.643   5.510  0.1903 -0.4080  0.0170
 1041POPI    C314901  17.194  13.895   5.557  0.3275 -0.2545  0.0977
 1041POPI   PO414902  17.303  13.339   5.849 -0.0978  0.3778 -0.0841
 1041POPI   GL114903  17.209  13.253   6.229  0.4255 -0.0866  0.2558
 1041POPI   GL214904  17.275  13.583   6.382 -0.3246 -0.1527  0.0467
 1041POPI   C1A14905  16.816  13.293   6.603 -0.1574 -0.1525  0.2226
 1041POPI   D2A14906  16.687  13.208   6.951 -0.0732  0.0167  0.1978
 1041POPI   C3A14907  16.643  13.117   7.433 -0.0853  0.2361 -0.2470
 1041POPI   C4A14908  16.419  12.962   7.786  0.2523  0.1757  0.0553
 1041POPI   C1B14909  17.374  13.502   6.876 -0.0329  0.1898 -0.0770
 1041POPI   C2B14910  17.109  13.484   7.184  0.0939 -0.0534 -0.2478
 1041POPI   C3B14911  17.047  13.437   7.604 -0.1775  0.0637  0.0938
 1041POPI   C4B14912  17.034  13.085   7.902 -0.1673 -0.3301  0.0744
 1042POPI    C114913   0.298  14.493   6.074 -0.2024  0.1516 -0.2049
 1042POPI    C214914   0.018  14.229   5.965 -0.0301 -0.0220 -0.2322
 1042POPI    C314915  -0.009  14.415   6.318 -0.2373  0.0454 -0.2823
 1042POPI   PO414916   0.512  14.431   6.149  0.0007  0.3052 -0.1552
 1042POPI   GL114917   0.645  14.236   6.476  0.0930 -0.0054  0.1193
 1042POPI   GL214918   0.360  14.175   6.633  0.0374  0.0368  0.2503
 1042POPI   C1A14919   0.735  14.126   6.942  0.1300  0.0214  0.2467
 1042POPI   D2A14920   0.672  14.177   7.336  0.4902 -0.0626 -0.2906
 1042POPI   C3A14921   0.693  13.778   7.544  0.1911  0.2692 -0.0216
 1042POPI   C4A14922   0.567  13.334   7.703  0.1540 -0.2259  0.1826
 1042POPI   C1B14923   0.200  14.111   7.099 -0.1239  0.1481  0.1615
 1042POPI   C2B14924   0.230  14.350   7.534 -0.2560  0.2230 -0.1835
 1042POPI   C3B14925   0.399  14.111   7.824  0.0722 -0.2219 -0.1305
 1042POPI   C4B14926   0.456  13.676   7.974  0.3073  0.0644  0.0587
 1043POPI    C114927  11.842   0.201   6.077 -0.3306 -0.0268 -0.1012
 1043POPI    C214928  11.805   0.147   5.682  0.2161 -0.0480 -0.1570
 1043POPI    C314929  12.140   0.308   5.832 -0.1214  0.2779  0.2744
 1043POPI   PO414930  11.670   0.370   6.124  0.0852 -0.0151  0.0077
 1043POPI   GL114931  11.463   0.471   6.494  0.1440 -0.0889  0.2166
 1043POPI   GL214932  11.794   0.588   6.597  0.1149  0.1461 -0.1448
 1043POPI   C1A14933  11.215   0.379   6.900  0.0489  0.2872  0.0285
 1043POPI   D2A14934  10.967   0.641   7.174 -0.1916 -0.0840  0.1092
 1043POPI   C3A14935  11.035   0.677   7.596  0.1332  0.0427 -0.1185
 1043POPI   C4A14936  11.066   0.775   7.960 -0.1298  0.0935  0.0671
 1043POPI   C1B14937  11.857   0.208   6.726  0.1296 -0.1890  0.0112
 1043POPI   C2B14938  11.754   0.215   7.100 -0.0275  0.0528  0.0770
 1043POPI   C3B14939  11.615   0.133   7.476  0.0067 -0.0851 -0.1352
 1043POPI   C4B14940  11.368   0.232   7.796 -0.0532 -0.4765  0.3117
 1044POPI    C114941   2.742  17.001   5.932  0.0146  0.1041 -0.0374
 1044POPI    C214942   2.803  16.670   5.716  0.3433  0.0081  0.1960
 1044POPI    C314943   3.000  17.006   5.627 -0.0295  0.1611 -0.0740
 1044POPI   PO414944   2.741  16.906   6.113  0.0186  0.0838 -0.1114
 1044POPI   GL114945   2.717  16.883   6.577  0.3149  0.3180  0.0226
 1044POPI   GL214946   2.752  17.236   6.547  0.0948 -0.0787  0.0295
 1044POPI   C1A14947   2.943  16.678   6.945 -0.0368 -0.0551  0.0306
 1044POPI   D2A14948   3.054  16.675   7.291 -0.2405 -0.4038  0.0426
 1044POPI   C3A14949   2.953  16.925   7.653 -0.0643 -0.1442  0.1041
 1044POPI   C4A14950   2.874  17.132   8.038 -0.1614 -0.2206  0.0181
 1044POPI   C1B14951   3.001  17.190   7.006  0.0792  0.0338 -0.0204
 1044POPI   C2B14952   2.784  17.360   7.362 -0.0148  0.0062 -0.1069
 1044POPI   C3B14953   2.696  17.506   7.744 -0.0114  0.0349  0.2420
 1044POPI   C4B14954   2.494  17.770   7.995 -0.3708 -0.1385  0.2065
 1045POPI    C114955  16.863   4.775   5.568  0.3755  0.3243 -0.1384
 1045POPI    C214956  16.823   4.377   5.574 -0.0083  0.3613  0.0952
 1045POPI    C314957  16.792   4.576   5.228 -0.1436  0.2180  0.0240
 1045POPI   PO414958  16.831   4.833   5.761  0.0201  0.0680  0.1756
 1045POPI   GL114959  16.938   5.225   5.967 -0.2335  0.2114 -0.1974
 1045POPI   GL214960  16.727   4.908   6.247 -0.2459  0.0352  0.0433
 1045POPI   C1A14961  17.099   5.515   6.247 -0.0373 -0.0914  0.3327
 1045POPI   D2A14962  16.953   5.541   6.786 -0.0312 -0.0111 -0.0839
 1045POPI   C3A14963  16.686   5.652   7.054  0.4646 -0.2080  0.0962
 1045POPI   C4A14964  16.476   5.558   7.517  0.1651  0.1327  0.3624
 1045POPI   C1B14965  16.654   5.135   6.553 -0.0956  0.1085 -0.1655
 1045POPI   C2B14966  16.730   5.188   6.985 -0.0363 -0.0157 -0.0474
 1045POPI   C3B14967  16.805   5.166   7.465 -0.1650  0.0170 -0.0199
 1045POPI   C4B14968  16.734   5.085   7.976 -0.3489  0.1235 -0.0380
 1046POPI    C114969   3.534  15.073   6.144 -0.1731  0.0052  0.0860
 1046POPI    C214970   3.274  15.102   5.842 -0.1355 -0.1331  0.0397
 1046POPI    C314971   3.580  15.359   5.867 -0.1594 -0.0984 -0.0196
 1046POPI   PO414972   3.279  15.044   6.338  0.0360  0.2261  0.0738
 1046POPI   GL114973   3.204  14.905   6.786  0.0936  0.2735 -0.6805
 1046POPI   GL214974   3.536  14.798   6.878 -0.2874 -0.2265  0.0567
 1046POPI   C1A14975   3.105  15.081   7.133  0.1853  0.0360 -0.1901
 1046POPI   D2A14976   3.065  15.155   7.523 -0.0084  0.2525 -0.0449
 1046POPI   C3A14977   2.906  15.299   7.929  0.0709  0.2759 -0.1142
 1046POPI   C4A14978   2.793  15.364   8.374  0.0134  0.0772 -0.2864
 1046POPI   C1B14979   3.579  15.115   7.041 -0.1594  0.2932 -0.1062
 1046POPI   C2B14980   3.530  15.383   7.357  0.2405  0.1729  0.2377
 1046POPI   C3B14981   3.363  15.524   7.724  0.2501 -0.0320 -0.0314
 1046POPI   C4B14982   3.166  15.762   8.041  0.2445 -0.1197  0.2706
 1047POPI    C114983   5.461   4.430   5.125  0.0059  0.1262  0.0387
 1047POPI    C214984   5.325   4.791   5.021  0.0161  0.0942 -0.0876
 1047POPI    C314985   5.307   4.488   4.761  0.2573  0.0701 -0.0788
 1047POPI   PO414986   5.317   4.347   5.344  0.1085  0.1127 -0.1136
 1047POPI   GL114987   5.365   4.355   5.780  0.1443  0.4664  0.1880
 1047POPI   GL214988   5.072   4.411   5.918 -0.1878  0.1343 -0.0943
 1047POPI   C1A14989   5.444   4.496   6.196  0.0143  0.3970 -0.1385
 1047POPI   D2A14990   5.388   4.380   6.719 -0.0746 -0.3147 -0.0056
 1047POPI   C3A14991   5.276   4.023   6.953 -0.1888  0.0157  0.3771
 1047POPI   C4A14992   4.887   4.009   7.194 -0.0580  0.0399 -0.1213
 1047POPI   C1B14993   4.899   4.662   6.240 -0.1015  0.0830 -0.1679
 1047POPI   C2B14994   4.993   4.695   6.647 -0.0900 -0.4554  0.2130
 1047POPI   C3B14995   5.084   4.517   7.134  0.0447 -0.0171  0.2331
 1047POPI   C4B14996   5.074   4.560   7.533  0.2197  0.0667  0.1999
 1048POPI    C114997  11.653   7.662   6.041  0.1967  0.2286  0.0833
 1048POPI    C214998  11.319   7.612   5.827  0.1045 -0.0025  0.2768
 1048POPI    C314999  11.627   7.814   5.672 -0.0345  0.0052  0.0046
 1048POPI   PO415000  11.652   7.417   6.164 -0.0859 -0.2344 -0.1507
 1048POPI   GL115001  11.640   7.219   6.471  0.1044  0.0198 -0.4636
 1048POPI   GL215002  11.535   6.888   6.493 -0.4327 -0.0944 -0.1738
 1048POPI   C1A15003  11.638   7.206   6.882  0.1250 -0.0448  0.0805
 1048POPI   D2A15004  11.773   7.011   7.181  0.1232  0.1016  0.1283
 1048POPI   C3A15005  11.737   6.963   7.567  0.0805 -0.0826 -0.1724
 1048POPI   C4A15006  11.534   6.889   7.901  0.2227  0.0564 -0.1421
 1048POPI   C1B15007  11.684   6.716   6.815 -0.0401 -0.1629 -0.0089
 1048POPI   C2B15008  11.629   6.583   7.274  0.0896 -0.5247 -0.2004
 1048POPI   C3B15009  11.524   6.546   7.633 -0.0591  0.0185 -0.0359
 1048POPI   C4B15010  11.720   6.190   7.873 -0.0159 -0.1036 -0.2915
 1049POPI    C115011   3.297  15.864   6.058  0.1634 -0.2584 -0.1940
 1049POPI    C215012   3.172  15.639   5.752 -0.1731  0.0848 -0.3165
 1049POPI    C315013   3.312  16.008   5.685  0.0052  0.0619 -0.0806
 1049POPI   PO415014   3.493  15.702   6.261 -0.2705 -0.0032  0.0446
 1049POPI   GL115015   3.723  15.682   6.629 -0.0497 -0.1690  0.2220
 1049POPI   GL215016   3.561  15.956   6.681 -0.1372 -0.0330 -0.1538
 1049POPI   C1A15017   3.845  15.640   6.991  0.1693 -0.0997  0.1481
 1049POPI   D2A15018   4.032  15.529   7.290  0.0061 -0.3810 -0.0201
 1049POPI   C3A15019   3.881  15.601   7.589  0.0733 -0.0212  0.0260
 1049POPI   C4A15020   3.809  15.605   7.963  0.1392 -0.0288 -0.3272
 1049POPI   C1B15021   3.516  15.930   7.155  0.2415  0.0167 -0.1402
 1049POPI   C2B15022   3.510  15.979   7.607  0.0865  0.0114  0.0535
 1049POPI   C3B15023   3.414  16.213   8.034  0.1124 -0.1037 -0.0425
 1049POPI   C4B15024   3.633  16.361   8.348  0.1674  0.0127 -0.2619
 1050POPI    C115025  14.934   8.083   5.630 -0.1447 -0.2255 -0.2430
 1050POPI    C215026  15.269   7.893   5.523  0.0122 -0.1048  0.0258
 1050POPI    C315027  15.246   8.291   5.488 -0.0916 -0.1097  0.0375
 1050POPI   PO415028  14.856   7.893   5.888  0.0276 -0.0140 -0.1346
 1050POPI   GL115029  15.022   7.843   6.289  0.0132  0.3535  0.0089
 1050POPI   GL215030  14.685   7.770   6.357  0.0383 -0.1839 -0.0966
 1050POPI   C1A15031  15.117   7.980   6.701  0.1343 -0.2480  0.0323
 1050POPI   D2A15032  15.067   7.913   7.098 -0.0063 -0.2897  0.0255
 1050POPI   C3A15033  14.938   7.913   7.517  0.0860  0.0054 -0.1885
 1050POPI   C4A15034  14.974   7.655   7.822  0.1746 -0.4085  0.3604
 1050POPI   C1B15035  14.685   7.757   6.716  0.0773 -0.0431  0.3948
 1050POPI   C2B15036  14.580   7.792   7.110 -0.2957 -0.3632  0.1013
 1050POPI   C3B15037  14.417   7.809   7.555  0.3224 -0.2074 -0.2721
 1050POPI   C4B15038  14.564   7.912   7.933  0.1323 -0.0098  0.1689
 1051POPI    C115039  16.428   2.462   6.342 -0.0613 -0.1861 -0.2808
 1051POPI    C215040  16.689   2.541   6.049 -0.0108 -0.0719 -0.2055
 1051POPI    C315041  16.307   2.461   5.960  0.0708 -0.3436 -0.3238
 1051POPI   PO415042  16.487   2.306   6.550  0.0556 -0.4369  0.1213
 1051POPI   GL115043  16.645   2.491   6.854 -0.0344  0.1450 -0.2763
 1051POPI   GL215044  16.252   2.315   6.965  0.1246  0.0329 -0.0067
 1051POPI   C1A15045  16.499   2.602   7.261  0.0832 -0.2669 -0.1125
 1051POPI   D2A15046  16.513   2.408   7.720 -0.0765 -0.0453  0.1106
 1051POPI   C3A15047  16.929   2.325   7.860  0.1136 -0.0911 -0.1954
 1051POPI   C4A15048  17.272   2.025   7.965  0.0772 -0.1921 -0.0778
 1051POPI   C1B15049  16.138   2.245   7.408  0.1495  0.1385 -0.2405
 1051POPI   C2B15050  16.213   2.046   7.806  0.4816  0.0795  0.1464
 1051POPI   C3B15051  16.304   1.655   7.861 -0.1649 -0.0941  0.1396
 1051POPI   C4B15052  16.603   1.380   8.138  0.2410 -0.0733 -0.1370
 1052POPI    C115053  13.983   3.737   6.116 -0.0864  0.0209 -0.0242
 1052POPI    C215054  14.292   3.976   6.202 -0.0045 -0.0723 -0.0575
 1052POPI    C315055  14.194   3.906   5.821 -0.0867 -0.0176 -0.0465
 1052POPI   PO415056  13.944   3.688   6.349  0.1077 -0.0031  0.2851
 1052POPI   GL115057  14.134   3.877   6.783  0.0686 -0.0749  0.2499
 1052POPI   GL215058  14.210   4.242   6.978  0.2046  0.3901 -0.1231
 1052POPI   C1A15059  14.321   3.762   7.153  0.3255 -0.6081 -0.2541
 1052POPI   D2A15060  14.294   3.977   7.520 -0.0695  0.0694 -0.0357
 1052POPI   C3A15061  14.395   3.848   7.988  0.0783  0.1150 -0.1935
 1052POPI   C4A15062  14.435   3.682   8.377 -0.0925 -0.3518  0.3350
 1052POPI   C1B15063  13.994   4.341   7.364  0.4023  0.0026 -0.3643
 1052POPI   C2B15064  14.031   4.307   7.867  0.2278 -0.2292 -0.1881
 1052POPI   C3B15065  13.941   4.635   8.224  0.0748  0.3064  0.1708
 1052POPI   C4B15066  14.134   5.137   8.244 -0.0093 -0.2931 -0.3807
 1053POPI    C115067   0.039   7.213   5.535  0.0567 -0.0244  0.2633
 1053POPI    C215068   0.347   7.465   5.495 -0.0527  0.0977  0.1792
 1053POPI    C315069   0.150   7.337   5.171 -0.0105 -0.0810  0.2231
 1053POPI   PO415070  -0.009   7.302   5.771  0.0984  0.1259  0.1057
 1053POPI   GL115071  -0.296   7.592   6.020 -0.1694 -0.0294  0.1368
 1053POPI   GL215072  -0.463   7.380   5.971 -0.0175  0.2374 -0.3324
 1053POPI   C1A15073   0.073   7.676   6.347 -0.0270  0.1833  0.1785
 1053POPI   D2A15074   0.058   7.426   6.712  0.3362  0.2242 -0.2081
 1053POPI   C3A15075   0.020   7.610   7.136  0.3012  0.0670  0.0002
 1053POPI   C4A15076  -0.034   7.622   7.540 -0.2087 -0.0504  0.0122
 1053POPI   C1B15077  -0.346   7.362   6.437  0.1779  0.2227 -0.1137
 1053POPI   C2B15078  -0.428   7.359   6.939  0.0025 -0.2289 -0.1477
 1053POPI   C3B15079  -0.479   7.522   7.290  0.2541 -0.3996 -0.0146
 1053POPI   C4B15080  -0.459   7.339   7.725  0.1850 -0.1349 -0.1910
 1054POPI    C115081  10.600   8.214   5.873  0.0381  0.0551  0.1814
 1054POPI    C215082  10.786   7.877   5.983 -0.0785 -0.0524  0.0533
 1054POPI    C315083  10.945   8.110   5.699  0.0033  0.0027  0.1435
 1054POPI   PO415084  10.569   8.422   6.067 -0.3360  0.1204  0.3117
 1054POPI   GL115085  10.566   8.380   6.489 -0.1555  0.2584  0.1170
 1054POPI   GL215086  10.853   8.053   6.486 -0.1546 -0.1596 -0.0551
 1054POPI   C1A15087  10.731   8.500   6.936  0.1296 -0.0429 -0.0658
 1054POPI   D2A15088  10.710   8.523   7.294 -0.0271 -0.2181  0.0829
 1054POPI   C3A15089  10.495   8.258   7.626  0.0646  0.1250  0.0058
 1054POPI   C4A15090  10.475   8.195   8.056  0.1364 -0.1104  0.1433
 1054POPI   C1B15091  10.865   8.036   6.939  0.1350  0.1070 -0.1247
 1054POPI   C2B15092  10.865   7.889   7.324 -0.2265 -0.0656 -0.3055
 1054POPI   C3B15093  10.938   8.076   7.723 -0.0444  0.1681  0.1313
 1054POPI   C4B15094  11.001   8.298   8.172 -0.0951  0.3522  0.4724
 1055POPI    C115095   3.268   2.588   5.916 -0.0014 -0.1540  0.0507
 1055POPI    C215096   3.418   2.769   5.592 -0.2159  0.1557  0.1200
 1055POPI    C315097   3.317   2.383   5.576  0.0300  0.0976 -0.0998
 1055POPI   PO415098   3.110   2.915   6.067  0.0640  0.1493  0.1112
 1055POPI   GL115099   3.261   3.207   6.444  0.0647  0.1814 -0.2962
 1055POPI   GL215100   3.064   3.460   6.457  0.2869 -0.0961  0.2218
 1055POPI   C1A15101   3.391   3.126   6.853  0.1887  0.1785  0.2872
 1055POPI   D2A15102   3.373   3.123   7.277  0.0307 -0.0002 -0.1569
 1055POPI   C3A15103   3.652   2.797   7.535 -0.2244  0.4163 -0.2658
 1055POPI   C4A15104   3.509   2.477   7.908  0.2160 -0.2672 -0.2451
 1055POPI   C1B15105   3.037   3.471   6.872  0.3717  0.2054  0.0545
 1055POPI   C2B15106   3.065   3.553   7.236 -0.1537 -0.0095  0.3594
 1055POPI   C3B15107   2.944   3.634   7.694  0.2545  0.3316  0.1294
 1055POPI   C4B15108   2.856   3.862   8.050  0.0451  0.0120  0.1790
 1056POPI    C115109   7.480  13.700   5.875  0.0517  0.2067 -0.0661
 1056POPI    C215110   7.283  13.406   5.689  0.1036  0.1782 -0.0762
 1056POPI    C315111   7.200  13.788   5.603 -0.2068  0.1731  0.1851
 1056POPI   PO415112   7.495  13.549   6.112  0.4113  0.0395  0.0312
 1056POPI   GL115113   7.699  13.486   6.403  0.1942 -0.1831 -0.2094
 1056POPI   GL215114   7.812  13.773   6.540 -0.1371 -0.0555  0.1498
 1056POPI   C1A15115   7.520  13.387   6.835  0.0799  0.1746  0.0221
 1056POPI   D2A15116   7.600  13.454   7.300 -0.1626  0.0237 -0.2081
 1056POPI   C3A15117   7.560  13.329   7.621 -0.5413  0.0604  0.0827
 1056POPI   C4A15118   7.385  13.345   8.028 -0.0606 -0.3265 -0.1756
 1056POPI   C1B15119   7.860  13.748   6.916 -0.0338 -0.0476 -0.3585
 1056POPI   C2B15120   8.062  13.703   7.268  0.1983  0.0811 -0.3072
 1056POPI   C3B15121   7.994  13.621   7.759  0.0771 -0.0963  0.0351
 1056POPI   C4B15122   7.839  13.569   8.137 -0.0826 -0.0166 -0.0669
 1057POPI    C115123  13.591   4.578   6.151  0.1033  0.0162  0.0760
 1057POPI    C215124  13.212   4.621   6.270 -0.0129 -0.3947 -0.1250
 1057POPI    C315125  13.350   4.834   5.961  0.0496  0.0641  0.2074
 1057POPI   PO415126  13.685   4.576   6.357  0.0646  0.0187 -0.0315
 1057POPI   GL115127  13.560   4.586   6.691  0.0122  0.1711 -0.0964
 1057POPI   GL215128  13.570   4.321   6.929 -0.1045 -0.2578  0.4048
 1057POPI   C1A15129  13.904   4.806   6.935  0.0585  0.3031  0.0033
 1057POPI   D2A15130  14.147   4.770   7.219 -0.0581 -0.0955 -0.1666
 1057POPI   C3A15131  14.261   5.134   7.419  0.0807  0.3805  0.2542
 1057POPI   C4A15132  14.391   5.183   7.808  0.0053  0.2299 -0.2094
 1057POPI   C1B15133  13.506   4.349   7.240  0.4182  0.2140 -0.1303
 1057POPI   C2B15134  13.535   4.434   7.691  0.1416 -0.1373  0.3269
 1057POPI   C3B15135  13.435   4.583   8.094 -0.0670  0.1382  0.0033
 1057POPI   C4B15136  13.590   4.817   8.497 -0.0521  0.0915  0.0839
 1058POPI    C115137  15.574  15.767   6.006 -0.1442 -0.0325 -0.1070
 1058POPI    C215138  15.329  15.965   5.759 -0.1467  0.1220  0.0183
 1058POPI    C315139  15.687  16.118   5.850 -0.2698  0.2201  0.3533
 1058POPI   PO415140  15.387  15.579   6.075  0.0172  0.0661  0.1669
 1058POPI   GL115141  15.450  15.463   6.470 -0.2660 -0.1086  0.0202
 1058POPI   GL215142  15.718  15.264   6.481  0.2141 -0.0260 -0.0334
 1058POPI   C1A15143  15.387  15.622   6.890  0.0007  0.0748  0.0031
 1058POPI   D2A15144  15.451  15.765   7.335  0.0603  0.0445  0.0892
 1058POPI   C3A15145  15.750  15.813   7.549  0.0126  0.0080 -0.1078
 1058POPI   C4A15146  16.017  16.136   7.778 -0.0411 -0.0976 -0.1779
 1058POPI   C1B15147  15.853  15.480   6.774 -0.0995  0.2989  0.0836
 1058POPI   C2B15148  15.842  15.833   7.014 -0.1529  0.3843  0.0020
 1058POPI   C3B15149  16.051  16.169   7.302 -0.2105  0.0008  0.0245
 1058POPI   C4B15150  15.878  16.432   7.164  0.0334  0.4543 -0.2382
 1059POPI    C115151  13.101   8.572   5.435  0.0059 -0.1146 -0.0006
 1059POPI    C215152  13.119   8.826   5.126 -0.2530 -0.1924 -0.0829
 1059POPI    C315153  13.339   8.492   5.124 -0.2063 -0.1617 -0.1540
 1059POPI   PO415154  13.161   8.782   5.693 -0.0212 -0.1419  0.0206
 1059POPI   GL115155  13.502   8.950   5.890 -0.1046 -0.2456  0.0911
 1059POPI   GL215156  13.576   8.588   5.958 -0.1287  0.1389  0.0147
 1059POPI   C1A15157  13.360   8.860   6.424 -0.2280  0.0180  0.2079
 1059POPI   D2A15158  13.287   8.550   6.692  0.0558  0.2103  0.0560
 1059POPI   C3A15159  13.400   8.728   7.072  0.0901 -0.0673 -0.0455
 1059POPI   C4A15160  13.606   8.835   7.475 -0.0008 -0.1005  0.2418
 1059POPI   C1B15161  13.692   8.424   6.369  0.3313  0.2358  0.0404
 1059POPI   C2B15162  13.736   8.378   6.831 -0.1675 -0.0270  0.2222
 1059POPI   C3B15163  13.774   8.412   7.209 -0.2793 -0.2389  0.0401
 1059POPI   C4B15164  13.661   8.407   7.725  0.1692  0.0273 -0.1355
 1060POPI    C115165   2.040  17.694   5.961 -0.0930  0.0346 -0.0191
 1060POPI    C215166   1.928  17.367   5.759  0.0683  0.0581 -0.1493
 1060POPI    C315167   1.873  17.730   5.599 -0.0404  0.0914 -0.0381
 1060POPI   PO415168   1.938  17.719   6.202  0.0367  0.2061  0.1638
 1060POPI   GL115169   1.653  17.696   6.536  0.2211 -0.0820  0.1217
 1060POPI   GL215170   1.379  17.908   6.462 -0.1496 -0.3710  0.0731
 1060POPI   C1A15171   1.755  17.661   6.919 -0.0583 -0.0221 -0.0078
 1060POPI   D2A15172   1.933  17.644   7.329  0.1037 -0.3547 -0.0233
 1060POPI   C3A15173   1.733  17.681   7.683  0.1442 -0.2915 -0.1969
 1060POPI   C4A15174   1.338  17.661   7.885  0.0301  0.0731 -0.0435
 1060POPI   C1B15175   1.362  18.140   6.767  0.0693  0.2828 -0.2497
 1060POPI   C2B15176   1.174  18.200   7.108  0.0230 -0.4228 -0.3228
 1060POPI   C3B15177   1.003  18.464   7.322 -0.3979  0.3230 -0.1362
 1060POPI   C4B15178   1.123  18.579   7.699  0.2697 -0.1288  0.0863
 1061POPI    C115179   6.752  14.673   5.792  0.0746  0.3259 -0.0183
 1061POPI    C215180   6.364  14.742   5.726 -0.0180 -0.0684  0.0922
 1061POPI    C315181   6.634  14.843   5.449 -0.2110  0.0827 -0.0441
 1061POPI   PO415182   6.743  14.731   6.087 -0.0815 -0.2772  0.2457
 1061POPI   GL115183   6.685  15.158   6.354 -0.0837  0.0876  0.0720
 1061POPI   GL215184   6.937  15.240   6.607 -0.3069 -0.2114 -0.2194
 1061POPI   C1A15185   6.557  14.921   6.677 -0.0584 -0.0733  0.1258
 1061POPI   D2A15186   6.467  14.644   7.029  0.1820  0.0690 -0.1450
 1061POPI   C3A15187   6.590  14.732   7.461 -0.0642 -0.4026 -0.1750
 1061POPI   C4A15188   6.302  14.635   7.770 -0.2586 -0.1562 -0.1502
 1061POPI   C1B15189   6.900  15.606   6.879 -0.0361  0.0840 -0.4186
 1061POPI   C2B15190   6.821  15.763   7.225 -0.2161 -0.0254 -0.1510
 1061POPI   C3B15191   7.050  15.770   7.652  0.0293  0.1860 -0.1694
 1061POPI   C4B15192   7.216  16.069   8.014  0.0682 -0.1445  0.3107
 1062POPI    C115193  14.804  16.844   5.896  0.0771  0.0765 -0.1044
 1062POPI    C215194  15.009  16.750   5.566  0.1257 -0.2779  0.0225
 1062POPI    C315195  14.622  16.652   5.595  0.1062 -0.1937  0.0466
 1062POPI   PO415196  14.956  16.742   6.058  0.2636 -0.0579  0.1075
 1062POPI   GL115197  14.854  16.620   6.416  0.0084 -0.0710 -0.0803
 1062POPI   GL215198  15.023  16.349   6.519  0.0486  0.1010 -0.0476
 1062POPI   C1A15199  14.784  16.904   6.715  0.1646 -0.0851  0.0583
 1062POPI   D2A15200  15.035  16.880   7.057  0.1738  0.0806  0.3331
 1062POPI   C3A15201  14.928  17.040   7.458  0.1830 -0.2660  0.0018
 1062POPI   C4A15202  14.722  17.044   7.880  0.0941  0.1979  0.0825
 1062POPI   C1B15203  14.995  16.387   7.004  0.0936  0.0336 -0.0495
 1062POPI   C2B15204  15.032  16.534   7.454  0.2309 -0.2125  0.2226
 1062POPI   C3B15205  15.014  16.410   7.885 -0.1371 -0.1024  0.1068
 1062POPI   C4B15206  14.926  16.350   8.292 -0.0813  0.1592  0.3275
 1063POPI    C115207  12.807   2.833   5.910 -0.0095  0.1803 -0.1104
 1063POPI    C215208  12.935   2.454   5.908 -0.0862  0.1524  0.0806
 1063POPI    C315209  13.107   2.724   5.669 -0.0796 -0.0183 -0.1098
 1063POPI   PO415210  12.730   2.812   6.146 -0.0565  0.0219  0.1188
 1063POPI   GL115211  12.761   2.991   6.585 -0.0830 -0.0579  0.1546
 1063POPI   GL215212  12.723   2.794   6.843  0.4517 -0.3594 -0.1645
 1063POPI   C1A15213  12.986   3.245   6.798 -0.0238 -0.4211 -0.0335
 1063POPI   D2A15214  12.944   3.150   7.310  0.0690 -0.0163  0.1508
 1063POPI   C3A15215  13.170   3.118   7.722 -0.0313  0.1581  0.0604
 1063POPI   C4A15216  13.383   3.412   8.002 -0.0361 -0.0657  0.1302
 1063POPI   C1B15217  12.629   2.774   7.303 -0.1478 -0.1275  0.0516
 1063POPI   C2B15218  12.674   2.815   7.777  0.1104 -0.1965 -0.2155
 1063POPI   C3B15219  12.834   2.939   8.135  0.1451  0.3993 -0.1159
 1063POPI   C4B15220  12.947   3.350   8.166  0.1859 -0.2210  0.1168
 1064POPI    C115221   0.903  12.548   5.846  0.2172 -0.0348 -0.1153
 1064POPI    C215222   0.686  12.212   5.819  0.2999 -0.0937 -0.0530
 1064POPI    C315223   0.887  12.347   5.500  0.0428  0.0494 -0.1570
 1064POPI   PO415224   1.014  12.608   5.999 -0.3396  0.1311  0.0313
 1064POPI   GL115225   1.115  12.557   6.371  0.2224 -0.2282 -0.1131
 1064POPI   GL215226   1.092  12.940   6.343  0.1165 -0.1815 -0.0987
 1064POPI   C1A15227   1.248  12.559   6.754 -0.1198 -0.1093 -0.2357
 1064POPI   D2A15228   1.398  12.795   7.110  0.2778 -0.0867 -0.0597
 1064POPI   C3A15229   1.499  12.594   7.504  0.3539 -0.4422 -0.1130
 1064POPI   C4A15230   1.780  12.313   7.864  0.0073 -0.1600  0.0799
 1064POPI   C1B15231   1.203  13.150   6.795 -0.2497 -0.1243 -0.2320
 1064POPI   C2B15232   1.201  13.250   7.157  0.0392 -0.4465  0.1233
 1064POPI   C3B15233   1.125  12.959   7.517  0.0402  0.0133 -0.0203
 1064POPI   C4B15234   0.806  12.928   7.900  0.1915  0.0326 -0.2840
 1065POPI    C115235  10.095   7.208   5.864  0.0807 -0.0050 -0.1887
 1065POPI    C215236   9.881   7.077   5.552 -0.1454 -0.0466 -0.0186
 1065POPI    C315237   9.697   7.247   5.864  0.0880  0.0842  0.0503
 1065POPI   PO415238  10.230   6.972   5.903  0.1257 -0.5197 -0.0193
 1065POPI   GL115239  10.137   6.868   6.323 -0.2516  0.1401  0.2507
 1065POPI   GL215240   9.835   7.081   6.349  0.0207  0.1304 -0.1129
 1065POPI   C1A15241  10.116   6.676   6.695 -0.0869  0.1214 -0.0720
 1065POPI   D2A15242   9.742   6.302   6.777 -0.1804 -0.1064 -0.1161
 1065POPI   C3A15243   9.629   6.295   7.213  0.0720  0.0819 -0.3759
 1065POPI   C4A15244   9.478   6.234   7.547 -0.0329 -0.0551  0.1637
 1065POPI   C1B15245   9.771   7.231   6.859 -0.0659  0.3467  0.1199
 1065POPI   C2B15246   9.706   7.161   7.274  0.1129  0.2743 -0.0735
 1065POPI   C3B15247   9.893   7.074   7.757 -0.1397  0.2738  0.1180
 1065POPI   C4B15248   9.929   6.699   8.035 -0.0227 -0.2843 -0.2496
 1066POPI    C115249   9.202  12.233   5.602 -0.1389  0.1068 -0.0996
 1066POPI    C215250   9.244  11.877   5.424 -0.2005 -0.1362  0.3579
 1066POPI    C315251   9.028  12.164   5.249 -0.0776 -0.2904 -0.0568
 1066POPI   PO415252   9.144  12.238   5.863 -0.1716  0.0366 -0.0908
 1066POPI   GL115253   9.202  12.409   6.235  0.3908  0.0394  0.2146
 1066POPI   GL215254   9.452  12.178   6.341 -0.1350 -0.3074  0.0920
 1066POPI   C1A15255   9.142  12.642   6.604  0.0694 -0.3539  0.0523
 1066POPI   D2A15256   9.247  12.613   7.041 -0.1905 -0.0270 -0.0718
 1066POPI   C3A15257   8.957  12.575   7.317  0.0414 -0.2667 -0.1030
 1066POPI   C4A15258   8.865  12.555   7.729  0.2622 -0.0632 -0.0311
 1066POPI   C1B15259   9.499  12.321   6.793 -0.1874 -0.0625 -0.1940
 1066POPI   C2B15260   9.734  12.401   7.234  0.1359  0.0806 -0.0513
 1066POPI   C3B15261   9.711  12.569   7.615  0.1461 -0.2210  0.1944
 1066POPI   C4B15262   9.731  12.462   8.039 -0.1447  0.0948  0.0804
 1067POPI    C115263  16.172   3.728   6.173 -0.0657  0.2263 -0.1402
 1067POPI    C215264  15.945   3.512   5.924  0.2702  0.0112 -0.2671
 1067POPI    C315265  16.196   3.787   5.778  0.0438  0.3004 -0.1229
 1067POPI   PO415266  15.994   3.825   6.324 -0.0135  0.4003 -0.3280
 1067POPI   GL115267  15.979   3.853   6.708 -0.0944  0.2511 -0.1261
 1067POPI   GL215268  16.155   3.573   6.807  0.1254  0.3640 -0.1277
 1067POPI   C1A15269  16.077   3.968   7.093 -0.1943  0.3071  0.2448
 1067POPI   D2A15270  16.335   4.028   7.461 -0.0500 -0.1087  0.2490
 1067POPI   C3A15271  16.392   4.129   7.757 -0.1334 -0.0776 -0.3710
 1067POPI   C4A15272  16.156   4.250   8.178  0.1903  0.0307  0.0809
 1067POPI   C1B15273  16.317   3.537   7.240 -0.0342  0.0099 -0.1620
 1067POPI   C2B15274  16.483   3.563   7.639  0.1739 -0.2059 -0.1015
 1067POPI   C3B15275  16.608   3.764   8.019 -0.0492  0.1436 -0.0888
 1067POPI   C4B15276  16.903   3.938   8.385 -0.5628  0.0032 -0.0281
 1068POPI    C115277   9.972  13.893   5.518  0.0728  0.0956 -0.4558
 1068POPI    C215278  10.092  13.555   5.342  0.2205  0.0152 -0.2069
 1068POPI    C315279  10.362  13.811   5.488  0.0998  0.0473 -0.0374
 1068POPI   PO415280   9.816  13.771   5.739 -0.2082 -0.0415 -0.0938
 1068POPI   GL115281   9.756  13.412   6.119  0.0715 -0.2529  0.0985
 1068POPI   GL215282   9.839  13.749   6.230 -0.2440 -0.1622  0.2275
 1068POPI   C1A15283   9.792  13.335   6.550  0.0303  0.4876  0.0015
 1068POPI   D2A15284   9.844  13.293   6.971  0.1930 -0.1622 -0.0327
 1068POPI   C3A15285  10.123  13.392   7.189 -0.0993  0.0325  0.1058
 1068POPI   C4A15286  10.224  13.325   7.639  0.1539 -0.1580 -0.1164
 1068POPI   C1B15287   9.977  13.809   6.556 -0.0214 -0.2980  0.0274
 1068POPI   C2B15288  10.030  13.848   6.915 -0.2051 -0.1679 -0.1706
 1068POPI   C3B15289  10.052  13.812   7.421 -0.0518 -0.0577 -0.0081
 1068POPI   C4B15290  10.378  13.771   7.738 -0.1210 -0.4099 -0.0301
 1069POPI    C115291   2.527  14.499   6.100 -0.1023 -0.0825  0.0746
 1069POPI    C215292   2.269  14.507   5.794 -0.0245 -0.1339  0.0074
 1069POPI    C315293   2.604  14.289   5.769  0.0984  0.0490  0.0363
 1069POPI   PO415294   2.460  14.510   6.298 -0.1012 -0.1185  0.1168
 1069POPI   GL115295   2.495  14.846   6.523  0.0880  0.1460 -0.0765
 1069POPI   GL215296   2.338  15.003   6.518 -0.3746 -0.2551 -0.0726
 1069POPI   C1A15297   2.664  14.767   6.868  0.1050  0.0748 -0.1251
 1069POPI   D2A15298   2.679  14.789   7.378 -0.2099  0.0620 -0.0193
 1069POPI   C3A15299   2.874  14.734   7.740  0.2092  0.0197 -0.1788
 1069POPI   C4A15300   2.747  14.933   8.133  0.4993  0.0939  0.2368
 1069POPI   C1B15301   2.028  15.091   6.808  0.1828 -0.0150  0.0163
 1069POPI   C2B15302   1.910  15.016   7.194  0.2343  0.0153 -0.2109
 1069POPI   C3B15303   1.937  15.207   7.682  0.0662  0.0147 -0.2782
 1069POPI   C4B15304   1.969  15.191   8.133  0.3665 -0.1624 -0.2695
 1070POPI    C115305  14.695   4.252   6.133  0.0596 -0.1778  0.0703
 1070POPI    C215306  14.879   4.072   5.826 -0.0850 -0.1547 -0.0306
 1070POPI    C315307  14.548   4.288   5.763  0.0919  0.1580  0.0868
 1070POPI   PO415308  14.766   4.039   6.394  0.1778  0.0485  0.1275
 1070POPI   GL115309  14.996   3.952   6.665 -0.0380  0.0827  0.3083
 1070POPI   GL215310  14.694   3.853   6.878  0.0865 -0.0198 -0.2221
 1070POPI   C1A15311  15.086   3.666   7.042  0.0902  0.1207 -0.1055
 1070POPI   D2A15312  15.131   3.367   7.311  0.0469 -0.1156 -0.1878
 1070POPI   C3A15313  15.294   3.384   7.830  0.0961 -0.0260  0.0216
 1070POPI   C4A15314  15.387   3.505   8.261  0.1751  0.1926 -0.0402
 1070POPI   C1B15315  14.740   4.024   7.256 -0.0415  0.0009 -0.0580
 1070POPI   C2B15316  14.802   4.135   7.680 -0.2121  0.1729  0.0724
 1070POPI   C3B15317  14.640   4.241   8.051  0.3861 -0.0510 -0.0513
 1070POPI   C4B15318  14.711   4.228   8.493 -0.0590  0.2439 -0.0495
 1071POPI    C115319  11.401   6.358   6.018  0.1510 -0.0827  0.0170
 1071POPI    C215320  11.230   6.468   5.674  0.0945 -0.0069  0.0690
 1071POPI    C315321  11.613   6.355   5.679  0.1774  0.2649  0.0266
 1071POPI   PO415322  11.339   6.572   6.170 -0.1070 -0.1067  0.0593
 1071POPI   GL115323  11.024   6.725   6.400 -0.1965  0.3563 -0.0445
 1071POPI   GL215324  11.130   6.638   6.638  0.1345  0.0802  0.2069
 1071POPI   C1A15325  10.665   6.921   6.657 -0.2835  0.0237  0.2509
 1071POPI   D2A15326  10.583   6.999   7.094 -0.0781 -0.1469 -0.1186
 1071POPI   C3A15327  10.144   6.860   7.230 -0.2316 -0.1599 -0.0967
 1071POPI   C4A15328   9.961   6.629   7.482  0.4025  0.0210  0.0599
 1071POPI   C1B15329  11.046   6.543   7.117 -0.2387 -0.0369  0.1003
 1071POPI   C2B15330  11.071   6.418   7.577  0.3370  0.1736 -0.4767
 1071POPI   C3B15331  11.220   6.286   7.992  0.1599  0.0598 -0.0378
 1071POPI   C4B15332  11.516   6.437   8.305  0.1666 -0.6855  0.2772
 1072POPI    C115333   8.589  11.688   5.749 -0.1613 -0.0797 -0.1003
 1072POPI    C215334   8.709  12.065   5.688 -0.5280  0.0245 -0.2015
 1072POPI    C315335   8.754  11.791   5.399 -0.0299 -0.0762 -0.0380
 1072POPI   PO415336   8.624  11.629   6.036  0.1875  0.3893  0.3298
 1072POPI   GL115337   8.388  11.712   6.413 -0.1934 -0.2209  0.1650
 1072POPI   GL215338   8.306  11.325   6.396  0.0500  0.1628  0.0484
 1072POPI   C1A15339   8.308  11.717   6.779 -0.1092 -0.1577 -0.1136
 1072POPI   D2A15340   8.530  11.683   7.130  0.4254  0.2734  0.4818
 1072POPI   C3A15341   8.403  11.853   7.347 -0.1799 -0.0900 -0.0637
 1072POPI   C4A15342   8.054  11.884   7.626 -0.2820 -0.0557  0.0523
 1072POPI   C1B15343   8.546  11.159   6.810  0.0696 -0.0297  0.0597
 1072POPI   C2B15344   8.601  11.084   7.071  0.0103 -0.1158 -0.0042
 1072POPI   C3B15345   8.723  11.052   7.429  0.2117 -0.0846 -0.0194
 1072POPI   C4B15346   8.694  10.768   7.910  0.2316  0.1413  0.2585
 1073POPI    C115347  14.413   0.050   5.862  0.1906  0.0002 -0.0535
 1073POPI    C215348  14.724   0.107   6.108  0.2159  0.1598 -0.1209
 1073POPI    C315349  14.753  -0.151   5.804  0.2073  0.0119  0.0026
 1073POPI   PO415350  14.294   0.313   6.048 -0.0771  0.2019  0.6792
 1073POPI   GL115351  14.386   0.393   6.432  0.0919 -0.2228  0.0032
 1073POPI   GL215352  14.237   0.199   6.553 -0.1837  0.0746  0.0346
 1073POPI   C1A15353  14.764   0.348   6.705 -0.0670 -0.4729 -0.2881
 1073POPI   D2A15354  14.935   0.006   7.012 -0.0655  0.0841  0.1680
 1073POPI   C3A15355  15.373  -0.090   6.975 -0.1582 -0.2245 -0.1959
 1073POPI   C4A15356  15.780  -0.097   6.867  0.0846 -0.3070  0.0122
 1073POPI   C1B15357  14.469  -0.033   6.859 -0.2344 -0.1133  0.0778
 1073POPI   C2B15358  14.411  -0.115   7.341 -0.1145  0.1179 -0.2087
 1073POPI   C3B15359  14.341   0.163   7.708 -0.1715 -0.0146 -0.0210
 1073POPI   C4B15360  14.416   0.327   7.980 -0.1597 -0.3934  0.3179
 1074POPI    C115361  16.611  15.348   6.014 -0.1477 -0.2353  0.0757
 1074POPI    C215362  16.979  15.352   6.170  0.0450 -0.1113 -0.3687
 1074POPI    C315363  16.857  15.039   5.952 -0.1566 -0.2028 -0.1289
 1074POPI   PO415364  16.503  15.602   5.989  0.2123  0.1508  0.0820
 1074POPI   GL115365  16.611  15.815   6.334 -0.2829  0.0573 -0.0201
 1074POPI   GL215366  16.510  16.014   6.338  0.0972 -0.2892  0.1851
 1074POPI   C1A15367  16.919  15.574   6.656 -0.1220 -0.0561 -0.1179
 1074POPI   D2A15368  16.958  15.528   7.072 -0.2403  0.0003 -0.0721
 1074POPI   C3A15369  17.218  15.218   7.287 -0.1673  0.3395  0.1856
 1074POPI   C4A15370  17.449  14.806   7.120 -0.0615 -0.1304  0.0234
 1074POPI   C1B15371  16.583  16.242   6.712  0.1239 -0.2350  0.0366
 1074POPI   C2B15372  16.407  16.505   7.062  0.3335 -0.1219 -0.1097
 1074POPI   C3B15373  16.358  16.634   7.445  0.1623 -0.1392  0.0601
 1074POPI   C4B15374  16.280  16.624   7.905  0.2180 -0.0865 -0.2087
 1075POPI    C115375  11.659  13.368   5.927 -0.0967  0.0955 -0.0049
 1075POPI    C215376  11.671  13.762   5.994 -0.1316  0.0821  0.0816
 1075POPI    C315377  11.574  13.624   5.632  0.3390  0.1597 -0.0808
 1075POPI   PO415378  11.486  13.229   6.157 -0.0591 -0.0817 -0.1679
 1075POPI   GL115379  11.491  13.154   6.545 -0.1336 -0.0031 -0.1775
 1075POPI   GL215380  11.223  13.118   6.584 -0.1610  0.0242 -0.1060
 1075POPI   C1A15381  11.437  13.218   7.038  0.0793  0.1023  0.0293
 1075POPI   D2A15382  11.547  13.324   7.449 -0.2676 -0.0937 -0.1960
 1075POPI   C3A15383  11.566  13.128   7.842 -0.2321 -0.1187  0.2960
 1075POPI   C4A15384  11.366  13.040   8.301 -0.1169  0.0018 -0.0352
 1075POPI   C1B15385  11.051  12.973   6.931  0.0133 -0.2160 -0.0785
 1075POPI   C2B15386  11.110  13.000   7.364  0.1574  0.0872 -0.1407
 1075POPI   C3B15387  10.960  12.844   7.741  0.1652  0.4082  0.1396
 1075POPI   C4B15388  10.880  13.015   8.135 -0.0207 -0.0620  0.4786
 1076POPI    C115389   6.182   6.150   5.325  0.0569 -0.2632 -0.2166
 1076POPI    C215390   5.972   6.298   5.018  0.0415 -0.0227 -0.0921
 1076POPI    C315391   6.365   6.234   4.979  0.0206 -0.0903 -0.1947
 1076POPI   PO415392   5.909   5.964   5.430 -0.0700 -0.0498  0.1726
 1076POPI   GL115393   5.881   5.820   5.829 -0.0109  0.1056  0.1847
 1076POPI   GL215394   5.988   6.034   5.925 -0.0824 -0.2391  0.2018
 1076POPI   C1A15395   6.037   5.526   6.083  0.0197  0.1263 -0.0264
 1076POPI   D2A15396   5.837   5.228   6.300 -0.3116  0.2448  0.1227
 1076POPI   C3A15397   5.994   5.076   6.566  0.0678  0.1563  0.0483
 1076POPI   C4A15398   6.274   4.724   6.411 -0.1641  0.4406 -0.0403
 1076POPI   C1B15399   5.848   6.069   6.357 -0.0373 -0.3925 -0.0709
 1076POPI   C2B15400   5.770   6.280   6.691  0.4987 -0.0149 -0.4038
 1076POPI   C3B15401   5.847   6.293   7.179  0.1041 -0.3133 -0.0843
 1076POPI   C4B15402   5.627   6.126   7.434 -0.0185 -0.1244 -0.1278
 1077POPI    C115403   2.153   2.385   5.645  0.1568 -0.3978  0.0329
 1077POPI    C215404   2.193   2.010   5.512  0.0865 -0.3108 -0.2418
 1077POPI    C315405   2.020   2.286   5.280 -0.2726 -0.2115  0.1323
 1077POPI   PO415406   2.377   2.342   5.838 -0.0973 -0.0398  0.0171
 1077POPI   GL115407   2.655   2.175   6.217 -0.0512  0.2002  0.4234
 1077POPI   GL215408   2.775   2.470   6.160 -0.2524 -0.0082 -0.2292
 1077POPI   C1A15409   2.496   2.047   6.616 -0.1338 -0.0350 -0.1585
 1077POPI   D2A15410   2.593   2.061   7.031  0.0790  0.0262 -0.2277
 1077POPI   C3A15411   2.506   1.827   7.352 -0.3615  0.0497  0.2018
 1077POPI   C4A15412   2.445   1.955   7.753 -0.0199 -0.2312 -0.1974
 1077POPI   C1B15413   2.692   2.471   6.607  0.1864 -0.0719 -0.3685
 1077POPI   C2B15414   2.779   2.529   7.134 -0.0729  0.1412  0.2578
 1077POPI   C3B15415   2.632   2.340   7.508 -0.1114 -0.0208 -0.2366
 1077POPI   C4B15416   2.617   2.377   7.947 -0.0588  0.1640  0.0551
 1078POPI    C115417  17.495   7.894   5.598 -0.0065 -0.1149  0.1983
 1078POPI    C215418  17.509   7.505   5.505  0.0844 -0.0989  0.1442
 1078POPI    C315419  17.763   7.762   5.333 -0.0228 -0.0043  0.1259
 1078POPI   PO415420  17.252   7.965   5.586 -0.3226  0.1029  0.0544
 1078POPI   GL115421  17.102   7.886   5.994 -0.0370 -0.2055 -0.2121
 1078POPI   GL215422  17.071   7.614   6.217  0.1080 -0.1540  0.0714
 1078POPI   C1A15423  16.931   8.007   6.416 -0.0814 -0.0126  0.0032
 1078POPI   D2A15424  16.889   8.164   6.848 -0.0156  0.1669 -0.1590
 1078POPI   C3A15425  16.537   8.188   7.107 -0.2731  0.0483 -0.0032
 1078POPI   C4A15426  16.370   8.027   7.487 -0.1708  0.0703 -0.0997
 1078POPI   C1B15427  17.115   7.557   6.631 -0.3279 -0.3658  0.1178
 1078POPI   C2B15428  16.952   7.676   7.011 -0.1508  0.0807  0.0960
 1078POPI   C3B15429  16.840   7.659   7.389 -0.1228  0.0261  0.1682
 1078POPI   C4B15430  16.996   7.650   7.823  0.0929 -0.0417  0.0269
 1079POPI    C115431  13.533   6.861   5.786  0.0293  0.1104  0.1454
 1079POPI    C215432  13.262   6.947   6.067 -0.0102  0.1486  0.0958
 1079POPI    C315433  13.157   6.731   5.747  0.0478  0.0592  0.1367
 1079POPI   PO415434  13.727   6.783   5.917  0.1412  0.0027 -0.2433
 1079POPI   GL115435  13.660   6.803   6.375  0.0381 -0.2483  0.4204
 1079POPI   GL215436  13.606   7.151   6.285 -0.0085  0.0277  0.0742
 1079POPI   C1A15437  13.441   6.863   6.714  0.0277 -0.0905 -0.0579
 1079POPI   D2A15438  13.465   6.866   7.144  0.2227 -0.3128  0.1460
 1079POPI   C3A15439  13.204   7.115   7.287  0.0588 -0.1611 -0.1134
 1079POPI   C4A15440  13.387   7.354   7.664  0.1705  0.2224  0.3248
 1079POPI   C1B15441  13.747   7.410   6.647  0.2924  0.0280 -0.1530
 1079POPI   C2B15442  13.735   7.813   6.989  0.3078 -0.0602 -0.2457
 1079POPI   C3B15443  13.702   7.908   7.426  0.1161  0.1201  0.3110
 1079POPI   C4B15444  13.608   7.826   7.897 -0.4506 -0.0815  0.1173
 1080POPI    C115445  11.962   6.053   5.941 -0.1328 -0.1247  0.0650
 1080POPI    C215446  11.668   5.964   6.197 -0.2233  0.1885  0.0738
 1080POPI    C315447  11.633   5.867   5.811 -0.1566 -0.1412  0.1479
 1080POPI   PO415448  12.143   6.117   6.189  0.0911  0.0343 -0.4474
 1080POPI   GL115449  12.198   6.303   6.566  0.2360 -0.0146  0.0599
 1080POPI   GL215450  12.330   6.416   6.705  0.0743  0.1886  0.1653
 1080POPI   C1A15451  11.948   6.094   6.899  0.1235  0.1884 -0.1113
 1080POPI   D2A15452  11.929   6.206   7.392  0.4142  0.0998 -0.0371
 1080POPI   C3A15453  11.787   5.829   7.579  0.0238  0.2472  0.0080
 1080POPI   C4A15454  11.882   5.380   7.446 -0.3825 -0.2023 -0.1296
 1080POPI   C1B15455  12.122   6.651   7.066  0.1465 -0.1538  0.0955
 1080POPI   C2B15456  12.184   6.767   7.460  0.0289 -0.2341 -0.0528
 1080POPI   C3B15457  12.198   7.018   7.742 -0.3307 -0.0700  0.0069
 1080POPI   C4B15458  12.098   7.070   8.127  0.3009 -0.1007  0.2056
 1081POPI    C115459  13.351  16.964   5.570 -0.1750  0.2380 -0.1642
 1081POPI    C215460  13.599  17.116   5.295  0.0760 -0.0901 -0.1258
 1081POPI    C315461  13.723  16.821   5.535 -0.2153  0.0358  0.1885
 1081POPI   PO415462  13.286  17.128   5.756  0.2098  0.0184 -0.1213
 1081POPI   GL115463  13.073  17.027   6.120  0.0970  0.2735 -0.2907
 1081POPI   GL215464  12.841  16.708   6.262 -0.4191 -0.2849  0.3200
 1081POPI   C1A15465  12.804  17.198   6.511  0.0957  0.4357 -0.1021
 1081POPI   D2A15466  12.647  17.018   6.942 -0.3113 -0.2107 -0.1773
 1081POPI   C3A15467  12.689  16.949   7.349 -0.2646  0.1588 -0.1766
 1081POPI   C4A15468  12.839  16.974   7.738 -0.1577 -0.0960  0.0596
 1081POPI   C1B15469  12.967  16.759   6.660  0.2409 -0.2717 -0.0050
 1081POPI   C2B15470  13.108  16.653   7.018  0.1500 -0.2563 -0.1418
 1081POPI   C3B15471  13.205  16.623   7.482 -0.0570  0.1961  0.1813
 1081POPI   C4B15472  13.175  16.556   7.923  0.3385 -0.1540 -0.0305
 1082POPI    C115473   3.035   6.159   5.452 -0.1566 -0.0109 -0.1644
 1082POPI    C215474   3.328   6.171   5.179  0.0899  0.0472  0.0971
 1082POPI    C315475   3.075   6.479   5.215  0.0211  0.0155 -0.1005
 1082POPI   PO415476   3.177   5.994   5.605  0.2027  0.3608 -0.0700
 1082POPI   GL115477   2.978   6.070   6.029  0.0835 -0.1531  0.1099
 1082POPI   GL215478   3.014   5.730   6.097 -0.1562  0.0312  0.2286
 1082POPI   C1A15479   2.831   6.176   6.425  0.1797  0.0141 -0.0394
 1082POPI   D2A15480   2.567   6.375   6.629 -0.3881 -0.4014 -0.0418
 1082POPI   C3A15481   2.614   6.361   7.114  0.3131  0.4207 -0.1250
 1082POPI   C4A15482   2.589   6.303   7.432 -0.0864 -0.0093 -0.0497
 1082POPI   C1B15483   3.128   5.766   6.497  0.1102 -0.2408  0.1231
 1082POPI   C2B15484   3.154   5.716   6.940  0.3701 -0.0753 -0.2290
 1082POPI   C3B15485   3.065   5.418   7.279 -0.1012 -0.2797  0.1908
 1082POPI   C4B15486   2.836   5.444   7.666 -0.0999 -0.0558 -0.3008
 1083POPI    C115487  13.664   1.699   6.378  0.0771 -0.3005  0.0103
 1083POPI    C215488  13.577   1.989   6.117  0.3166 -0.0163  0.2384
 1083POPI    C315489  13.698   1.631   5.985  0.3064  0.0800 -0.0404
 1083POPI   PO415490  13.576   1.854   6.611  0.2101  0.1146  0.1000
 1083POPI   GL115491  13.808   1.920   7.038 -0.2200 -0.1229  0.0871
 1083POPI   GL215492  13.913   1.697   6.889  0.0537 -0.2563 -0.0735
 1083POPI   C1A15493  13.733   1.883   7.550 -0.0082  0.0277  0.3278
 1083POPI   D2A15494  13.687   1.870   7.966  0.1064 -0.1094 -0.0105
 1083POPI   C3A15495  13.657   1.397   8.109  0.1726 -0.1100 -0.1077
 1083POPI   C4A15496  13.515   1.059   8.411  0.2963 -0.2815 -0.0883
 1083POPI   C1B15497  13.981   1.521   7.283  0.2300  0.1553 -0.0097
 1083POPI   C2B15498  14.055   1.336   7.741  0.3302  0.1519  0.2256
 1083POPI   C3B15499  14.208   1.367   8.132  0.0278 -0.3061  0.0521
 1083POPI   C4B15500  14.549   1.147   8.362  0.0956 -0.2001  0.0758
 1084POPI    C115501   0.225  13.314   5.563 -0.1056 -0.1643  0.1289
 1084POPI    C215502  -0.141  13.242   5.420 -0.1519  0.0804  0.1188
 1084POPI    C315503   0.069  13.553   5.283  0.1107 -0.1293  0.0367
 1084POPI   PO415504   0.263  13.155   5.732  0.3470 -0.0412  0.1338
 1084POPI   GL115505   0.301  13.117   6.161 -0.0062  0.2403  0.1841
 1084POPI   GL215506   0.272  13.302   6.475 -0.0813 -0.2283 -0.1950
 1084POPI   C1A15507   0.173  12.781   6.616 -0.0198 -0.0625  0.1107
 1084POPI   D2A15508   0.184  12.841   7.013 -0.1593 -0.2425  0.0214
 1084POPI   C3A15509   0.323  12.444   7.296 -0.0981  0.0503 -0.0129
 1084POPI   C4A15510   0.138  12.421   7.627 -0.3113  0.0647  0.0408
 1084POPI   C1B15511   0.395  13.229   6.872 -0.2048 -0.1009 -0.2444
 1084POPI   C2B15512   0.716  13.304   7.204 -0.0089 -0.1189 -0.0792
 1084POPI   C3B15513   1.042  13.441   7.606 -0.1154  0.0898  0.2621
 1084POPI   C4B15514   1.147  13.234   8.066  0.0128 -0.1837  0.0666
 1085POPI    C115515   8.059  11.996   5.971 -0.0647 -0.0703  0.2222
 1085POPI    C215516   8.192  12.136   5.621 -0.2143 -0.0306  0.1804
 1085POPI    C315517   7.912  11.851   5.628 -0.1087 -0.1331  0.2672
 1085POPI   PO415518   8.301  12.036   6.075  0.1533 -0.2621  0.0014
 1085POPI   GL115519   8.408  12.180   6.502  0.1196 -0.0558  0.1914
 1085POPI   GL215520   8.629  12.425   6.497 -0.2771 -0.1559 -0.2801
 1085POPI   C1A15521   8.139  12.129   6.906  0.0909 -0.2756 -0.0103
 1085POPI   D2A15522   7.923  11.815   7.135  0.1802  0.0244 -0.0766
 1085POPI   C3A15523   7.598  11.942   7.284  0.0838  0.1788  0.0347
 1085POPI   C4A15524   7.245  11.869   7.414 -0.0319  0.0813  0.0428
 1085POPI   C1B15525   8.657  12.510   6.876 -0.3343  0.2308  0.1330
 1085POPI   C2B15526   8.473  12.376   7.216 -0.0074 -0.0491  0.1938
 1085POPI   C3B15527   8.323  12.322   7.594  0.3777 -0.0525  0.1880
 1085POPI   C4B15528   8.448  12.432   8.026  0.2752 -0.1935  0.3120
 1086POPI    C115529  15.566   2.737   6.305 -0.0394  0.1745 -0.1603
 1086POPI    C215530  15.965   2.727   6.271 -0.0232  0.0232  0.0595
 1086POPI    C315531  15.754   2.996   6.064  0.1923  0.1033 -0.0591
 1086POPI   PO415532  15.567   2.665   6.590 -0.0584 -0.2183  0.1849
 1086POPI   GL115533  15.511   2.342   6.921 -0.1563 -0.2403 -0.3948
 1086POPI   GL215534  15.240   2.363   6.969  0.0165  0.1673  0.0131
 1086POPI   C1A15535  15.648   2.352   7.330 -0.1878  0.0363  0.1128
 1086POPI   D2A15536  15.671   2.299   7.776 -0.0723 -0.3418 -0.0866
 1086POPI   C3A15537  15.573   2.507   8.167  0.0883 -0.1955  0.2812
 1086POPI   C4A15538  15.598   2.745   8.513 -0.2701  0.1516  0.1239
 1086POPI   C1B15539  15.078   2.458   7.374  0.1027  0.3283  0.2024
 1086POPI   C2B15540  15.057   2.423   7.779 -0.0775 -0.0645 -0.2067
 1086POPI   C3B15541  15.068   2.484   8.183  0.1135  0.0375 -0.0853
 1086POPI   C4B15542  15.259   2.380   8.612 -0.0876 -0.0195  0.1558
 1087POPI    C115543  14.526  12.588   5.325  0.1143  0.1428  0.0827
 1087POPI    C215544  14.784  12.482   5.039  0.0259  0.2185 -0.0260
 1087POPI    C315545  14.441  12.664   4.942 -0.0114  0.2317  0.1273
 1087POPI   PO415546  14.669  12.452   5.532  0.0419 -0.0591 -0.1426
 1087POPI   GL115547  14.618  12.321   6.017 -0.3563  0.0566  0.0033
 1087POPI   GL215548  14.400  12.497   6.176 -0.1895 -0.1985 -0.0327
 1087POPI   C1A15549  14.582  11.954   6.243  0.1805  0.1337 -0.1729
 1087POPI   D2A15550  14.295  11.873   6.554  0.1466  0.2307 -0.0086
 1087POPI   C3A15551  14.498  11.609   6.891  0.0194 -0.1532 -0.0952
 1087POPI   C4A15552  14.465  11.567   7.303  0.2019  0.0666 -0.0473
 1087POPI   C1B15553  14.397  12.825   6.503 -0.1145  0.2862  0.2257
 1087POPI   C2B15554  14.440  13.023   6.891 -0.2598  0.0881 -0.0623
 1087POPI   C3B15555  14.572  13.040   7.277  0.1403 -0.2087  0.0882
 1087POPI   C4B15556  14.277  12.852   7.560 -0.0686 -0.3446 -0.2296
 1088POPI    C115557   0.971   1.871   5.959 -0.1088  0.1928 -0.1775
 1088POPI    C215558   1.342   1.756   5.865 -0.1065 -0.0318  0.0951
 1088POPI    C315559   1.029   1.530   5.758 -0.1704  0.1728 -0.1617
 1088POPI   PO415560   1.003   1.922   6.222 -0.3178  0.1653  0.1625
 1088POPI   GL115561   1.103   1.912   6.538  0.1126  0.2766  0.1486
 1088POPI   GL215562   1.222   1.722   6.774  0.0035 -0.0509  0.0844
 1088POPI   C1A15563   0.759   2.025   6.903  0.0212  0.0043  0.0542
 1088POPI   D2A15564   0.723   2.052   7.299  0.0232  0.1761  0.0217
 1088POPI   C3A15565   0.619   1.880   7.691  0.2106  0.0623 -0.0562
 1088POPI   C4A15566   0.635   1.668   8.177  0.3490 -0.0627  0.0871
 1088POPI   C1B15567   1.167   1.865   7.178 -0.2192  0.3258  0.1771
 1088POPI   C2B15568   1.140   2.002   7.672  0.0024  0.3537 -0.3411
 1088POPI   C3B15569   0.967   2.120   8.045 -0.2453  0.2079  0.1421
 1088POPI   C4B15570   0.857   2.471   8.185 -0.0359 -0.3543 -0.0736
 1089POPI    C115571  17.109   4.008   5.756  0.2797 -0.0292  0.1909
 1089POPI    C215572  17.319   3.803   5.484 -0.0009 -0.0518 -0.0133
 1089POPI    C315573  17.508   4.034   5.750  0.2802 -0.0647 -0.1974
 1089POPI   PO415574  16.797   3.923   5.963  0.1586  0.2161  0.1375
 1089POPI   GL115575  16.651   3.971   6.392 -0.1594  0.0498  0.1138
 1089POPI   GL215576  16.455   3.932   6.607  0.0172 -0.0798  0.0701
 1089POPI   C1A15577  16.897   4.137   6.701 -0.0457 -0.1445 -0.0228
 1089POPI   D2A15578  17.187   4.067   6.783 -0.0501 -0.0015 -0.2002
 1089POPI   C3A15579  17.428   3.852   7.039 -0.2274 -0.0391 -0.0836
 1089POPI   C4A15580  17.817   3.804   7.322  0.3214  0.0042  0.1740
 1089POPI   C1B15581  16.576   4.089   7.058 -0.1310 -0.2144 -0.0523
 1089POPI   C2B15582  17.071   4.222   7.244 -0.2265  0.0394  0.2282
 1089POPI   C3B15583  17.386   4.036   7.506  0.0120  0.2279  0.2028
 1089POPI   C4B15584  17.579   3.862   7.768 -0.1725 -0.0505 -0.1617
 1090POPI    C115585  15.008   2.265   6.245 -0.1753  0.0161  0.0912
 1090POPI    C215586  14.906   2.627   6.110  0.1594  0.1710  0.2430
 1090POPI    C315587  15.172   2.406   5.908  0.0592  0.0664  0.2244
 1090POPI   PO415588  14.919   2.172   6.550 -0.1457 -0.0195 -0.0108
 1090POPI   GL115589  14.872   1.936   6.952  0.0176  0.4228 -0.2361
 1090POPI   GL215590  14.816   2.171   7.135 -0.0374 -0.0009 -0.0123
 1090POPI   C1A15591  14.861   1.638   7.199 -0.0155 -0.1092 -0.0878
 1090POPI   D2A15592  14.463   1.496   7.512 -0.2461 -0.1075 -0.1686
 1090POPI   C3A15593  14.583   1.144   7.830  0.0702  0.3951  0.0603
 1090POPI   C4A15594  14.322   0.877   7.988  0.1246 -0.0233 -0.4088
 1090POPI   C1B15595  14.743   2.038   7.559 -0.1766 -0.2016 -0.1512
 1090POPI   C2B15596  14.687   1.992   8.036 -0.2126  0.1095 -0.0581
 1090POPI   C3B15597  14.965   1.913   8.428 -0.2983  0.1567 -0.0049
 1090POPI   C4B15598  14.955   2.128   8.879 -0.2019 -0.2599  0.1042
 1091POPI    C115599   2.723   9.915   5.714  0.0532 -0.5837 -0.1608
 1091POPI    C215600   3.003  10.112   5.921 -0.3582  0.0217 -0.1550
 1091POPI    C315601   3.067  10.018   5.537  0.0723 -0.3631  0.0008
 1091POPI   PO415602   2.665   9.702   5.892 -0.2360  0.2028  0.1870
 1091POPI   GL115603   2.856   9.409   6.285  0.2924  0.3660  0.1138
 1091POPI   GL215604   2.968   9.819   6.287 -0.0431 -0.0787  0.3141
 1091POPI   C1A15605   2.743   9.496   6.692 -0.0680 -0.0707  0.0135
 1091POPI   D2A15606   2.560   9.542   6.997 -0.2145 -0.1997 -0.0523
 1091POPI   C3A15607   2.554   9.516   7.450 -0.0898  0.1123  0.0803
 1091POPI   C4A15608   2.387   9.252   7.801  0.1650  0.4758 -0.2542
 1091POPI   C1B15609   3.289  10.034   6.501 -0.2917 -0.2906 -0.1201
 1091POPI   C2B15610   3.643  10.008   6.675 -0.2484  0.1705 -0.0401
 1091POPI   C3B15611   3.801  10.054   7.015 -0.1514  0.2112 -0.2602
 1091POPI   C4B15612   3.918   9.813   7.404 -0.3576  0.0364  0.2986
 1092POPI    C115613   7.563  14.979   5.804  0.1618  0.2324  0.1800
 1092POPI    C215614   7.760  14.632   5.779 -0.1848  0.0280  0.2252
 1092POPI    C315615   7.693  14.849   5.449 -0.1161 -0.0330  0.1708
 1092POPI   PO415616   7.599  15.075   6.058 -0.3250  0.3412 -0.2269
 1092POPI   GL115617   7.466  14.991   6.515 -0.0967  0.0350  0.1512
 1092POPI   GL215618   7.859  15.029   6.547 -0.1972  0.0810 -0.1721
 1092POPI   C1A15619   7.214  14.931   6.891  0.0096  0.0700  0.3169
 1092POPI   D2A15620   7.277  14.887   7.283 -0.1042  0.0766 -0.1814
 1092POPI   C3A15621   7.038  15.079   7.575 -0.0356  0.1355  0.1049
 1092POPI   C4A15622   7.105  15.125   8.086  0.2223  0.2036 -0.1135
 1092POPI   C1B15623   7.769  15.118   7.030  0.2687 -0.1054 -0.3129
 1092POPI   C2B15624   7.775  15.088   7.380 -0.0820 -0.3698 -0.2038
 1092POPI   C3B15625   8.051  15.264   7.735 -0.0390 -0.0187  0.0162
 1092POPI   C4B15626   8.059  15.432   8.122 -0.0255  0.0926 -0.1238
 1093POPI    C115627   6.802   4.233   5.235  0.0506  0.0755 -0.0133
 1093POPI    C215628   7.030   4.394   4.948  0.1951 -0.0879  0.0081
 1093POPI    C315629   6.800   4.077   4.866 -0.2513  0.2512 -0.0891
 1093POPI   PO415630   6.915   4.511   5.400 -0.0010  0.5134 -0.1101
 1093POPI   GL115631   6.929   4.661   5.814  0.0686  0.1766  0.0308
 1093POPI   GL215632   7.123   4.389   5.864 -0.1788 -0.1186 -0.1767
 1093POPI   C1A15633   6.730   4.892   6.184 -0.1187  0.0812  0.1066
 1093POPI   D2A15634   6.502   5.150   6.386  0.0056 -0.2033 -0.0609
 1093POPI   C3A15635   6.278   5.468   6.566  0.1585  0.2349  0.1042
 1093POPI   C4A15636   6.092   5.422   6.936 -0.1997 -0.2266  0.2437
 1093POPI   C1B15637   7.065   4.394   6.293 -0.0305 -0.3203  0.1087
 1093POPI   C2B15638   6.816   4.684   6.639 -0.3232  0.4171 -0.6075
 1093POPI   C3B15639   6.446   4.890   6.854  0.0141  0.3520  0.0106
 1093POPI   C4B15640   6.322   5.022   7.231  0.1135 -0.2209  0.2201
 1094POPI    C115641   8.845   6.645   5.722  0.1279 -0.2591  0.1577
 1094POPI    C215642   8.895   6.288   5.548 -0.0595 -0.1785 -0.0663
 1094POPI    C315643   8.784   6.604   5.329  0.3104  0.0682  0.0913
 1094POPI   PO415644   8.715   6.589   5.996  0.0077 -0.0656  0.0246
 1094POPI   GL115645   8.923   6.631   6.285  0.2295  0.4241  0.1708
 1094POPI   GL215646   9.100   6.380   6.397  0.1745 -0.0156  0.1252
 1094POPI   C1A15647   8.737   6.586   6.748  0.0022 -0.1417 -0.2786
 1094POPI   D2A15648   8.573   6.866   7.006  0.1842 -0.1716 -0.0843
 1094POPI   C3A15649   8.593   6.699   7.463 -0.0341 -0.0098 -0.1385
 1094POPI   C4A15650   8.640   6.769   7.885  0.0985 -0.1884  0.0804
 1094POPI   C1B15651   9.227   6.376   6.793 -0.2890 -0.0430  0.0083
 1094POPI   C2B15652   8.999   6.502   7.205 -0.1008  0.4984  0.0104
 1094POPI   C3B15653   8.996   6.478   7.670 -0.2446 -0.0476  0.1699
 1094POPI   C4B15654   9.080   6.292   8.098 -0.1300  0.2880  0.0313
 1095POPI    C115655  14.977   6.995   5.785  0.0247  0.1196 -0.1446
 1095POPI    C215656  15.313   7.029   5.570  0.2191 -0.2970  0.0808
 1095POPI    C315657  15.032   6.766   5.462  0.0118 -0.0293 -0.0425
 1095POPI   PO415658  15.064   7.032   6.019 -0.1579  0.2892 -0.0803
 1095POPI   GL115659  15.106   7.104   6.443  0.2292  0.0916  0.0902
 1095POPI   GL215660  15.066   7.376   6.401  0.0197 -0.2193 -0.2904
 1095POPI   C1A15661  15.019   6.884   6.860  0.0407 -0.2404  0.3568
 1095POPI   D2A15662  14.832   6.908   7.249 -0.1319 -0.0816  0.0580
 1095POPI   C3A15663  14.851   7.064   7.684  0.0037  0.2630 -0.0932
 1095POPI   C4A15664  14.637   6.828   8.073  0.1320  0.1918 -0.1115
 1095POPI   C1B15665  15.112   7.505   6.714 -0.1021  0.0067 -0.1089
 1095POPI   C2B15666  14.991   7.409   7.108 -0.1579  0.3992 -0.0486
 1095POPI   C3B15667  14.739   7.451   7.420 -0.0553 -0.3204 -0.1628
 1095POPI   C4B15668  14.406   7.365   7.702  0.0608  0.1410  0.0539
 1096POPI    C115669   9.135  12.734   5.603 -0.0777  0.0458  0.0518
 1096POPI    C215670   9.266  13.024   5.360 -0.1872  0.0007 -0.0617
 1096POPI    C315671   9.495  12.704   5.431  0.0937  0.2846  0.3576
 1096POPI   PO415672   9.171  12.841   5.908 -0.4136 -0.0698  0.0283
 1096POPI   GL115673   9.289  13.165   6.186 -0.0342  0.1455  0.2275
 1096POPI   GL215674   9.554  12.912   6.277 -0.2253 -0.0310 -0.0567
 1096POPI   C1A15675   9.122  13.168   6.555  0.1309 -0.0279 -0.2381
 1096POPI   D2A15676   9.273  13.144   6.935  0.0438  0.0897 -0.0761
 1096POPI   C3A15677   9.138  13.061   7.267 -0.1541  0.1209 -0.3469
 1096POPI   C4A15678   9.309  12.903   7.605 -0.0175  0.2688  0.1374
 1096POPI   C1B15679   9.643  12.831   6.768 -0.2382 -0.0320 -0.2536
 1096POPI   C2B15680   9.619  12.906   7.193 -0.3138  0.0481 -0.3151
 1096POPI   C3B15681   9.676  13.303   7.460  0.1615 -0.3286 -0.1665
 1096POPI   C4B15682   9.807  13.600   7.778 -0.1222  0.0088  0.1383
 1097DPPI    C115683   5.421   3.443   5.138 -0.0472  0.0344  0.1128
 1097DPPI    C215684   5.154   3.410   4.842  0.1616  0.1581 -0.0929
 1097DPPI    C315685   5.454   3.147   4.871  0.1376  0.1418  0.0145
 1097DPPI   PO415686   5.281   3.527   5.431 -0.0422  0.1843 -0.0575
 1097DPPI   GL115687   5.269   3.509   5.794  0.3142 -0.4922  0.0524
 1097DPPI   GL215688   5.314   3.896   5.980  0.5768 -0.0459 -0.0106
 1097DPPI   C1A15689   5.162   3.506   6.154  0.2134 -0.0604 -0.1158
 1097DPPI   C2A15690   5.155   3.565   6.614 -0.2583  0.0002 -0.2659
 1097DPPI   C3A15691   5.088   3.573   7.076 -0.0297  0.1583 -0.2979
 1097DPPI   C4A15692   5.063   3.576   7.545  0.2458  0.0848 -0.1021
 1097DPPI   C1B15693   5.169   4.069   6.365  0.4386  0.4652  0.1297
 1097DPPI   C2B15694   4.882   4.160   6.682  0.1894 -0.1711  0.0841
 1097DPPI   C3B15695   4.680   4.341   6.961  0.3932 -0.1643 -0.0559
 1097DPPI   C4B15696   4.596   4.616   7.355  0.0104 -0.2881 -0.3804
 1098DPPI    C115697   8.547   3.579   5.752  0.0998  0.0012 -0.1257
 1098DPPI    C215698   8.423   3.202   5.798 -0.0473  0.0581 -0.0492
 1098DPPI    C315699   8.241   3.441   5.535  0.1464  0.0306 -0.2105
 1098DPPI   PO415700   8.558   3.602   6.039 -0.0190 -0.0052 -0.2156
 1098DPPI   GL115701   8.433   3.242   6.331  0.0128 -0.3506 -0.0412
 1098DPPI   GL215702   8.701   3.318   6.487 -0.0509  0.2464  0.1873
 1098DPPI   C1A15703   8.324   3.071   6.752 -0.2349  0.1344  0.0327
 1098DPPI   C2A15704   8.262   3.114   7.157 -0.0436 -0.1901 -0.2105
 1098DPPI   C3A15705   8.412   3.105   7.609 -0.1845 -0.2317 -0.1717
 1098DPPI   C4A15706   8.554   3.130   8.029  0.2885 -0.0249 -0.0729
 1098DPPI   C1B15707   8.816   3.287   6.890  0.0129  0.0719  0.0134
 1098DPPI   C2B15708   8.871   3.311   7.284  0.0226  0.1121  0.0559
 1098DPPI   C3B15709   8.871   3.460   7.779 -0.0002 -0.0231 -0.2488
 1098DPPI   C4B15710   8.767   3.573   8.213  0.2276  0.0547  0.4242
 1099DPPI    C115711  17.765  14.783   5.937  0.0131  0.1289  0.1240
 1099DPPI    C215712  18.064  14.745   5.675 -0.0460  0.2410  0.0396
 1099DPPI    C315713  17.708  14.881   5.554 -0.1212  0.1413  0.1466
 1099DPPI   PO415714  17.825  14.865   6.102 -0.2700  0.6390  0.0991
 1099DPPI   GL115715  18.120  14.805   6.498  0.3992  0.0328 -0.0979
 1099DPPI   GL215716  18.407  14.742   6.516 -0.2690 -0.1295  0.1159
 1099DPPI   C1A15717  17.906  14.651   6.821  0.0297  0.3259  0.0051
 1099DPPI   C2A15718  17.898  14.727   7.254 -0.0927  0.0402 -0.2219
 1099DPPI   C3A15719  17.962  14.740   7.756  0.2810  0.0012 -0.1874
 1099DPPI   C4A15720  17.898  14.500   8.096 -0.0079 -0.2168  0.0002
 1099DPPI   C1B15721  18.404  14.628   6.944  0.0624  0.0225  0.0944
 1099DPPI   C2B15722  18.435  14.731   7.423 -0.1718  0.0548 -0.1426
 1099DPPI   C3B15723  18.491  14.578   7.766  0.1694  0.1555 -0.0699
 1099DPPI   C4B15724  18.778  14.698   8.086  0.1556  0.2604 -0.1410
 1100DPPI    C115725   3.364  14.258   5.800 -0.0125 -0.3095  0.0456
 1100DPPI    C215726   3.053  14.013   5.740 -0.2613 -0.0076  0.0773
 1100DPPI    C315727   3.052  14.380   5.580  0.0926 -0.0124  0.0571
 1100DPPI   PO415728   3.465  14.208   6.088 -0.0289  0.4212  0.4630
 1100DPPI   GL115729   3.375  14.114   6.576  0.2314  0.0414  0.3223
 1100DPPI   GL215730   3.543  13.879   6.618  0.0567 -0.1971  0.2019
 1100DPPI   C1A15731   3.440  14.316   7.114  0.1833  0.1424 -0.0235
 1100DPPI   C2A15732   3.507  14.249   7.491  0.1688 -0.1546  0.0831
 1100DPPI   C3A15733   3.229  14.438   7.822 -0.0286  0.3025 -0.1222
 1100DPPI   C4A15734   3.142  14.444   8.269 -0.0033 -0.2450  0.3450
 1100DPPI   C1B15735   3.529  13.866   7.069 -0.2229  0.3281  0.0449
 1100DPPI   C2B15736   3.781  13.670   7.457 -0.3250  0.0482 -0.1339
 1100DPPI   C3B15737   3.784  13.672   7.939 -0.0638  0.1911  0.1308
 1100DPPI   C4B15738   3.811  13.932   8.292 -0.0419 -0.1674 -0.0700
 1101DPPI    C115739   5.731  10.952   5.345  0.1559  0.1603 -0.0436
 1101DPPI    C215740   5.869  10.620   5.521  0.2446  0.0643 -0.2899
 1101DPPI    C315741   6.087  10.804   5.240  0.0866  0.1911 -0.3312
 1101DPPI   PO415742   5.573  11.023   5.579  0.3017 -0.2368  0.0335
 1101DPPI   GL115743   5.478  10.917   6.033 -0.0679  0.0552 -0.0042
 1101DPPI   GL215744   5.804  10.890   5.998  0.0249 -0.1271  0.1900
 1101DPPI   C1A15745   5.491  10.583   6.396  0.1982  0.1048 -0.1004
 1101DPPI   C2A15746   5.359  10.460   6.785 -0.0618 -0.1365 -0.0489
 1101DPPI   C3A15747   5.282  10.274   7.124 -0.0033 -0.0469  0.2008
 1101DPPI   C4A15748   5.439   9.865   7.269 -0.1261 -0.1923 -0.2121
 1101DPPI   C1B15749   5.961  10.821   6.341 -0.2624  0.2291  0.1053
 1101DPPI   C2B15750   6.143  10.786   6.751 -0.1305  0.1284 -0.0150
 1101DPPI   C3B15751   6.120  10.822   7.291  0.0817  0.1065  0.0798
 1101DPPI   C4B15752   6.228  10.924   7.822  0.0006 -0.1976  0.1254
 1102DPPI    C115753   3.976   4.891   5.451  0.4139  0.1009 -0.2487
 1102DPPI    C215754   3.836   4.630   5.183  0.2316  0.2188 -0.2704
 1102DPPI    C315755   3.690   5.002   5.194  0.0204  0.1290  0.1865
 1102DPPI   PO415756   3.980   4.714   5.746  0.2891 -0.1695 -0.2081
 1102DPPI   GL115757   3.802   4.399   5.983  0.1331 -0.2933 -0.4598
 1102DPPI   GL215758   3.679   4.096   6.057 -0.2616  0.0486  0.0045
 1102DPPI   C1A15759   3.994   4.514   6.407  0.1685  0.1253 -0.0913
 1102DPPI   C2A15760   4.042   4.628   6.803 -0.2105  0.3984 -0.1689
 1102DPPI   C3A15761   4.042   4.687   7.192  0.0473  0.1156 -0.2848
 1102DPPI   C4A15762   4.237   4.846   7.636 -0.1812 -0.0576  0.0498
 1102DPPI   C1B15763   3.376   4.048   6.479  0.3200  0.2567  0.0170
 1102DPPI   C2B15764   3.249   4.024   6.893 -0.0538  0.1650  0.0687
 1102DPPI   C3B15765   3.298   4.032   7.314 -0.0591  0.0221 -0.3531
 1102DPPI   C4B15766   3.097   4.203   7.778  0.1526  0.3219  0.1029
 1103DPPI    C115767   4.543   4.068   5.148  0.0969  0.1204 -0.0758
 1103DPPI    C215768   4.158   4.174   5.132  0.0795  0.0392 -0.2214
 1103DPPI    C315769   4.421   4.338   4.880  0.1264  0.0365 -0.1744
 1103DPPI   PO415770   4.524   3.916   5.408 -0.1952 -0.0063 -0.1265
 1103DPPI   GL115771   4.441   3.919   5.840 -0.1893 -0.4485 -0.0114
 1103DPPI   GL215772   4.814   3.869   5.948 -0.5077  0.4430  0.0851
 1103DPPI   C1A15773   4.168   4.098   6.104 -0.0219  0.0785 -0.0153
 1103DPPI   C2A15774   3.903   3.957   6.440  0.2496 -0.2876 -0.0366
 1103DPPI   C3A15775   3.771   4.008   6.896 -0.0843 -0.2195  0.0774
 1103DPPI   C4A15776   3.792   4.160   7.256  0.2365 -0.1285 -0.3918
 1103DPPI   C1B15777   4.647   3.851   6.379  0.0075 -0.0450  0.2389
 1103DPPI   C2B15778   4.692   3.716   6.782 -0.3114  0.2540 -0.0254
 1103DPPI   C3B15779   4.596   3.582   7.241 -0.1860 -0.2864  0.2090
 1103DPPI   C4B15780   4.562   3.750   7.551 -0.2700  0.1193  0.1982
 1104DPPI    C115781  12.176   1.208   5.838  0.2083 -0.1315  0.1238
 1104DPPI    C215782  12.377   1.554   5.832 -0.1648  0.0882 -0.1856
 1104DPPI    C315783  12.471   1.263   5.574  0.0996 -0.0186  0.0251
 1104DPPI   PO415784  12.080   1.135   6.140 -0.0356 -0.2233 -0.1042
 1104DPPI   GL115785  12.129   1.023   6.587  0.1412 -0.0312  0.0129
 1104DPPI   GL215786  12.356   1.280   6.641  0.0502  0.0521  0.2345
 1104DPPI   C1A15787  11.953   0.936   6.937 -0.0629 -0.1671  0.0575
 1104DPPI   C2A15788  11.968   1.013   7.394 -0.1015  0.4131 -0.1790
 1104DPPI   C3A15789  11.933   1.221   7.617 -0.2061 -0.1785  0.3313
 1104DPPI   C4A15790  11.879   1.410   7.922  0.0286  0.0582  0.0547
 1104DPPI   C1B15791  12.428   0.957   6.994  0.1226  0.0505 -0.1959
 1104DPPI   C2B15792  12.487   0.821   7.451  0.2026 -0.0728  0.0611
 1104DPPI   C3B15793  12.322   0.932   7.816 -0.1256  0.1425  0.2405
 1104DPPI   C4B15794  12.170   1.013   8.202  0.1972  0.4836  0.1185
 1105DPPI    C115795   9.901   8.457   5.567 -0.1036 -0.1612 -0.1399
 1105DPPI    C215796  10.131   8.130   5.584  0.0997 -0.0138  0.0051
 1105DPPI    C315797  10.061   8.307   5.232  0.2488 -0.0315 -0.0339
 1105DPPI   PO415798   9.939   8.510   5.851  0.1133  0.0553  0.2471
 1105DPPI   GL115799   9.583   8.408   6.144 -0.1086  0.0725 -0.0522
 1105DPPI   GL215800   9.514   8.753   6.134 -0.2145 -0.1855 -0.1981
 1105DPPI   C1A15801   9.405   8.240   6.646 -0.0486 -0.0438  0.3093
 1105DPPI   C2A15802   9.469   8.251   7.104 -0.0950 -0.2182 -0.2401
 1105DPPI   C3A15803   9.452   8.302   7.578 -0.3311  0.2946 -0.2208
 1105DPPI   C4A15804   9.541   8.349   8.005 -0.0063 -0.0890 -0.2079
 1105DPPI   C1B15805   9.655   8.625   6.608  0.1633 -0.4098  0.0942
 1105DPPI   C2B15806   9.697   8.663   7.068  0.2492 -0.0167 -0.2624
 1105DPPI   C3B15807   9.753   8.704   7.458  0.2317  0.0843  0.0856
 1105DPPI   C4B15808   9.517   8.784   7.804 -0.0983  0.2104 -0.0013
 1106DPPI    C115809   9.834  12.764   5.931  0.0367 -0.1502  0.2166
 1106DPPI    C215810   9.917  12.450   5.697 -0.2188  0.1994 -0.3656
 1106DPPI    C315811   9.558  12.480   5.872 -0.0602 -0.0156  0.0067
 1106DPPI   PO415812  10.061  12.863   6.073  0.0333  0.1359  0.0246
 1106DPPI   GL115813  10.167  12.924   6.454  0.0042 -0.0836  0.1193
 1106DPPI   GL215814  10.337  12.570   6.538 -0.0405 -0.3794  0.2649
 1106DPPI   C1A15815  10.144  12.925   6.944  0.0050 -0.0046 -0.1110
 1106DPPI   C2A15816  10.073  12.860   7.367  0.0756 -0.2112 -0.2032
 1106DPPI   C3A15817   9.850  13.018   7.848  0.1152  0.0177  0.1033
 1106DPPI   C4A15818   9.609  12.924   8.303 -0.1444  0.1774 -0.1870
 1106DPPI   C1B15819  10.140  12.426   6.874  0.0753  0.0022  0.2152
 1106DPPI   C2B15820  10.218  12.393   7.320  0.0372 -0.1729  0.1049
 1106DPPI   C3B15821  10.163  12.382   7.723  0.0084 -0.0072  0.3286
 1106DPPI   C4B15822  10.184  12.197   8.100  0.2984 -0.1577 -0.0302
 1107DPPI    C115823   4.267   5.797   5.220  0.1179 -0.1946  0.0753
 1107DPPI    C215824   4.524   6.091   5.309  0.0753 -0.1498  0.0510
 1107DPPI    C315825   4.245   6.148   5.028  0.1650 -0.2667 -0.0635
 1107DPPI   PO415826   4.194   5.681   5.537 -0.0863 -0.1209  0.0967
 1107DPPI   GL115827   4.267   5.747   6.053  0.0759 -0.0893  0.0228
 1107DPPI   GL215828   3.930   5.713   5.960 -0.0509 -0.1101 -0.3596
 1107DPPI   C1A15829   4.555   5.507   6.171 -0.0054  0.4692  0.0341
 1107DPPI   C2A15830   4.561   5.565   6.602 -0.0709 -0.2194  0.0205
 1107DPPI   C3A15831   4.731   5.547   7.034  0.3230 -0.1778  0.1291
 1107DPPI   C4A15832   4.766   5.537   7.451 -0.0416  0.2177 -0.2355
 1107DPPI   C1B15833   3.964   5.467   6.290 -0.1216 -0.3217  0.1750
 1107DPPI   C2B15834   4.081   5.459   6.723 -0.0372  0.0455  0.2379
 1107DPPI   C3B15835   4.103   5.570   7.137  0.1151 -0.3501  0.0671
 1107DPPI   C4B15836   4.247   5.699   7.512 -0.4116 -0.3286  0.1709
 1108DPPI    C115837   2.471  17.795   5.798 -0.0941 -0.2579  0.2691
 1108DPPI    C215838   2.456  17.401   5.726  0.0249 -0.1413 -0.4693
 1108DPPI    C315839   2.392  17.662   5.429 -0.0113  0.4036 -0.0004
 1108DPPI   PO415840   2.643  17.810   6.051  0.1055 -0.5313  0.1146
 1108DPPI   GL115841   2.572  17.751   6.515 -0.0821  0.0780  0.0632
 1108DPPI   GL215842   2.837  17.922   6.555  0.1858  0.1146  0.0598
 1108DPPI   C1A15843   2.638  17.612   6.853 -0.0171 -0.2393  0.0364
 1108DPPI   C2A15844   2.794  17.893   7.153 -0.2613  0.2035 -0.0248
 1108DPPI   C3A15845   2.908  17.969   7.668 -0.2847 -0.0075 -0.0580
 1108DPPI   C4A15846   2.906  18.003   8.086  0.3387  0.1164  0.2843
 1108DPPI   C1B15847   3.122  17.647   6.791  0.1933  0.5354 -0.2133
 1108DPPI   C2B15848   3.391  17.484   7.097  0.0843 -0.0362 -0.0012
 1108DPPI   C3B15849   3.362  17.552   7.503 -0.1684  0.1178 -0.2224
 1108DPPI   C4B15850   3.159  17.561   7.963  0.0838 -0.0324  0.2532
 1109DPPI    C115851  10.739   7.408   5.714 -0.1090  0.3777  0.0722
 1109DPPI    C215852  11.006   7.498   5.429 -0.1400 -0.0939 -0.1149
 1109DPPI    C315853  10.683   7.729   5.482  0.0712  0.2242 -0.1886
 1109DPPI   PO415854  10.882   7.387   5.950 -0.0222  0.0602 -0.0090
 1109DPPI   GL115855  10.693   7.499   6.320 -0.3457 -0.0157 -0.1361
 1109DPPI   GL215856  10.358   7.426   6.339  0.0047 -0.0169  0.3107
 1109DPPI   C1A15857  10.766   7.534   6.658  0.0986 -0.1665  0.1886
 1109DPPI   C2A15858  10.801   7.435   7.081 -0.1594  0.1254  0.1970
 1109DPPI   C3A15859  10.725   7.381   7.481 -0.0165 -0.1371 -0.2716
 1109DPPI   C4A15860  10.795   7.653   7.840  0.1624 -0.2659 -0.4344
 1109DPPI   C1B15861  10.270   7.366   6.706 -0.3687 -0.0812 -0.3348
 1109DPPI   C2B15862  10.161   7.384   7.092 -0.1260  0.1375  0.0693
 1109DPPI   C3B15863  10.195   7.307   7.490  0.0690 -0.2532 -0.2222
 1109DPPI   C4B15864  10.396   7.103   7.914  0.2483  0.3838 -0.0848
 1110DPPI    C115865  14.427   1.234   5.950  0.1855 -0.1264 -0.2552
 1110DPPI    C215866  14.408   1.610   5.815 -0.0531 -0.0585 -0.0404
 1110DPPI    C315867  14.087   1.373   5.791  0.0061 -0.1540  0.0938
 1110DPPI   PO415868  14.569   1.270   6.209 -0.1288  0.0621 -0.2244
 1110DPPI   GL115869  14.826   1.148   6.499 -0.1960  0.1356  0.0678
 1110DPPI   GL215870  14.663   0.890   6.629  0.1573 -0.1010 -0.2531
 1110DPPI   C1A15871  14.975   1.239   6.930  0.0746  0.0025 -0.1202
 1110DPPI   C2A15872  14.952   1.210   7.416 -0.1926 -0.1411 -0.3584
 1110DPPI   C3A15873  14.924   1.496   7.764  0.3269  0.2859 -0.0232
 1110DPPI   C4A15874  14.638   1.518   8.122 -0.3032 -0.0348 -0.0259
 1110DPPI   C1B15875  14.916   0.773   6.873  0.1701  0.0323 -0.1451
 1110DPPI   C2B15876  14.865   0.736   7.351  0.1513 -0.1811 -0.0030
 1110DPPI   C3B15877  14.952   0.531   7.805  0.1961 -0.1833 -0.0489
 1110DPPI   C4B15878  14.895   0.348   8.252  0.1642 -0.0605 -0.2189
 1111DPPI    C115879   5.063  14.883   5.769  0.0540 -0.1837  0.0177
 1111DPPI    C215880   5.020  14.580   6.026 -0.1623  0.0784  0.2980
 1111DPPI    C315881   4.719  14.680   5.782 -0.0418 -0.0182  0.1075
 1111DPPI   PO415882   5.333  14.944   5.824  0.2330 -0.1266 -0.3442
 1111DPPI   GL115883   5.457  14.806   6.250  0.2148 -0.1062  0.3217
 1111DPPI   GL215884   5.315  14.881   6.605  0.0332 -0.0497  0.0732
 1111DPPI   C1A15885   5.807  14.739   6.577  0.0211 -0.0398  0.1399
 1111DPPI   C2A15886   6.044  15.036   6.828  0.3063  0.0549 -0.2403
 1111DPPI   C3A15887   6.112  14.984   7.258 -0.0862  0.1111 -0.2001
 1111DPPI   C4A15888   6.273  15.147   7.549  0.0274  0.2557  0.1122
 1111DPPI   C1B15889   5.353  14.449   6.896 -0.0046  0.2291 -0.1234
 1111DPPI   C2B15890   5.046  14.377   7.266 -0.1849  0.2962 -0.0046
 1111DPPI   C3B15891   4.837  14.301   7.612  0.0582 -0.0090  0.3658
 1111DPPI   C4B15892   4.475  14.367   7.760 -0.1308  0.0066 -0.1651
 1112DPPI    C115893  17.011   1.190   5.874  0.1104 -0.0261 -0.1098
 1112DPPI    C215894  17.025   1.540   5.681 -0.1930  0.0116 -0.0687
 1112DPPI    C315895  16.680   1.338   5.703 -0.0542 -0.2171  0.0386
 1112DPPI   PO415896  17.135   1.272   6.141 -0.1114  0.0357  0.0696
 1112DPPI   GL115897  17.148   1.218   6.487 -0.2280  0.2658 -0.4145
 1112DPPI   GL215898  17.137   1.533   6.613 -0.0157 -0.3264  0.0097
 1112DPPI   C1A15899  17.372   0.898   6.738  0.0115 -0.1859  0.0909
 1112DPPI   C2A15900  17.300   0.726   7.182 -0.0396 -0.0572 -0.0028
 1112DPPI   C3A15901  17.531   0.899   7.528 -0.0294  0.1169 -0.2432
 1112DPPI   C4A15902  17.403   1.129   7.943 -0.3050  0.0604  0.4191
 1112DPPI   C1B15903  17.090   1.237   6.954 -0.4104  0.2085 -0.0601
 1112DPPI   C2B15904  17.098   1.076   7.429 -0.0186 -0.0784 -0.5027
 1112DPPI   C3B15905  16.922   0.995   7.914  0.1545  0.1425  0.1301
 1112DPPI   C4B15906  16.936   0.890   8.299 -0.0342 -0.1143 -0.0055
 1113DPPI    C115907   2.349  13.862   5.756 -0.0830  0.3404  0.0407
 1113DPPI    C215908   2.208  13.981   5.401  0.0632  0.0588 -0.1158
 1113DPPI    C315909   2.320  13.601   5.454  0.2467  0.1494  0.1689
 1113DPPI   PO415910   2.212  13.982   5.928  0.0658  0.0660 -0.2889
 1113DPPI   GL115911   2.294  13.992   6.442  0.0267 -0.0176 -0.1809
 1113DPPI   GL215912   2.433  13.601   6.476  0.0607 -0.0201  0.2719
 1113DPPI   C1A15913   2.496  13.837   6.964 -0.1614 -0.3282 -0.1347
 1113DPPI   C2A15914   2.532  13.816   7.387 -0.0812 -0.0642 -0.0051
 1113DPPI   C3A15915   2.430  13.755   7.737 -0.0072 -0.0096 -0.0354
 1113DPPI   C4A15916   2.430  13.943   8.164  0.2218  0.0489  0.2023
 1113DPPI   C1B15917   2.199  13.464   6.750  0.2683 -0.0199 -0.3946
 1113DPPI   C2B15918   2.060  13.562   7.071  0.4474  0.0006 -0.2254
 1113DPPI   C3B15919   2.033  13.600   7.438 -0.3561 -0.0109 -0.2737
 1113DPPI   C4B15920   2.020  13.271   7.817  0.0626  0.0474  0.1555
 1114DPPI    C115921   6.387   1.931   5.623  0.0854 -0.1401 -0.1317
 1114DPPI    C215922   6.596   2.087   5.320  0.0650 -0.0123 -0.0808
 1114DPPI    C315923   6.784   1.967   5.652  0.0466  0.2132  0.0128
 1114DPPI   PO415924   6.188   2.077   5.692 -0.3993  0.2783 -0.2647
 1114DPPI   GL115925   6.073   2.187   6.027 -0.0217 -0.0805 -0.3212
 1114DPPI   GL215926   5.902   1.878   6.069 -0.3808  0.0615  0.0505
 1114DPPI   C1A15927   6.144   2.219   6.481  0.3457  0.1240  0.0388
 1114DPPI   C2A15928   6.065   2.445   6.895  0.1579  0.1248 -0.2377
 1114DPPI   C3A15929   5.958   2.460   7.195 -0.0564 -0.2855 -0.1253
 1114DPPI   C4A15930   5.952   2.360   7.630  0.0689  0.2117  0.0078
 1114DPPI   C1B15931   5.821   1.797   6.424  0.0404  0.0145 -0.2179
 1114DPPI   C2B15932   5.945   1.926   6.856  0.0333  0.1327  0.1459
 1114DPPI   C3B15933   5.887   1.934   7.371 -0.0310 -0.1321  0.1080
 1114DPPI   C4B15934   5.904   1.906   7.917 -0.1342  0.1036  0.1935
 1115DPPI    C115935  17.716   2.226   5.832  0.0771  0.0039  0.0429
 1115DPPI    C215936  17.332   2.197   5.937  0.0584 -0.2221 -0.0815
 1115DPPI    C315937  17.433   2.384   5.598  0.0747  0.0054  0.0469
 1115DPPI   PO415938  17.781   2.002   6.013  0.1749  0.0544 -0.0429
 1115DPPI   GL115939  17.772   1.860   6.446  0.0991 -0.0089 -0.0733
 1115DPPI   GL215940  17.688   1.569   6.464  0.1499 -0.0118  0.0736
 1115DPPI   C1A15941  17.841   2.114   6.700 -0.2742 -0.2457 -0.0801
 1115DPPI   C2A15942  17.752   2.278   7.083  0.1921 -0.0313  0.2097
 1115DPPI   C3A15943  17.499   2.460   7.393  0.0455  0.0519  0.0254
 1115DPPI   C4A15944  17.357   2.571   7.764 -0.0419  0.1319 -0.1204
 1115DPPI   C1B15945  17.564   1.696   6.852  0.0303  0.2291  0.0784
 1115DPPI   C2B15946  17.523   1.787   7.269 -0.0086  0.0471 -0.1766
 1115DPPI   C3B15947  17.205   2.063   7.476 -0.1549  0.2498  0.0348
 1115DPPI   C4B15948  16.844   2.232   7.358  0.4854 -0.2733 -0.0942
 1116DPPI    C115949   5.971   3.055   5.552 -0.1183  0.0750 -0.0201
 1116DPPI    C215950   6.120   3.290   5.266 -0.0191 -0.0986 -0.1130
 1116DPPI    C315951   5.851   3.009   5.173 -0.1358 -0.0242 -0.0028
 1116DPPI   PO415952   6.240   3.025   5.720 -0.0085 -0.0429  0.1827
 1116DPPI   GL115953   6.152   3.222   6.064  0.0686 -0.1278 -0.1920
 1116DPPI   GL215954   6.385   3.213   6.244  0.1200 -0.0334  0.1679
 1116DPPI   C1A15955   5.975   3.289   6.488 -0.1834  0.1819 -0.1195
 1116DPPI   C2A15956   5.955   3.297   7.028  0.0433  0.0308 -0.4108
 1116DPPI   C3A15957   6.015   3.308   7.389 -0.4035 -0.1887  0.3077
 1116DPPI   C4A15958   5.944   3.605   7.760  0.1719  0.1073 -0.0570
 1116DPPI   C1B15959   6.515   3.420   6.634 -0.1199 -0.0804 -0.0892
 1116DPPI   C2B15960   6.438   3.404   7.137 -0.0178 -0.3914  0.1916
 1116DPPI   C3B15961   6.460   3.589   7.559 -0.1974  0.0551  0.0381
 1116DPPI   C4B15962   6.421   3.577   8.059  0.1122 -0.1459  0.2215
 1117DPPI    C115963   8.869   9.865   5.682  0.1605 -0.0602 -0.1578
 1117DPPI    C215964   8.779   9.795   5.299  0.0234 -0.1127 -0.1166
 1117DPPI    C315965   8.692  10.149   5.463  0.1544 -0.0620 -0.1555
 1117DPPI   PO415966   8.733   9.772   5.806 -0.0734  0.1883 -0.1967
 1117DPPI   GL115967   8.852   9.765   6.186  0.1514  0.2353 -0.0130
 1117DPPI   GL215968   8.569  10.095   6.212 -0.0353 -0.1568  0.1068
 1117DPPI   C1A15969   8.596   9.552   6.521 -0.1037 -0.1973  0.0071
 1117DPPI   C2A15970   8.592   9.578   6.956 -0.3382  0.0688 -0.1190
 1117DPPI   C3A15971   8.847   9.822   7.102 -0.1066 -0.4263  0.0146
 1117DPPI   C4A15972   8.882  10.144   7.364 -0.3074  0.1629  0.1582
 1117DPPI   C1B15973   8.628  10.047   6.616 -0.2171  0.3379  0.0472
 1117DPPI   C2B15974   8.404  10.022   6.892  0.0899 -0.0869 -0.2781
 1117DPPI   C3B15975   8.335   9.951   7.302  0.0072 -0.3343 -0.0985
 1117DPPI   C4B15976   8.155   9.914   7.718 -0.1701  0.0173 -0.1786
 1118DPPI    C115977   0.011   3.662   5.707 -0.2342 -0.0158  0.1048
 1118DPPI    C215978   0.091   4.001   5.510 -0.4980  0.1141  0.2154
 1118DPPI    C315979  -0.083   3.696   5.320 -0.1328 -0.0158  0.0798
 1118DPPI   PO415980   0.054   3.879   5.973  0.1619  0.1654 -0.1997
 1118DPPI   GL115981   0.166   3.832   6.387 -0.2840  0.0685 -0.1202
 1118DPPI   GL215982   0.485   3.783   6.303  0.0269 -0.3782  0.1365
 1118DPPI   C1A15983   0.128   3.814   6.787  0.0721  0.0434 -0.0605
 1118DPPI   C2A15984  -0.094   3.510   6.859  0.0491 -0.0892 -0.2979
 1118DPPI   C3A15985  -0.133   3.279   7.209  0.1923  0.1393 -0.1657
 1118DPPI   C4A15986  -0.106   3.288   7.651  0.1521 -0.2162 -0.1932
 1118DPPI   C1B15987   0.626   3.976   6.678  0.0993 -0.1641  0.1480
 1118DPPI   C2B15988   0.588   3.977   7.112 -0.0483 -0.1137  0.0241
 1118DPPI   C3B15989   0.432   3.851   7.475  0.0374 -0.3791  0.1416
 1118DPPI   C4B15990   0.211   3.681   7.726 -0.0785  0.1752  0.2464
 1119DPPI    C115991   3.205  12.448   5.999 -0.0649 -0.1326 -0.1461
 1119DPPI    C215992   3.540  12.289   5.849  0.1402  0.2146 -0.0667
 1119DPPI    C315993   3.184  12.152   5.731  0.3073 -0.1196 -0.1957
 1119DPPI   PO415994   3.263  12.409   6.329  0.2455  0.0298 -0.0476
 1119DPPI   GL115995   3.347  12.542   6.718  0.2121  0.0122 -0.0007
 1119DPPI   GL215996   3.264  12.843   6.730  0.5746 -0.2309  0.1161
 1119DPPI   C1A15997   3.378  12.415   7.126 -0.1149 -0.2793  0.2024
 1119DPPI   C2A15998   3.264  12.481   7.528 -0.2403 -0.0406 -0.1900
 1119DPPI   C3A15999   3.264  12.650   7.940 -0.5544 -0.0911  0.0845
 1119DPPI   C4A16000   3.572  12.854   8.192 -0.1093 -0.1192 -0.1025
 1119DPPI   C1B16001   3.343  12.944   7.121 -0.0440 -0.0848 -0.0440
 1119DPPI   C2B16002   3.448  12.947   7.523  0.1517 -0.2234 -0.2973
 1119DPPI   C3B16003   3.648  13.219   7.809  0.3007 -0.2126  0.0229
 1119DPPI   C4B16004   3.584  13.372   8.271  0.2763 -0.2015 -0.0758
 1120DPPI    C116005   5.335  16.817   5.997 -0.0692 -0.0504  0.0409
 1120DPPI    C216006   5.036  16.786   5.733  0.1463 -0.0227 -0.2107
 1120DPPI    C316007   5.289  16.480   5.785 -0.0567 -0.1331  0.1683
 1120DPPI   PO416008   5.270  16.811   6.247  0.0708  0.1263  0.0920
 1120DPPI   GL116009   5.471  16.637   6.725  0.0795  0.1352  0.1338
 1120DPPI   GL216010   5.708  16.424   6.707 -0.1665 -0.1412  0.0460
 1120DPPI   C1A16011   5.488  16.812   7.220 -0.1741 -0.0517 -0.1648
 1120DPPI   C2A16012   5.603  17.082   7.526  0.3552 -0.1812  0.1492
 1120DPPI   C3A16013   5.530  17.112   7.967  0.1346 -0.0260 -0.3002
 1120DPPI   C4A16014   5.445  17.362   8.316 -0.3458 -0.0868 -0.0968
 1120DPPI   C1B16015   5.662  16.370   7.225 -0.0922 -0.1241  0.4750
 1120DPPI   C2B16016   5.644  16.490   7.628  0.0580 -0.0905 -0.2467
 1120DPPI   C3B16017   5.827  16.756   7.800 -0.2881 -0.0578  0.1386
 1120DPPI   C4B16018   6.240  16.829   7.914 -0.0363 -0.0638 -0.0513
 1121DPPI    C116019  13.107  16.493   5.590 -0.1208  0.4425 -0.1224
 1121DPPI    C216020  13.379  16.572   5.307  0.0322  0.3224 -0.0100
 1121DPPI    C316021  13.002  16.698   5.262  0.0395  0.2483 -0.2979
 1121DPPI   PO416022  13.225  16.581   5.845 -0.0712  0.3784 -0.3115
 1121DPPI   GL116023  13.315  16.544   6.371 -0.1765 -0.2829  0.1065
 1121DPPI   GL216024  13.549  16.428   6.275  0.0433 -0.4040 -0.1710
 1121DPPI   C1A16025  13.586  16.726   6.743 -0.0470  0.2127  0.0078
 1121DPPI   C2A16026  13.646  16.687   7.171  0.1159  0.0362 -0.0611
 1121DPPI   C3A16027  13.686  16.701   7.571 -0.0123  0.0902  0.0571
 1121DPPI   C4A16028  13.630  16.690   8.002 -0.0052  0.1329  0.0374
 1121DPPI   C1B16029  13.581  16.211   6.681  0.0083  0.0686 -0.0606
 1121DPPI   C2B16030  13.605  16.174   7.150 -0.2158  0.2741 -0.0074
 1121DPPI   C3B16031  13.630  16.224   7.489  0.0509  0.2040 -0.2018
 1121DPPI   C4B16032  13.634  16.218   7.918 -0.0857  0.0068 -0.0233
 1122DPPI    C116033   2.356   5.429   5.391 -0.3251  0.0052 -0.3565
 1122DPPI    C216034   2.696   5.375   5.188 -0.1168 -0.0207 -0.0084
 1122DPPI    C316035   2.396   5.114   5.147 -0.0198 -0.1102 -0.1628
 1122DPPI   PO416036   2.394   5.458   5.637 -0.0315  0.0181  0.2370
 1122DPPI   GL116037   2.615   5.281   6.004  0.3633  0.1337 -0.0016
 1122DPPI   GL216038   2.378   5.311   6.120 -0.1850  0.0101 -0.3086
 1122DPPI   C1A16039   2.838   5.322   6.330 -0.0815  0.1214  0.0821
 1122DPPI   C2A16040   2.868   5.268   6.679  0.0027  0.0883 -0.0599
 1122DPPI   C3A16041   2.815   5.099   7.015  0.1149  0.1729 -0.0875
 1122DPPI   C4A16042   2.825   4.964   7.360  0.0597 -0.1292 -0.2103
 1122DPPI   C1B16043   2.229   5.332   6.443  0.1590  0.1763  0.3714
 1122DPPI   C2B16044   2.340   5.232   6.916 -0.0166  0.0318  0.0211
 1122DPPI   C3B16045   2.432   5.402   7.326  0.1775  0.0591 -0.0356
 1122DPPI   C4B16046   2.447   5.782   7.589 -0.2803 -0.3102  0.2736
 1123DPPI    C116047   2.119   5.052   5.715 -0.2313  0.2977  0.0936
 1123DPPI    C216048   1.779   4.851   5.646 -0.0252 -0.1086  0.2299
 1123DPPI    C316049   1.957   5.051   5.349 -0.3261  0.0211  0.1334
 1123DPPI   PO416050   2.152   4.899   5.981 -0.0885  0.1054 -0.1485
 1123DPPI   GL116051   2.480   4.639   6.004 -0.1189  0.1391  0.1043
 1123DPPI   GL216052   2.592   4.818   6.208 -0.1019  0.1085  0.0500
 1123DPPI   C1A16053   2.506   4.368   6.430 -0.3086  0.2427 -0.2255
 1123DPPI   C2A16054   2.485   4.262   6.797  0.1409  0.1469 -0.0301
 1123DPPI   C3A16055   2.344   4.275   7.188  0.0098  0.0158  0.2046
 1123DPPI   C4A16056   2.194   4.413   7.521  0.1684  0.1030  0.1035
 1123DPPI   C1B16057   2.476   4.917   6.506  0.1720  0.1721 -0.3852
 1123DPPI   C2B16058   2.275   4.755   6.825  0.0638  0.1298 -0.1107
 1123DPPI   C3B16059   2.437   4.781   7.226 -0.1886  0.4342  0.0454
 1123DPPI   C4B16060   2.368   5.036   7.664  0.2011  0.5314 -0.0400
 1124DPPI    C116061  12.162   8.708   5.529  0.1302  0.2810 -0.0342
 1124DPPI    C216062  11.772   8.664   5.453  0.1459  0.0457  0.0122
 1124DPPI    C316063  12.043   8.542   5.185  0.1913 -0.0941  0.1208
 1124DPPI   PO416064  12.173   8.590   5.822  0.1127  0.0117 -0.1116
 1124DPPI   GL116065  12.018   8.439   6.176  0.0946 -0.0611  0.1983
 1124DPPI   GL216066  11.643   8.409   6.415  0.3255  0.1482  0.0033
 1124DPPI   C1A16067  12.044   8.643   6.595 -0.0110 -0.1223  0.0742
 1124DPPI   C2A16068  12.183   8.717   7.009 -0.2852  0.1192 -0.2036
 1124DPPI   C3A16069  12.066   8.719   7.489 -0.0086 -0.1374  0.1538
 1124DPPI   C4A16070  12.232   8.905   7.939  0.1882 -0.1208 -0.1677
 1124DPPI   C1B16071  11.782   8.330   6.815  0.2059 -0.2730  0.1211
 1124DPPI   C2B16072  11.790   8.246   7.281  0.1391  0.0450  0.2172
 1124DPPI   C3B16073  11.793   8.394   7.782 -0.1433 -0.1017  0.0294
 1124DPPI   C4B16074  11.749   8.387   8.168  0.1291 -0.2669  0.3126
 1125DPPI    C116075  16.353  13.276   5.943  0.0513  0.2973  0.1058
 1125DPPI    C216076  16.273  13.070   5.610 -0.0684  0.0877  0.2618
 1125DPPI    C316077  16.232  13.468   5.614  0.1950  0.1219 -0.0517
 1125DPPI   PO416078  16.164  13.230   6.118 -0.3077 -0.1886  0.1405
 1125DPPI   GL116079  16.091  12.949   6.459 -0.0472 -0.5424  0.0870
 1125DPPI   GL216080  16.397  13.068   6.574 -0.0331 -0.1378  0.1198
 1125DPPI   C1A16081  15.753  12.962   6.804 -0.0761 -0.0657 -0.2832
 1125DPPI   C2A16082  15.724  12.857   7.166 -0.0606 -0.1563 -0.1923
 1125DPPI   C3A16083  15.627  12.839   7.560 -0.1558 -0.1336 -0.0650
 1125DPPI   C4A16084  15.590  12.863   7.969  0.0814 -0.1655  0.0010
 1125DPPI   C1B16085  16.228  12.906   6.923 -0.1564  0.0126 -0.1782
 1125DPPI   C2B16086  16.240  12.860   7.352  0.0349  0.0018 -0.1996
 1125DPPI   C3B16087  16.106  12.614   7.596  0.0755  0.0919 -0.1846
 1125DPPI   C4B16088  16.003  12.573   8.045  0.0564 -0.3359  0.0240
 1126DPPI    C116089   6.243   1.517   5.844  0.0698 -0.2544 -0.0497
 1126DPPI    C216090   6.616   1.394   5.766  0.0853 -0.0181 -0.3673
 1126DPPI    C316091   6.305   1.216   5.588  0.0574 -0.0936 -0.2443
 1126DPPI   PO416092   6.289   1.460   6.114 -0.0032 -0.1009 -0.0966
 1126DPPI   GL116093   6.339   1.130   6.526 -0.0719 -0.1303 -0.0635
 1126DPPI   GL216094   6.026   1.378   6.614 -0.2429 -0.0462  0.0415
 1126DPPI   C1A16095   6.471   0.939   6.889  0.1145 -0.1280  0.0650
 1126DPPI   C2A16096   6.495   0.997   7.409 -0.0146  0.0646  0.0547
 1126DPPI   C3A16097   6.506   0.639   7.835  0.2535 -0.0289  0.2044
 1126DPPI   C4A16098   6.877   0.496   7.957  0.0784 -0.1188 -0.1503
 1126DPPI   C1B16099   6.219   1.393   6.995  0.1589  0.0146  0.0469
 1126DPPI   C2B16100   6.308   1.432   7.483  0.1491  0.3054 -0.2096
 1126DPPI   C3B16101   6.307   1.574   7.893  0.1221  0.1091 -0.0802
 1126DPPI   C4B16102   6.378   1.742   8.219  0.4076 -0.0560  0.2533
 1127DPPI    C116103   4.468  15.380   6.120 -0.2773 -0.0514  0.1111
 1127DPPI    C216104   4.686  15.600   5.867 -0.3802  0.1591  0.2031
 1127DPPI    C316105   4.662  15.203   5.818 -0.1460  0.1597  0.0701
 1127DPPI   PO416106   4.653  15.374   6.440  0.2568  0.1081 -0.3379
 1127DPPI   GL116107   4.545  15.401   6.879 -0.1877  0.2114  0.0529
 1127DPPI   GL216108   4.598  15.213   7.008  0.2055  0.3977 -0.0540
 1127DPPI   C1A16109   4.466  15.721   7.011 -0.1281  0.0566 -0.1619
 1127DPPI   C2A16110   4.376  15.879   7.406  0.1248 -0.1787 -0.2814
 1127DPPI   C3A16111   4.329  15.701   7.773  0.0427 -0.0759 -0.3354
 1127DPPI   C4A16112   4.406  15.426   8.176  0.2762 -0.0736 -0.1939
 1127DPPI   C1B16113   4.490  15.367   7.404  0.0075  0.1366  0.2248
 1127DPPI   C2B16114   4.621  15.291   7.775  0.3069  0.1206 -0.0999
 1127DPPI   C3B16115   4.895  15.311   8.151 -0.0113 -0.0407  0.0940
 1127DPPI   C4B16116   4.937  15.446   8.578 -0.2138  0.0938 -0.0695
 1128DPPI    C116117  16.445   8.501   5.689 -0.2213 -0.0558 -0.0466
 1128DPPI    C216118  16.634   8.637   6.015 -0.1059 -0.2702 -0.0225
 1128DPPI    C316119  16.519   8.892   5.730 -0.2055 -0.0813  0.1842
 1128DPPI   PO416120  16.199   8.357   5.895 -0.0483 -0.0863 -0.2497
 1128DPPI   GL116121  16.002   8.418   6.303 -0.3528  0.0467 -0.2306
 1128DPPI   GL216122  15.829   8.184   6.187  0.0245  0.0624 -0.0124
 1128DPPI   C1A16123  16.175   8.280   6.649 -0.0861  0.1474 -0.0014
 1128DPPI   C2A16124  16.097   8.414   7.044  0.1109 -0.0674 -0.0143
 1128DPPI   C3A16125  16.069   8.435   7.547  0.0066  0.0209  0.0804
 1128DPPI   C4A16126  15.975   8.488   7.934 -0.2509 -0.1586  0.3448
 1128DPPI   C1B16127  15.644   8.216   6.649 -0.3152 -0.0919 -0.1778
 1128DPPI   C2B16128  15.569   8.182   7.089 -0.1035  0.0479 -0.2608
 1128DPPI   C3B16129  15.571   8.315   7.597 -0.1165  0.0692 -0.0032
 1128DPPI   C4B16130  15.538   8.236   7.957  0.1486  0.1026 -0.2540
 1129DPPI    C116131   4.153   7.180   5.727 -0.0571 -0.0309 -0.1268
 1129DPPI    C216132   4.502   7.060   5.574 -0.1186 -0.1277 -0.1922
 1129DPPI    C316133   4.352   7.417   5.473 -0.1173 -0.1547 -0.2911
 1129DPPI   PO416134   4.151   7.101   6.002  0.0269  0.1037 -0.1860
 1129DPPI   GL116135   4.132   6.859   6.266  0.2758  0.2308 -0.1234
 1129DPPI   GL216136   3.917   6.932   6.395  0.0664 -0.0435  0.1233
 1129DPPI   C1A16137   4.245   6.584   6.595  0.0757 -0.3557  0.1146
 1129DPPI   C2A16138   4.395   6.645   6.962 -0.0905  0.1407  0.0480
 1129DPPI   C3A16139   4.313   6.764   7.382  0.0877  0.0303  0.1503
 1129DPPI   C4A16140   4.623   6.967   7.684 -0.0927  0.0994 -0.0612
 1129DPPI   C1B16141   3.945   6.933   6.797 -0.2710  0.1501  0.0723
 1129DPPI   C2B16142   3.897   6.847   7.105 -0.0078  0.0535  0.1534
 1129DPPI   C3B16143   3.850   6.990   7.465  0.3058  0.1455 -0.1685
 1129DPPI   C4B16144   3.724   7.055   7.895  0.4385  0.0287 -0.1104
 1130DPPI    C116145  10.206  16.707   5.614  0.0340 -0.0655 -0.1021
 1130DPPI    C216146  10.366  17.044   5.469  0.1571 -0.0302  0.1125
 1130DPPI    C316147  10.044  16.884   5.294  0.3167 -0.0030 -0.2133
 1130DPPI   PO416148  10.167  16.785   5.909  0.0136 -0.1028 -0.0131
 1130DPPI   GL116149  10.209  16.538   6.192 -0.1389  0.1886  0.0967
 1130DPPI   GL216150  10.495  16.341   6.109  0.0230  0.0329 -0.0662
 1130DPPI   C1A16151  10.187  16.625   6.623  0.0228 -0.3101  0.0452
 1130DPPI   C2A16152  10.126  16.942   7.012  0.1297 -0.0166 -0.1602
 1130DPPI   C3A16153   9.942  16.995   7.380 -0.1423 -0.1734  0.0489
 1130DPPI   C4A16154   9.783  17.017   7.686 -0.1689  0.3649 -0.4447
 1130DPPI   C1B16155  10.426  16.185   6.467  0.0766  0.0161  0.0050
 1130DPPI   C2B16156  10.414  16.111   6.765 -0.1485 -0.2568  0.0607
 1130DPPI   C3B16157  10.333  16.025   7.109  0.2723  0.0085 -0.0288
 1130DPPI   C4B16158  10.172  15.922   7.514  0.0286  0.0133  0.0170
 1131DPPI    C116159  14.533   5.393   5.828 -0.1071 -0.0225 -0.2114
 1131DPPI    C216160  14.775   5.082   5.756 -0.1159 -0.1182  0.1511
 1131DPPI    C316161  14.788   5.405   5.520  0.3333 -0.1402  0.1367
 1131DPPI   PO416162  14.295   5.230   5.843  0.0551  0.5499  0.0377
 1131DPPI   GL116163  14.217   5.240   6.266 -0.1287 -0.0560 -0.1849
 1131DPPI   GL216164  14.463   5.035   6.438  0.5180  0.0512 -0.0532
 1131DPPI   C1A16165  14.510   5.589   6.481 -0.0295  0.1474 -0.0890
 1131DPPI   C2A16166  14.815   5.493   6.864 -0.3091 -0.0978 -0.1996
 1131DPPI   C3A16167  15.187   5.361   7.144 -0.2481 -0.0253  0.0900
 1131DPPI   C4A16168  15.554   5.226   7.274  0.1404 -0.0576  0.3254
 1131DPPI   C1B16169  14.381   5.173   6.820  0.1476 -0.0817 -0.0437
 1131DPPI   C2B16170  14.326   5.600   7.102  0.1637  0.3113  0.0819
 1131DPPI   C3B16171  14.275   5.644   7.483 -0.1801 -0.1052  0.1663
 1131DPPI   C4B16172  14.337   5.832   7.880  0.0401 -0.0838  0.0160
 1132DPPI    C116173  16.794  12.949   5.409 -0.0939  0.0770 -0.4000
 1132DPPI    C216174  16.777  13.223   5.700  0.3271 -0.2008 -0.1013
 1132DPPI    C316175  16.723  13.332   5.319  0.1457  0.2328  0.0421
 1132DPPI   PO416176  16.667  12.748   5.615 -0.1040 -0.1862  0.1218
 1132DPPI   GL116177  16.775  12.476   6.093  0.0385  0.1238 -0.1041
 1132DPPI   GL216178  16.734  12.189   6.206 -0.0828  0.1065 -0.3146
 1132DPPI   C1A16179  16.800  12.549   6.555 -0.0910 -0.1749  0.1555
 1132DPPI   C2A16180  16.680  12.513   6.995  0.0567 -0.2464 -0.6451
 1132DPPI   C3A16181  16.460  12.356   7.356  0.2734  0.2463  0.1893
 1132DPPI   C4A16182  16.688  12.183   7.662  0.1476  0.1538 -0.0928
 1132DPPI   C1B16183  16.815  12.066   6.613 -0.1630 -0.1208 -0.0750
 1132DPPI   C2B16184  16.894  11.996   6.944  0.0759 -0.0953 -0.1486
 1132DPPI   C3B16185  17.012  11.945   7.363 -0.0919  0.0868 -0.0467
 1132DPPI   C4B16186  17.157  11.907   7.696 -0.0398 -0.2054  0.0118
 1133DPPI    C116187  16.487  11.437   5.861 -0.1084  0.0660  0.0893
 1133DPPI    C216188  16.440  11.080   5.685 -0.2069  0.1418 -0.0401
 1133DPPI    C316189  16.541  11.400   5.466 -0.1107  0.1923  0.0768
 1133DPPI   PO416190  16.296  11.380   6.094 -0.2856 -0.0268 -0.0414
 1133DPPI   GL116191  16.472  11.481   6.372  0.3865  0.1790 -0.0820
 1133DPPI   GL216192  16.079  11.513   6.557 -0.1467 -0.0878  0.1766
 1133DPPI   C1A16193  16.563  11.621   6.801  0.6219 -0.0230 -0.1034
 1133DPPI   C2A16194  16.571  11.746   7.201 -0.1333  0.1725  0.3602
 1133DPPI   C3A16195  16.656  11.675   7.655  0.0032  0.4154 -0.1328
 1133DPPI   C4A16196  16.734  11.801   8.065  0.1231  0.1639  0.0138
 1133DPPI   C1B16197  16.188  11.400   6.960  0.1674 -0.0866  0.0239
 1133DPPI   C2B16198  16.259  11.396   7.318 -0.1253  0.0171  0.1772
 1133DPPI   C3B16199  16.167  11.428   7.694 -0.0049 -0.1920  0.0350
 1133DPPI   C4B16200  15.929  11.805   7.923 -0.1754 -0.4241 -0.1351
 1134DPPI    C116201  12.991  12.394   5.353 -0.1607 -0.0209 -0.0304
 1134DPPI    C216202  12.726  12.693   5.380 -0.0932  0.0346  0.0196
 1134DPPI    C316203  12.693  12.423   5.088 -0.2702 -0.0225  0.0910
 1134DPPI   PO416204  13.024  12.427   5.701  0.2093 -0.2481 -0.1343
 1134DPPI   GL116205  13.117  12.623   6.128 -0.0489  0.1825  0.2615
 1134DPPI   GL216206  13.228  12.425   6.350 -0.1438 -0.0321 -0.1777
 1134DPPI   C1A16207  12.866  12.824   6.544 -0.2178  0.1795  0.3291
 1134DPPI   C2A16208  12.991  12.942   6.858  0.0878  0.1632  0.1525
 1134DPPI   C3A16209  12.893  12.860   7.244  0.1216 -0.2754 -0.0809
 1134DPPI   C4A16210  12.897  12.835   7.710  0.0641  0.0289 -0.0723
 1134DPPI   C1B16211  13.090  12.377   6.700  0.1279  0.2333  0.0974
 1134DPPI   C2B16212  13.201  12.304   7.127  0.1022 -0.0931 -0.2360
 1134DPPI   C3B16213  13.170  12.390   7.531  0.1235 -0.1699  0.0787
 1134DPPI   C4B16214  13.414  12.608   7.760 -0.0246 -0.2169 -0.0073
 1135DPPI    C116215  13.166   1.492   6.102 -0.0894  0.1322 -0.0153
 1135DPPI    C216216  12.910   1.499   5.795  0.0073 -0.1935 -0.1064
 1135DPPI    C316217  13.293   1.400   5.734  0.0952  0.0286  0.0729
 1135DPPI   PO416218  13.136   1.643   6.237  0.0943 -0.2692  0.0794
 1135DPPI   GL116219  13.175   1.607   6.692  0.2383 -0.0387 -0.0539
 1135DPPI   GL216220  13.397   1.350   6.685 -0.0083 -0.1427  0.0399
 1135DPPI   C1A16221  12.991   1.792   6.968  0.0184 -0.0375 -0.3022
 1135DPPI   C2A16222  12.677   1.886   7.265  0.1748  0.0051 -0.0154
 1135DPPI   C3A16223  12.750   1.817   7.656 -0.1799 -0.2990 -0.0837
 1135DPPI   C4A16224  12.739   1.663   8.153  0.0863 -0.1625  0.2127
 1135DPPI   C1B16225  13.449   1.467   7.201 -0.2385  0.2313  0.1347
 1135DPPI   C2B16226  13.474   1.433   7.592 -0.2170 -0.3056  0.3006
 1135DPPI   C3B16227  13.168   1.503   7.894 -0.0615  0.2733  0.2823
 1135DPPI   C4B16228  13.208   1.631   8.311 -0.2946 -0.2198  0.2638
 1136DPPI    C116229  16.776   5.975   5.532  0.2984  0.0982  0.1462
 1136DPPI    C216230  16.915   6.197   5.229 -0.0594 -0.1148 -0.1826
 1136DPPI    C316231  16.926   5.798   5.206  0.2239 -0.1380  0.2383
 1136DPPI   PO416232  16.782   6.167   5.702 -0.1155  0.0981 -0.1939
 1136DPPI   GL116233  16.750   6.123   6.231  0.1755  0.3345 -0.3590
 1136DPPI   GL216234  16.840   5.916   6.447 -0.1078  0.4007  0.0849
 1136DPPI   C1A16235  17.078   6.401   6.466 -0.1356 -0.1682 -0.3756
 1136DPPI   C2A16236  17.409   6.494   6.729  0.0469 -0.1443 -0.0922
 1136DPPI   C3A16237  17.457   6.456   7.178  0.3489 -0.1830 -0.4312
 1136DPPI   C4A16238  17.333   6.269   7.483 -0.1788 -0.1866  0.3148
 1136DPPI   C1B16239  16.835   6.124   6.861  0.3507 -0.0427 -0.1151
 1136DPPI   C2B16240  16.799   6.068   7.318  0.2471 -0.3099  0.2813
 1136DPPI   C3B16241  16.831   5.935   7.838 -0.1781  0.1429 -0.3472
 1136DPPI   C4B16242  16.876   5.531   7.978  0.2211  0.1359 -0.0335
 1137DPPI    C116243   4.870   7.341   5.496  0.1675 -0.2101 -0.0057
 1137DPPI    C216244   4.964   7.692   5.328  0.0715 -0.2199 -0.0806
 1137DPPI    C316245   4.748   7.423   5.124 -0.1453 -0.1855  0.0992
 1137DPPI   PO416246   4.858   7.398   5.770 -0.0285  0.1924 -0.0164
 1137DPPI   GL116247   4.845   7.637   6.164  0.0399 -0.0493 -0.0646
 1137DPPI   GL216248   5.230   7.682   6.169 -0.0229 -0.3419 -0.2139
 1137DPPI   C1A16249   4.958   7.241   6.455  0.0326 -0.2638 -0.0780
 1137DPPI   C2A16250   5.167   6.974   6.700 -0.0803  0.2103  0.0118
 1137DPPI   C3A16251   5.191   7.038   7.192 -0.0188  0.1122  0.0160
 1137DPPI   C4A16252   5.144   6.931   7.624  0.0532  0.0404  0.1113
 1137DPPI   C1B16253   5.237   7.676   6.625 -0.1800 -0.1164 -0.1056
 1137DPPI   C2B16254   5.221   7.802   7.036  0.0272  0.0011 -0.0256
 1137DPPI   C3B16255   5.357   7.874   7.543 -0.0492  0.2092  0.1647
 1137DPPI   C4B16256   5.585   7.607   7.748  0.0413  0.1873 -0.1482
 1138DPPI    C116257   7.668   6.493   5.809 -0.0096  0.2151  0.2012
 1138DPPI    C216258   7.494   6.815   5.647 -0.1106  0.0662  0.0093
 1138DPPI    C316259   7.863   6.708   5.534 -0.0776  0.1127  0.0721
 1138DPPI   PO416260   7.412   6.440   6.024 -0.2466 -0.0396  0.1284
 1138DPPI   GL116261   7.341   6.469   6.491 -0.1122  0.2479 -0.1364
 1138DPPI   GL216262   7.276   6.136   6.523 -0.2328 -0.0331  0.1530
 1138DPPI   C1A16263   7.292   6.547   6.953 -0.0339  0.0878 -0.0108
 1138DPPI   C2A16264   7.228   6.489   7.389  0.1678 -0.0647  0.1600
 1138DPPI   C3A16265   7.079   6.674   7.742  0.0286 -0.1119  0.3443
 1138DPPI   C4A16266   6.778   6.440   7.995  0.3197  0.0516 -0.0605
 1138DPPI   C1B16267   7.300   5.993   6.930  0.0947  0.0767  0.3237
 1138DPPI   C2B16268   7.321   5.934   7.329  0.3047  0.0061 -0.0683
 1138DPPI   C3B16269   7.403   5.702   7.779 -0.0738  0.0823 -0.0198
 1138DPPI   C4B16270   7.062   5.380   7.899  0.0585  0.0131  0.0801
 1139DPPI    C116271   7.600  11.153   5.414 -0.3847 -0.0389 -0.0578
 1139DPPI    C216272   7.884  11.378   5.583 -0.5163 -0.0811  0.2241
 1139DPPI    C316273   7.772  11.448   5.206 -0.2385  0.0322  0.1605
 1139DPPI   PO416274   7.553  11.009   5.666 -0.2067  0.0792 -0.3252
 1139DPPI   GL116275   7.571  11.105   6.051 -0.0443  0.4044 -0.1579
 1139DPPI   GL216276   7.887  11.116   6.165  0.0917  0.0864 -0.1183
 1139DPPI   C1A16277   7.726  10.650   6.267 -0.0910 -0.1643  0.2222
 1139DPPI   C2A16278   7.631  10.564   6.656  0.2717  0.1094  0.1592
 1139DPPI   C3A16279   7.510  10.510   7.141 -0.0778  0.1697  0.1605
 1139DPPI   C4A16280   7.648  10.647   7.567 -0.0097  0.1481  0.0684
 1139DPPI   C1B16281   7.594  11.056   6.537 -0.0365  0.1710  0.0698
 1139DPPI   C2B16282   7.515  10.988   6.908 -0.2319 -0.0441 -0.0366
 1139DPPI   C3B16283   7.484  11.019   7.254 -0.0583 -0.0821 -0.0891
 1139DPPI   C4B16284   7.224  11.344   7.456 -0.0950  0.0251 -0.0140
 1140DPPI    C116285  12.394   9.559   6.009 -0.0754  0.1541  0.0592
 1140DPPI    C216286  12.613   9.881   5.919  0.0482  0.0861  0.1137
 1140DPPI    C316287  12.374   9.717   5.643  0.0936  0.1389  0.0426
 1140DPPI   PO416288  12.408   9.504   6.242 -0.0366 -0.2558 -0.1983
 1140DPPI   GL116289  12.583   9.344   6.668 -0.2867  0.0207 -0.0067
 1140DPPI   GL216290  12.422   9.035   6.574  0.2291  0.0216  0.0093
 1140DPPI   C1A16291  12.434   9.466   7.144  0.0421  0.3617  0.1424
 1140DPPI   C2A16292  12.439   9.708   7.507 -0.1077  0.0407 -0.0924
 1140DPPI   C3A16293  12.564  10.091   7.849  0.0307  0.2861  0.1048
 1140DPPI   C4A16294  12.553  10.374   8.208  0.0301  0.0477  0.0559
 1140DPPI   C1B16295  12.647   9.044   7.003 -0.0850  0.0284 -0.2013
 1140DPPI   C2B16296  12.496   9.022   7.376 -0.2417 -0.3166  0.1077
 1140DPPI   C3B16297  12.564   9.284   7.738 -0.2825 -0.0896 -0.0905
 1140DPPI   C4B16298  12.525   9.533   8.076 -0.1957 -0.2603 -0.1309
 1141DPPI    C116299   4.631  11.359   5.948 -0.2626  0.0288 -0.1911
 1141DPPI    C216300   4.976  11.159   5.916 -0.1280  0.2435 -0.0976
 1141DPPI    C316301   4.856  11.400   5.620 -0.1891  0.1828 -0.1223
 1141DPPI   PO416302   4.509  11.085   6.131 -0.0518  0.0184 -0.0305
 1141DPPI   GL116303   4.658  10.975   6.521 -0.0981 -0.2144  0.1557
 1141DPPI   GL216304   4.953  10.915   6.444 -0.0712 -0.2092 -0.2882
 1141DPPI   C1A16305   4.593  11.024   6.965 -0.1609  0.0469  0.1678
 1141DPPI   C2A16306   4.548  10.877   7.384 -0.1972  0.1506 -0.0655
 1141DPPI   C3A16307   4.556  10.533   7.666  0.0855 -0.0423 -0.2423
 1141DPPI   C4A16308   4.484  10.409   8.068  0.0900 -0.2578  0.2243
 1141DPPI   C1B16309   5.118  11.020   6.803 -0.0359 -0.2576  0.0283
 1141DPPI   C2B16310   5.001  11.042   7.274 -0.3152 -0.0135  0.0849
 1141DPPI   C3B16311   5.129  10.977   7.658 -0.0934  0.0861  0.0487
 1141DPPI   C4B16312   5.444  10.848   8.045  0.0201 -0.2387 -0.1975
 1142DPPI    C116313  14.040   0.778   5.826 -0.1211  0.0470  0.0041
 1142DPPI    C216314  14.201   0.958   5.507  0.1157  0.1970  0.2038
 1142DPPI    C316315  14.391   0.652   5.681 -0.1085 -0.0131  0.0861
 1142DPPI   PO416316  13.967   0.963   6.103 -0.0214  0.1376  0.1122
 1142DPPI   GL116317  14.123   0.927   6.516  0.1240 -0.0024  0.4090
 1142DPPI   GL216318  13.972   1.276   6.542 -0.2774 -0.0067 -0.0456
 1142DPPI   C1A16319  14.312   0.650   6.895 -0.1910 -0.3662 -0.1576
 1142DPPI   C2A16320  14.574   0.296   7.232 -0.2737 -0.0655 -0.0955
 1142DPPI   C3A16321  14.811   0.164   7.502  0.1223  0.2229 -0.0189
 1142DPPI   C4A16322  15.247  -0.044   7.512 -0.0632 -0.2101  0.1810
 1142DPPI   C1B16323  13.799   1.179   6.951 -0.2541  0.0906 -0.3387
 1142DPPI   C2B16324  13.771   1.030   7.443 -0.1780 -0.1382  0.2699
 1142DPPI   C3B16325  13.816   0.924   7.925 -0.2021  0.0824  0.0670
 1142DPPI   C4B16326  14.010   0.802   8.384  0.1926  0.1789 -0.0297
 1143DPPI    C116327   9.680  15.018   5.737  0.1242  0.1899 -0.0037
 1143DPPI    C216328   9.367  15.039   5.488  0.1539  0.0757 -0.0513
 1143DPPI    C316329   9.683  15.279   5.434  0.1231  0.1119 -0.0712
 1143DPPI   PO416330   9.661  14.975   5.963 -0.0669 -0.0474 -0.1114
 1143DPPI   GL116331   9.612  14.747   6.290 -0.1763  0.0579  0.1950
 1143DPPI   GL216332   9.560  14.344   6.345 -0.1218 -0.1450 -0.4971
 1143DPPI   C1A16333   9.676  14.676   6.771 -0.0836 -0.0981  0.2353
 1143DPPI   C2A16334   9.661  14.735   7.243  0.1017  0.1754 -0.0585
 1143DPPI   C3A16335   9.607  14.779   7.695  0.1544  0.0700  0.0649
 1143DPPI   C4A16336   9.723  14.868   8.077 -0.0872  0.0429 -0.1979
 1143DPPI   C1B16337   9.733  14.205   6.772 -0.2054 -0.3783 -0.1709
 1143DPPI   C2B16338   9.823  14.306   7.211 -0.3875 -0.3590 -0.0020
 1143DPPI   C3B16339   9.809  14.193   7.587 -0.1045 -0.2008 -0.1684
 1143DPPI   C4B16340   9.892  14.079   8.019 -0.3125  0.1958 -0.2029
 1144DPPI    C116341   0.959  16.110   5.667 -0.0036  0.1819 -0.1419
 1144DPPI    C216342   0.691  16.375   5.533 -0.0999  0.0459 -0.2189
 1144DPPI    C316343   1.060  16.369   5.379 -0.0661  0.2020 -0.1458
 1144DPPI   PO416344   1.007  16.132   5.952 -0.0765  0.1154  0.0013
 1144DPPI   GL116345   0.967  16.200   6.427 -0.1553 -0.1889 -0.2565
 1144DPPI   GL216346   1.257  16.420   6.623  0.1221  0.0738 -0.0860
 1144DPPI   C1A16347   0.850  15.957   6.775 -0.1667  0.0657 -0.1204
 1144DPPI   C2A16348   0.894  15.909   7.192  0.0261  0.2845  0.0162
 1144DPPI   C3A16349   0.659  16.029   7.524 -0.1779  0.0394 -0.0278
 1144DPPI   C4A16350   0.687  15.947   7.868  0.0729 -0.0101  0.0164
 1144DPPI   C1B16351   1.131  16.368   7.054  0.0963 -0.0617 -0.5222
 1144DPPI   C2B16352   0.886  16.467   7.447 -0.0797 -0.2153  0.0792
 1144DPPI   C3B16353   0.705  16.477   7.814  0.1589  0.2882 -0.1519
 1144DPPI   C4B16354   0.581  16.683   8.171 -0.2452  0.0310  0.0814
 1145DPPI    C116355   0.727  13.528   6.003 -0.0405  0.2224  0.0909
 1145DPPI    C216356   0.966  13.721   6.258  0.1303  0.1008  0.0253
 1145DPPI    C316357   1.087  13.379   6.092 -0.0340  0.1103 -0.1168
 1145DPPI   PO416358   0.536  13.488   6.011  0.0603 -0.0122 -0.2451
 1145DPPI   GL116359   0.381  13.776   6.332  0.2148  0.1146 -0.1341
 1145DPPI   GL216360   0.121  13.876   6.267 -0.1138 -0.1548 -0.0677
 1145DPPI   C1A16361   0.516  13.691   6.719 -0.0621 -0.0578  0.1395
 1145DPPI   C2A16362   0.432  13.662   7.161  0.1544 -0.3070 -0.0972
 1145DPPI   C3A16363   0.131  13.723   7.499  0.2780 -0.1054 -0.2401
 1145DPPI   C4A16364  -0.043  13.991   7.920  0.1814 -0.3030 -0.0091
 1145DPPI   C1B16365  -0.028  13.766   6.671  0.1623  0.0092  0.1499
 1145DPPI   C2B16366   0.009  13.533   7.042  0.1120 -0.1245  0.0832
 1145DPPI   C3B16367   0.167  13.266   7.352  0.0773  0.1718 -0.0250
 1145DPPI   C4B16368   0.387  12.921   7.446 -0.1261 -0.2017 -0.2286
 1146DPPI    C116369   1.858   5.578   5.430 -0.0371  0.0989  0.1550
 1146DPPI    C216370   1.606   5.424   5.159 -0.0802 -0.0334  0.2692
 1146DPPI    C316371   1.627   5.820   5.211 -0.0351 -0.0041  0.0375
 1146DPPI   PO416372   1.766   5.437   5.616  0.0639  0.0424  0.0293
 1146DPPI   GL116373   1.694   5.617   6.010  0.3763 -0.0936 -0.1060
 1146DPPI   GL216374   1.868   5.306   6.114  0.2740  0.2767  0.2485
 1146DPPI   C1A16375   1.944   5.785   6.327  0.3192 -0.0564  0.1615
 1146DPPI   C2A16376   2.042   5.730   6.838  0.0248  0.0278 -0.2789
 1146DPPI   C3A16377   1.938   5.738   7.316 -0.3538  0.1221  0.1055
 1146DPPI   C4A16378   2.008   5.526   7.627 -0.0217  0.0651 -0.1507
 1146DPPI   C1B16379   1.565   5.468   6.551 -0.1473 -0.2473  0.1830
 1146DPPI   C2B16380   1.593   5.519   6.984 -0.0631  0.3781  0.1447
 1146DPPI   C3B16381   1.556   5.392   7.413 -0.4434 -0.1801  0.2796
 1146DPPI   C4B16382   1.572   5.456   7.880 -0.0699  0.1884  0.0890
 1147PYPI    C116383  14.659  11.394   5.839 -0.0559  0.1773  0.0949
 1147PYPI    C216384  14.699  11.397   5.441 -0.1165  0.2879  0.0892
 1147PYPI    C316385  14.378  11.226   5.610  0.0351  0.0114  0.1034
 1147PYPI   PO416386  14.895  11.334   5.876  0.0508  0.3585 -0.1024
 1147PYPI   GL116387  15.012  11.284   6.256  0.1009 -0.0995 -0.1961
 1147PYPI   GL216388  14.846  11.051   6.454  0.0763 -0.0162  0.1291
 1147PYPI   C1A16389  14.774  11.592   6.507 -0.0993  0.1056  0.2736
 1147PYPI   C2A16390  14.737  12.009   6.784 -0.2252 -0.1338 -0.0183
 1147PYPI   D3A16391  14.841  12.251   7.138  0.1662 -0.2743 -0.0492
 1147PYPI   C4A16392  14.800  12.724   7.007  0.2324 -0.0821  0.1764
 1147PYPI   C1B16393  14.822  11.140   6.845  0.0501  0.0586  0.2519
 1147PYPI   C2B16394  14.861  11.234   7.372  0.0147  0.0948  0.0502
 1147PYPI   C3B16395  14.841  11.070   7.776 -0.1225  0.1935  0.4914
 1147PYPI   C4B16396  15.040  11.223   8.161  0.2315  0.1824 -0.0440
 1148PYPI    C116397   9.294   5.449   5.483  0.0668  0.0368  0.0299
 1148PYPI    C216398   9.401   5.229   5.166  0.1470 -0.0895  0.1438
 1148PYPI    C316399   9.085   5.472   5.143  0.2251 -0.0065 -0.0717
 1148PYPI   PO416400   9.497   5.583   5.618 -0.2672 -0.0763  0.0389
 1148PYPI   GL116401   9.545   5.486   5.933 -0.1614 -0.0480 -0.0197
 1148PYPI   GL216402   9.509   5.715   6.135 -0.0485  0.2056 -0.1152
 1148PYPI   C1A16403   9.814   5.302   6.238 -0.0996 -0.0925  0.1124
 1148PYPI   C2A16404  10.010   5.100   6.518 -0.0722 -0.2939  0.2215
 1148PYPI   D3A16405  10.254   4.887   6.842  0.1063  0.0885 -0.0328
 1148PYPI   C4A16406  10.178   4.496   6.889 -0.0700  0.1745 -0.0694
 1148PYPI   C1B16407   9.363   5.470   6.563  0.4438 -0.0001  0.2186
 1148PYPI   C2B16408   9.614   5.133   6.822  0.1347 -0.0036 -0.0338
 1148PYPI   C3B16409   9.821   4.809   7.056  0.4240  0.1140 -0.3010
 1148PYPI   C4B16410  10.079   4.844   7.367  0.1697  0.3121 -0.1312
 1149PYPI    C116411  12.578   6.784   5.790  0.1774 -0.1562 -0.0521
 1149PYPI    C216412  12.784   6.965   5.499 -0.0005  0.0502 -0.0518
 1149PYPI    C316413  12.447   6.767   5.413  0.3544 -0.5554 -0.1006
 1149PYPI   PO416414  12.749   6.865   5.957 -0.1535  0.0876 -0.1194
 1149PYPI   GL116415  12.963   6.882   6.453  0.0728  0.0727  0.0656
 1149PYPI   GL216416  12.811   6.569   6.557  0.0391  0.0601 -0.0813
 1149PYPI   C1A16417  12.991   6.869   6.909 -0.0964  0.1774  0.1432
 1149PYPI   C2A16418  13.093   6.610   7.348  0.0153  0.2594  0.1551
 1149PYPI   D3A16419  13.010   6.456   7.740 -0.0036 -0.1766 -0.1907
 1149PYPI   C4A16420  12.985   6.612   8.123 -0.1786 -0.1546 -0.0402
 1149PYPI   C1B16421  12.818   6.265   6.859 -0.0730  0.2573  0.1464
 1149PYPI   C2B16422  12.944   6.126   7.292 -0.1418 -0.1520 -0.2928
 1149PYPI   C3B16423  12.790   6.027   7.713 -0.0340 -0.0978  0.0963
 1149PYPI   C4B16424  12.598   6.267   8.119 -0.1611 -0.3135  0.0694
 1150PYPI    C116425  10.844  16.767   5.596 -0.1287 -0.0967 -0.0548
 1150PYPI    C216426  10.588  16.597   5.340  0.0173  0.0278 -0.2870
 1150PYPI    C316427  10.853  16.867   5.208  0.0751  0.1152  0.0020
 1150PYPI   PO416428  10.727  16.782   5.861 -0.0779  0.0258  0.2517
 1150PYPI   GL116429  10.886  17.038   6.195  0.1468 -0.3462 -0.3892
 1150PYPI   GL216430  10.515  16.869   6.315 -0.2673 -0.3082  0.0499
 1150PYPI   C1A16431  11.069  16.923   6.667 -0.2827  0.0060 -0.0825
 1150PYPI   C2A16432  10.944  17.039   7.093 -0.0359 -0.0125 -0.1916
 1150PYPI   D3A16433  10.947  16.865   7.485 -0.0139  0.4786 -0.1864
 1150PYPI   C4A16434  10.974  17.061   7.893  0.1779  0.1870  0.0758
 1150PYPI   C1B16435  10.526  17.022   6.732  0.0548 -0.3537  0.0712
 1150PYPI   C2B16436  10.522  17.181   7.251  0.0041 -0.1694 -0.1194
 1150PYPI   C3B16437  10.308  17.262   7.590 -0.1609  0.0782  0.0043
 1150PYPI   C4B16438  10.052  17.326   7.984 -0.0347 -0.1771 -0.2183
 1151PYPI    C116439  12.309   2.869   5.900 -0.1491  0.0766 -0.1642
 1151PYPI    C216440  12.409   2.485   5.949  0.0717  0.1657  0.1084
 1151PYPI    C316441  12.200   2.597   5.628  0.1235 -0.1598 -0.0432
 1151PYPI   PO416442  12.243   2.935   6.099 -0.1677  0.3984 -0.1947
 1151PYPI   GL116443  12.303   2.793   6.445 -0.0082 -0.0076  0.0277
 1151PYPI   GL216444  12.134   2.473   6.457 -0.0062  0.0874  0.0011
 1151PYPI   C1A16445  12.222   2.804   6.921 -0.5324  0.0692  0.1637
 1151PYPI   C2A16446  12.102   2.789   7.343  0.0040 -0.1166  0.3064
 1151PYPI   D3A16447  12.193   2.928   7.747  0.0673  0.0655  0.0629
 1151PYPI   C4A16448  11.953   3.103   8.088 -0.4193 -0.1443 -0.2368
 1151PYPI   C1B16449  11.852   2.551   6.895  0.0166  0.2144 -0.0630
 1151PYPI   C2B16450  11.661   2.408   7.352 -0.0584  0.1326 -0.0335
 1151PYPI   C3B16451  11.724   2.694   7.789  0.1599 -0.0371  0.1152
 1151PYPI   C4B16452  11.844   2.621   8.107 -0.1206 -0.0491 -0.0709
 1152PYPI    C116453  14.160   7.104   5.490 -0.0951  0.0305 -0.0393
 1152PYPI    C216454  14.216   6.815   5.219 -0.0539 -0.0917  0.0981
 1152PYPI    C316455  14.097   6.722   5.589 -0.5183  0.1071  0.0060
 1152PYPI   PO416456  14.480   7.230   5.588 -0.1395 -0.1144  0.1915
 1152PYPI   GL116457  14.489   7.399   5.887 -0.2517  0.2944  0.2438
 1152PYPI   GL216458  14.731   7.426   6.025  0.0953  0.2427  0.4332
 1152PYPI   C1A16459  14.217   7.144   6.206 -0.0127  0.1663 -0.1484
 1152PYPI   C2A16460  14.153   7.035   6.642  0.0699 -0.0543 -0.0933
 1152PYPI   D3A16461  13.911   7.006   6.925 -0.0230 -0.0584  0.3688
 1152PYPI   C4A16462  13.665   7.347   7.197 -0.0540  0.1662 -0.3349
 1152PYPI   C1B16463  14.595   7.260   6.495  0.2582  0.0209  0.3185
 1152PYPI   C2B16464  14.569   7.214   6.929 -0.1214 -0.1465  0.1793
 1152PYPI   C3B16465  14.291   7.167   7.217  0.2522 -0.0099  0.0362
 1152PYPI   C4B16466  13.965   6.969   7.393  0.0652 -0.0351  0.2397
 1153PYPI    C116467  17.471  15.746   5.590  0.2124 -0.1104  0.1463
 1153PYPI    C216468  17.836  15.880   5.496  0.1382  0.0793  0.1236
 1153PYPI    C316469  17.563  15.824   5.209  0.0148  0.3479  0.1850
 1153PYPI   PO416470  17.427  15.866   5.807  0.3553  0.0743 -0.1401
 1153PYPI   GL116471  17.523  16.104   6.092 -0.4075  0.0362 -0.1181
 1153PYPI   GL216472  17.447  15.966   6.371 -0.0334 -0.1766 -0.0650
 1153PYPI   C1A16473  17.490  16.460   6.420  0.1999 -0.1595 -0.2018
 1153PYPI   C2A16474  17.366  16.454   6.810  0.2640 -0.2506 -0.2312
 1153PYPI   D3A16475  17.366  16.703   7.036  0.1962  0.1515 -0.1474
 1153PYPI   C4A16476  17.333  16.648   7.412 -0.1018  0.0062 -0.0069
 1153PYPI   C1B16477  17.167  15.988   6.763  0.0090 -0.0537  0.0895
 1153PYPI   C2B16478  17.006  16.107   7.127 -0.2171 -0.0943 -0.1442
 1153PYPI   C3B16479  17.263  16.161   7.488  0.1601  0.0957 -0.0568
 1153PYPI   C4B16480  17.454  15.997   7.932  0.1287  0.3471 -0.3254
 1154PYPI    C116481  15.214  13.032   5.804 -0.4190 -0.0219 -0.0792
 1154PYPI    C216482  15.217  13.396   5.638  0.3555 -0.0033 -0.0644
 1154PYPI    C316483  15.303  13.075   5.417  0.0035 -0.1459 -0.0014
 1154PYPI   PO416484  15.309  13.003   6.079  0.3475 -0.3099 -0.0627
 1154PYPI   GL116485  15.174  12.890   6.465 -0.0220  0.0011  0.1706
 1154PYPI   GL216486  15.375  13.104   6.544 -0.0842 -0.2457  0.1722
 1154PYPI   C1A16487  15.261  12.587   6.810 -0.1123 -0.1047 -0.1829
 1154PYPI   C2A16488  15.390  12.537   7.241 -0.1206  0.0323 -0.0828
 1154PYPI   D3A16489  15.285  12.579   7.747  0.2095  0.1354  0.0121
 1154PYPI   C4A16490  15.462  12.418   8.108 -0.1334 -0.2168 -0.0394
 1154PYPI   C1B16491  15.241  13.026   6.992 -0.2583  0.1560  0.0595
 1154PYPI   C2B16492  15.106  12.979   7.381 -0.2538  0.0020  0.3393
 1154PYPI   C3B16493  15.191  13.146   7.730 -0.1526 -0.3568  0.1991
 1154PYPI   C4B16494  15.086  13.284   8.112 -0.0650 -0.3703  0.1428
 1155PYPI    C116495   5.118   7.907   5.753  0.2666  0.2910 -0.0055
 1155PYPI    C216496   5.513   7.870   5.805  0.2347  0.0135  0.0547
 1155PYPI    C316497   5.295   7.554   5.693  0.0431  0.1891 -0.0765
 1155PYPI   PO416498   5.014   8.048   5.972  0.3028 -0.0980  0.1042
 1155PYPI   GL116499   5.111   8.150   6.399  0.0546  0.0953  0.1504
 1155PYPI   GL216500   5.242   8.494   6.523  0.0951  0.2140  0.2852
 1155PYPI   C1A16501   4.918   8.095   6.793  0.1591 -0.2654  0.0299
 1155PYPI   C2A16502   4.905   8.120   7.237  0.1915  0.3019 -0.1683
 1155PYPI   D3A16503   5.032   8.149   7.736 -0.0865  0.1315 -0.2225
 1155PYPI   C4A16504   5.012   8.290   8.077 -0.0181 -0.4473 -0.1003
 1155PYPI   C1B16505   5.342   8.393   6.913  0.1807  0.1423 -0.0303
 1155PYPI   C2B16506   5.371   8.365   7.382 -0.1080 -0.1464 -0.0519
 1155PYPI   C3B16507   5.466   8.347   7.835 -0.2962  0.2263  0.1989
 1155PYPI   C4B16508   5.771   8.464   8.096  0.0446 -0.1625  0.0593
 1156PYPI    C116509  11.316  17.756   5.615  0.0999 -0.0993  0.0131
 1156PYPI    C216510  10.929  17.690   5.537  0.0799 -0.0100  0.0356
 1156PYPI    C316511  11.092  18.045   5.453  0.1766 -0.0738 -0.0477
 1156PYPI   PO416512  11.358  17.724   5.811 -0.0211 -0.1355  0.0985
 1156PYPI   GL116513  11.372  17.699   6.199  0.1464  0.0260  0.1297
 1156PYPI   GL216514  11.570  17.813   6.405 -0.3596 -0.0833  0.3455
 1156PYPI   C1A16515  10.994  17.921   6.545 -0.1607  0.0127  0.1586
 1156PYPI   C2A16516  10.738  18.023   6.947 -0.1716 -0.1224  0.0989
 1156PYPI   D3A16517  10.898  18.054   7.367  0.1849 -0.1458  0.1568
 1156PYPI   C4A16518  10.887  18.060   7.837  0.0744  0.2672 -0.0478
 1156PYPI   C1B16519  11.425  17.718   6.715 -0.1089  0.0044  0.1629
 1156PYPI   C2B16520  11.365  17.737   7.120  0.1433  0.1206  0.2994
 1156PYPI   C3B16521  11.159  17.725   7.569 -0.0806  0.0523  0.3587
 1156PYPI   C4B16522  11.019  17.631   8.037  0.0544 -0.1926 -0.0220
 1157PYPI    C116523  12.030   2.161   6.014  0.0086 -0.1775 -0.1705
 1157PYPI    C216524  11.856   2.253   5.665  0.2916 -0.0670 -0.2855
 1157PYPI    C316525  12.172   2.007   5.673  0.2402 -0.1287 -0.0976
 1157PYPI   PO416526  11.895   2.085   6.163 -0.0586  0.0378  0.4184
 1157PYPI   GL116527  11.657   1.962   6.421 -0.0345 -0.0878  0.0659
 1157PYPI   GL216528  11.636   2.338   6.499 -0.0411 -0.0709  0.2430
 1157PYPI   C1A16529  11.668   2.013   6.883 -0.2851 -0.0713 -0.3280
 1157PYPI   C2A16530  11.466   1.868   7.225 -0.0019  0.3491  0.0243
 1157PYPI   D3A16531  11.517   1.587   7.567 -0.0463 -0.1616 -0.2718
 1157PYPI   C4A16532  11.390   1.770   7.908 -0.1171 -0.0204 -0.0932
 1157PYPI   C1B16533  11.389   2.364   6.686 -0.1084 -0.0359  0.1428
 1157PYPI   C2B16534  10.970   2.489   6.873 -0.2033 -0.1387  0.2927
 1157PYPI   C3B16535  10.778   2.587   7.334 -0.0970  0.2049  0.0606
 1157PYPI   C4B16536  10.712   2.563   7.743  0.2212  0.1443  0.2132
 1158PYPI    C116537  14.802   3.348   6.588  0.1325  0.0406 -0.3536
 1158PYPI    C216538  15.188   3.454   6.581  0.1007  0.1971  0.0040
 1158PYPI    C316539  14.938   3.588   6.299  0.2575  0.2928 -0.0909
 1158PYPI   PO416540  14.864   3.079   6.711  0.2202 -0.2311 -0.0785
 1158PYPI   GL116541  14.856   2.879   7.081  0.1769  0.1066  0.2006
 1158PYPI   GL216542  14.712   2.634   7.023 -0.0380  0.1454  0.3634
 1158PYPI   C1A16543  14.863   2.937   7.512  0.2576 -0.0795 -0.0136
 1158PYPI   C2A16544  14.857   2.887   7.902 -0.0974 -0.2558  0.0429
 1158PYPI   D3A16545  14.702   2.758   8.264 -0.1354  0.2577 -0.0090
 1158PYPI   C4A16546  14.733   2.441   8.552  0.2511  0.2902 -0.1790
 1158PYPI   C1B16547  14.571   2.477   7.416 -0.2174 -0.1523 -0.0195
 1158PYPI   C2B16548  14.561   2.463   7.858  0.0958 -0.0616 -0.2142
 1158PYPI   C3B16549  14.299   2.233   8.217  0.2483  0.0095  0.5118
 1158PYPI   C4B16550  14.276   2.195   8.693 -0.1361 -0.1616  0.0361
 1159PYPI    C116551   6.561  11.434   5.700  0.0070 -0.5858  0.1313
 1159PYPI    C216552   6.913  11.607   5.774 -0.1096 -0.3190  0.0768
 1159PYPI    C316553   6.845  11.438   5.419 -0.2273  0.1256 -0.1193
 1159PYPI   PO416554   6.375  11.633   5.880  0.2355 -0.0492 -0.0771
 1159PYPI   GL116555   6.150  11.582   6.271 -0.1017 -0.2009 -0.2688
 1159PYPI   GL216556   6.275  11.815   6.366 -0.2694  0.2454  0.0850
 1159PYPI   C1A16557   5.925  11.440   6.527 -0.2412  0.2709 -0.1460
 1159PYPI   C2A16558   5.842  11.358   6.890 -0.0506  0.2690  0.0405
 1159PYPI   D3A16559   5.693  11.097   7.251 -0.2659 -0.3687 -0.1487
 1159PYPI   C4A16560   5.393  10.819   7.195 -0.0128 -0.1137  0.2073
 1159PYPI   C1B16561   5.907  11.885   6.706 -0.0784  0.0969  0.1269
 1159PYPI   C2B16562   5.855  11.797   7.199  0.0102  0.0817  0.2846
 1159PYPI   C3B16563   5.790  11.559   7.374 -0.2834  0.2032 -0.2179
 1159PYPI   C4B16564   5.741  11.139   7.727  0.1944  0.2455 -0.3968
 1160PYPI    C116565   6.823   4.902   4.966  0.0591 -0.0930  0.1087
 1160PYPI    C216566   6.814   5.274   4.819  0.0070 -0.1641 -0.0714
 1160PYPI    C316567   6.694   4.967   4.593 -0.1594 -0.2663  0.1518
 1160PYPI   PO416568   6.681   4.949   5.209  0.0770 -0.3097 -0.1161
 1160PYPI   GL116569   6.522   4.968   5.657  0.3859 -0.1920 -0.3859
 1160PYPI   GL216570   6.449   5.326   5.771 -0.1445  0.1575 -0.0982
 1160PYPI   C1A16571   6.180   5.012   6.041 -0.1363  0.0649 -0.1359
 1160PYPI   C2A16572   5.899   4.699   6.140  0.2146  0.0593 -0.0267
 1160PYPI   D3A16573   5.820   4.511   6.519  0.3289 -0.3889  0.1788
 1160PYPI   C4A16574   5.908   4.716   6.878  0.1050 -0.1235 -0.0645
 1160PYPI   C1B16575   6.542   5.527   6.051 -0.0946  0.1432 -0.1059
 1160PYPI   C2B16576   6.342   5.881   6.295 -0.2085  0.2157  0.1689
 1160PYPI   C3B16577   6.146   5.912   6.755  0.0004 -0.0503 -0.1604
 1160PYPI   C4B16578   5.796   5.825   7.008 -0.0744 -0.2580 -0.0042
 1161PYPI    C116579   5.983  14.225   5.848  0.1821  0.1315  0.0580
 1161PYPI    C216580   5.907  14.481   5.551 -0.0425  0.0280  0.0243
 1161PYPI    C316581   5.874  14.088   5.488  0.2007 -0.0066  0.1044
 1161PYPI   PO416582   6.231  14.355   6.047  0.6255 -0.1489  0.2052
 1161PYPI   GL116583   6.440  14.417   6.479 -0.1057 -0.2009  0.1112
 1161PYPI   GL216584   6.477  14.102   6.517 -0.0552 -0.1023  0.2376
 1161PYPI   C1A16585   6.134  14.372   6.785  0.1170  0.1704  0.0611
 1161PYPI   C2A16586   5.812  14.564   7.057  0.0788  0.2701 -0.1385
 1161PYPI   D3A16587   5.798  14.653   7.527  0.1422  0.0740 -0.1753
 1161PYPI   C4A16588   5.707  15.051   7.617 -0.0368  0.0481 -0.0297
 1161PYPI   C1B16589   6.503  14.125   6.899 -0.0183  0.3717  0.0263
 1161PYPI   C2B16590   6.500  14.187   7.358 -0.2423  0.0225 -0.0382
 1161PYPI   C3B16591   6.624  14.287   7.721  0.0110 -0.0063  0.5514
 1161PYPI   C4B16592   6.511  14.390   8.154 -0.1435 -0.0235 -0.0407
 1162PYPI    C116593   1.053   1.075   6.084  0.2087  0.0748 -0.0988
 1162PYPI    C216594   0.951   0.704   5.976  0.1374  0.0441  0.0715
 1162PYPI    C316595   0.889   1.009   5.725 -0.0797 -0.0181  0.0475
 1162PYPI   PO416596   1.293   1.002   6.241  0.0878  0.2255 -0.1592
 1162PYPI   GL116597   1.088   0.756   6.587 -0.2029  0.1617 -0.0167
 1162PYPI   GL216598   0.724   0.763   6.424 -0.0649  0.2238  0.0807
 1162PYPI   C1A16599   0.898   0.945   6.976 -0.1757 -0.0003 -0.0924
 1162PYPI   C2A16600   1.144   1.315   7.247 -0.3060 -0.2040  0.1920
 1162PYPI   D3A16601   1.483   1.564   7.554  0.0362 -0.2281  0.4239
 1162PYPI   C4A16602   1.637   1.626   7.956 -0.1575  0.2294  0.0691
 1162PYPI   C1B16603   0.490   0.877   6.660 -0.0833 -0.4580  0.2283
 1162PYPI   C2B16604   0.390   1.137   7.018 -0.2827 -0.2382  0.1024
 1162PYPI   C3B16605   0.196   1.151   7.383  0.0981  0.3794 -0.0995
 1162PYPI   C4B16606   0.077   1.121   7.906  0.1355  0.0980  0.1063
 1163PYPI    C116607   6.004  12.835   6.271 -0.1886  0.1517 -0.1689
 1163PYPI    C216608   6.373  12.819   6.424 -0.2829 -0.0660  0.0420
 1163PYPI    C316609   6.322  12.848   6.029 -0.0406 -0.0310  0.0116
 1163PYPI   PO416610   5.926  13.051   6.457 -0.0310 -0.0012 -0.1144
 1163PYPI   GL116611   5.686  13.145   6.779  0.1289  0.0918 -0.0049
 1163PYPI   GL216612   5.589  12.825   6.891  0.2168  0.0398  0.0368
 1163PYPI   C1A16613   5.717  13.078   7.307 -0.0817 -0.0548 -0.2874
 1163PYPI   C2A16614   5.730  13.190   7.803 -0.1950  0.2522 -0.1902
 1163PYPI   D3A16615   5.784  13.289   8.212 -0.2450 -0.3178  0.3312
 1163PYPI   C4A16616   6.058  13.221   8.467 -0.0676 -0.4253 -0.0008
 1163PYPI   C1B16617   5.624  12.615   7.277  0.0196  0.0463  0.0421
 1163PYPI   C2B16618   5.640  12.591   7.781 -0.1907  0.0337  0.3774
 1163PYPI   C3B16619   5.568  12.463   8.167  0.1943 -0.1531  0.0920
 1163PYPI   C4B16620   5.249  12.142   8.287 -0.0996 -0.0575 -0.0799
 1164PYPI    C116621   4.590  13.810   6.086  0.1588  0.1471 -0.1520
 1164PYPI    C216622   4.204  13.907   6.041  0.0375 -0.1545  0.1857
 1164PYPI    C316623   4.393  13.699   5.756 -0.0102  0.1021 -0.0374
 1164PYPI   PO416624   4.584  13.698   6.295 -0.0875 -0.2025  0.2207
 1164PYPI   GL116625   4.391  13.536   6.571 -0.3823 -0.1316 -0.3493
 1164PYPI   GL216626   4.123  13.820   6.552 -0.1174 -0.1014 -0.0145
 1164PYPI   C1A16627   4.614  13.282   6.895 -0.1301 -0.0139 -0.0099
 1164PYPI   C2A16628   4.874  13.381   7.215  0.0471  0.0313  0.0224
 1164PYPI   D3A16629   5.177  13.553   7.513 -0.0423  0.2380  0.4049
 1164PYPI   C4A16630   5.242  13.933   7.730  0.0176  0.1370  0.3720
 1164PYPI   C1B16631   4.468  13.922   6.840  0.1271 -0.1986 -0.0823
 1164PYPI   C2B16632   4.776  13.920   7.198 -0.0551 -0.4666 -0.0804
 1164PYPI   C3B16633   4.767  13.810   7.600  0.0627  0.2397 -0.0455
 1164PYPI   C4B16634   4.743  13.961   7.995  0.0050 -0.1536 -0.0898
 1165PYPI    C116635  14.428   3.068   6.371  0.0944  0.0281 -0.0052
 1165PYPI    C216636  14.487   2.863   6.033  0.3057 -0.2120  0.1726
 1165PYPI    C316637  14.726   3.170   6.125  0.0252  0.0858 -0.0655
 1165PYPI   PO416638  14.219   3.106   6.359 -0.1607 -0.1340  0.0499
 1165PYPI   GL116639  14.062   3.361   6.738 -0.0864 -0.0446 -0.0178
 1165PYPI   GL216640  13.865   3.158   6.667  0.0340  0.2416 -0.0516
 1165PYPI   C1A16641  14.024   3.370   7.129  0.1184  0.1636  0.1357
 1165PYPI   C2A16642  14.078   3.538   7.487 -0.0070 -0.2037  0.0216
 1165PYPI   D3A16643  13.955   3.714   7.925  0.0581 -0.1950  0.1485
 1165PYPI   C4A16644  13.772   3.730   8.328 -0.0158 -0.2243  0.2380
 1165PYPI   C1B16645  13.570   3.258   6.904 -0.2240 -0.2252 -0.2059
 1165PYPI   C2B16646  13.552   3.298   7.331  0.1107 -0.0400  0.2222
 1165PYPI   C3B16647  13.756   3.306   7.701  0.0429 -0.2073 -0.3764
 1165PYPI   C4B16648  13.891   3.101   8.069  0.1397  0.2329 -0.1666
 1166PYPI    C116649  12.778   1.999   6.148  0.1324 -0.0207  0.1202
 1166PYPI    C216650  12.895   1.943   6.526  0.2146 -0.0908  0.0847
 1166PYPI    C316651  13.122   2.158   6.277  0.2468 -0.1903  0.0276
 1166PYPI   PO416652  12.493   2.005   6.154  0.1649 -0.0676  0.3730
 1166PYPI   GL116653  12.303   2.014   6.615  0.0197 -0.0623  0.0228
 1166PYPI   GL216654  12.412   1.732   6.639 -0.3393 -0.0336  0.3497
 1166PYPI   C1A16655  12.228   2.224   6.916 -0.0911 -0.0874  0.0444
 1166PYPI   C2A16656  12.305   2.308   7.313 -0.0246  0.4059 -0.2196
 1166PYPI   D3A16657  12.300   2.450   7.665  0.1086 -0.0988  0.3650
 1166PYPI   C4A16658  12.387   2.050   7.912  0.0271 -0.0774 -0.2360
 1166PYPI   C1B16659  12.541   1.561   6.977 -0.3130 -0.3819  0.0691
 1166PYPI   C2B16660  12.374   1.361   7.384 -0.2367 -0.0322 -0.1009
 1166PYPI   C3B16661  12.349   1.579   7.864  0.0058 -0.2569  0.0566
 1166PYPI   C4B16662  11.991   1.855   8.171 -0.5218 -0.0403 -0.3270
 1167PYPI    C116663   1.591  10.200   5.722  0.1638 -0.0190  0.3275
 1167PYPI    C216664   1.739   9.897   5.507  0.1561 -0.0682  0.3911
 1167PYPI    C316665   1.399  10.076   5.394  0.1638 -0.0795  0.3503
 1167PYPI   PO416666   1.478  10.158   6.001 -0.1404 -0.0094  0.0233
 1167PYPI   GL116667   1.274  10.269   6.384 -0.0205  0.0526 -0.0399
 1167PYPI   GL216668   1.067  10.146   6.533 -0.3424 -0.2252  0.1558
 1167PYPI   C1A16669   1.596  10.386   6.617  0.1357 -0.2105 -0.2335
 1167PYPI   C2A16670   1.759  10.403   7.031  0.0152  0.2541  0.2370
 1167PYPI   D3A16671   2.077  10.427   7.251 -0.0795  0.2191  0.0913
 1167PYPI   C4A16672   1.883  10.443   7.516  0.0975  0.2673 -0.1699
 1167PYPI   C1B16673   1.226  10.153   6.920  0.2884 -0.1712  0.0025
 1167PYPI   C2B16674   1.337  10.256   7.304  0.1827 -0.0196  0.0315
 1167PYPI   C3B16675   1.437  10.334   7.756  0.0640  0.2570  0.4953
 1167PYPI   C4B16676   1.405  10.569   8.150  0.0743  0.0727 -0.2310
 1168PYPI    C116677   7.720   2.660   6.141 -0.0618 -0.1003  0.1403
 1168PYPI    C216678   7.606   2.276   6.144  0.1484 -0.1731 -0.3117
 1168PYPI    C316679   7.972   2.377   6.270 -0.0229 -0.0724  0.1255
 1168PYPI   PO416680   7.479   2.793   6.287 -0.0085 -0.0441 -0.0076
 1168PYPI   GL116681   7.324   2.893   6.621 -0.0158  0.1744  0.2612
 1168PYPI   GL216682   7.112   2.689   6.683  0.2956  0.1131  0.2310
 1168PYPI   C1A16683   7.343   3.111   6.980  0.0546  0.2223  0.1630
 1168PYPI   C2A16684   7.455   3.183   7.402  0.2066 -0.0903  0.0546
 1168PYPI   D3A16685   7.496   3.271   7.814  0.1191 -0.3967 -0.1851
 1168PYPI   C4A16686   7.301   3.035   8.168 -0.0355 -0.1427  0.0071
 1168PYPI   C1B16687   7.059   2.706   7.135 -0.3021 -0.2652  0.0764
 1168PYPI   C2B16688   7.043   2.926   7.556 -0.0106 -0.1404 -0.2823
 1168PYPI   C3B16689   6.817   2.840   7.933 -0.1070 -0.0713  0.0203
 1168PYPI   C4B16690   6.452   3.096   8.059  0.0311  0.1880 -0.0604
 1169PYPI    C116691   5.224   5.933   5.327  0.1447 -0.0955  0.2287
 1169PYPI    C216692   5.477   5.657   5.467  0.2413 -0.0925  0.0615
 1169PYPI    C316693   5.379   5.661   5.079  0.0665 -0.0286  0.1054
 1169PYPI   PO416694   5.007   5.904   5.564 -0.1651  0.1389 -0.3397
 1169PYPI   GL116695   5.095   5.673   6.004 -0.0390  0.3576 -0.1050
 1169PYPI   GL216696   5.389   5.500   5.914 -0.0981 -0.1568  0.1158
 1169PYPI   C1A16697   5.133   5.541   6.486  0.2395  0.0270  0.2420
 1169PYPI   C2A16698   5.183   5.519   6.933 -0.1523 -0.0101  0.0572
 1169PYPI   D3A16699   5.270   5.346   7.366 -0.0969  0.1521  0.0933
 1169PYPI   C4A16700   5.334   5.343   7.764  0.1251  0.0604  0.0016
 1169PYPI   C1B16701   5.596   5.679   6.253  0.0498  0.3497 -0.1608
 1169PYPI   C2B16702   5.696   5.621   6.539  0.1778  0.1929 -0.0494
 1169PYPI   C3B16703   5.653   5.299   6.983 -0.1076 -0.0104 -0.1476
 1169PYPI   C4B16704   5.852   5.195   7.388  0.3040  0.0033  0.1781
 1170PYPI    C116705  16.236   7.134   5.745 -0.1217 -0.0988 -0.0245
 1170PYPI    C216706  15.928   6.998   5.529 -0.0378  0.0482 -0.2403
 1170PYPI    C316707  16.251   6.768   5.583 -0.0954 -0.0228 -0.1953
 1170PYPI   PO416708  16.102   7.224   5.971  0.0914 -0.0823  0.1747
 1170PYPI   GL116709  16.093   7.170   6.442  0.0795 -0.2285 -0.1154
 1170PYPI   GL216710  16.261   7.422   6.415 -0.0762 -0.0575 -0.0209
 1170PYPI   C1A16711  16.313   6.969   6.726  0.0513  0.4021 -0.2542
 1170PYPI   C2A16712  16.198   7.021   7.142  0.0134 -0.3367 -0.0416
 1170PYPI   D3A16713  16.187   7.057   7.580  0.0901 -0.0507 -0.0415
 1170PYPI   C4A16714  16.482   6.829   7.782 -0.2236  0.3584  0.2379
 1170PYPI   C1B16715  16.142   7.415   6.865  0.1711 -0.1744  0.2761
 1170PYPI   C2B16716  15.958   7.501   7.236 -0.1070 -0.1790 -0.2106
 1170PYPI   C3B16717  15.779   7.415   7.668 -0.1189 -0.0186 -0.0883
 1170PYPI   C4B16718  15.644   7.198   8.048 -0.1334  0.0313 -0.0705
 1171PYPI    C116719   4.610  16.076   6.006 -0.1734  0.1871 -0.0026
 1171PYPI    C216720   4.726  16.360   5.749 -0.0603 -0.1516 -0.3352
 1171PYPI    C316721   4.936  16.020   5.781 -0.1142 -0.1456  0.1593
 1171PYPI   PO416722   4.604  16.165   6.262  0.0294 -0.2583 -0.0342
 1171PYPI   GL116723   4.794  16.335   6.683 -0.1153 -0.1121 -0.0127
 1171PYPI   GL216724   4.941  16.649   6.627 -0.0689  0.0713 -0.1442
 1171PYPI   C1A16725   5.111  16.314   7.015  0.0587  0.1599  0.0193
 1171PYPI   C2A16726   5.223  16.288   7.445  0.0290 -0.1564 -0.0085
 1171PYPI   D3A16727   5.018  16.280   7.902 -0.3764 -0.0490 -0.2275
 1171PYPI   C4A16728   5.078  16.088   8.255 -0.0560 -0.0124 -0.0590
 1171PYPI   C1B16729   5.120  16.872   6.935  0.2450  0.1195  0.1130
 1171PYPI   C2B16730   5.020  16.825   7.303  0.2040  0.0180 -0.1470
 1171PYPI   C3B16731   5.220  16.792   7.712  0.1051  0.0173 -0.2722
 1171PYPI   C4B16732   5.395  16.639   8.075 -0.2913 -0.0081 -0.2549
 1172PYPI    C116733  12.693   1.059   6.079  0.0028  0.1879 -0.0055
 1172PYPI    C216734  13.053   1.034   6.251 -0.1143 -0.1078  0.2052
 1172PYPI    C316735  12.998   0.894   5.880 -0.0140 -0.0651  0.1739
 1172PYPI   PO416736  12.570   0.943   6.337 -0.0650 -0.3139 -0.1006
 1172PYPI   GL116737  12.697   0.691   6.566 -0.2180  0.0584 -0.0801
 1172PYPI   GL216738  12.385   0.616   6.640  0.1297  0.0562 -0.0760
 1172PYPI   C1A16739  12.913   0.648   6.980 -0.2368 -0.2119  0.0526
 1172PYPI   C2A16740  12.899   0.579   7.455  0.0057  0.0050 -0.1210
 1172PYPI   D3A16741  12.830   0.770   7.803 -0.1842 -0.1294  0.0190
 1172PYPI   C4A16742  13.039   0.513   8.151  0.1184 -0.0353  0.2064
 1172PYPI   C1B16743  12.167   0.530   7.123  0.0789  0.1852  0.0923
 1172PYPI   C2B16744  12.016   0.485   7.509 -0.0394 -0.0692 -0.0786
 1172PYPI   C3B16745  11.851   0.318   7.959 -0.0846 -0.0614  0.0368
 1172PYPI   C4B16746  11.815   0.119   8.381 -0.1224  0.3963 -0.0742
 1173PYPI    C116747  15.614  17.482   5.967 -0.1993 -0.1971  0.1838
 1173PYPI    C216748  15.878  17.274   6.184  0.1958 -0.0807 -0.1723
 1173PYPI    C316749  15.823  17.186   5.798 -0.1351  0.0367 -0.1554
 1173PYPI   PO416750  15.381  17.495   6.107 -0.1890  0.1488 -0.0613
 1173PYPI   GL116751  14.884  17.310   6.271  0.0631  0.2822  0.3621
 1173PYPI   GL216752  15.092  17.151   6.337 -0.0344  0.0411  0.1931
 1173PYPI   C1A16753  14.914  17.678   6.543  0.1178  0.0988 -0.2485
 1173PYPI   C2A16754  15.162  17.977   6.555  0.1214  0.2124  0.2982
 1173PYPI   D3A16755  15.389  18.302   6.788  0.1588  0.0611  0.2348
 1173PYPI   C4A16756  15.221  18.259   7.208 -0.0292  0.2104  0.2472
 1173PYPI   C1B16757  15.211  17.306   6.680  0.1997  0.2416 -0.1892
 1173PYPI   C2B16758  15.069  17.427   7.116 -0.0253  0.4706 -0.1028
 1173PYPI   C3B16759  14.887  17.523   7.584  0.1885  0.2270 -0.0467
 1173PYPI   C4B16760  14.724  17.785   7.966  0.0377 -0.2513  0.2015
 1174PYPI    C116761   3.725  13.202   6.251 -0.2294 -0.0070  0.0115
 1174PYPI    C216762   3.420  13.410   6.405 -0.0633  0.2236  0.0343
 1174PYPI    C316763   3.458  13.374   6.008 -0.2235  0.0355  0.0350
 1174PYPI   PO416764   3.711  12.990   6.481 -0.0593 -0.0051  0.2537
 1174PYPI   GL116765   3.729  13.179   6.948 -0.2395 -0.2241 -0.2572
 1174PYPI   GL216766   3.766  13.431   6.780 -0.5120 -0.0186 -0.0268
 1174PYPI   C1A16767   3.901  13.217   7.374  0.2316 -0.1811  0.4050
 1174PYPI   C2A16768   4.159  13.436   7.795 -0.1114 -0.1784  0.0009
 1174PYPI   D3A16769   4.315  13.569   8.118 -0.1594  0.0365 -0.1163
 1174PYPI   C4A16770   4.634  13.475   8.352 -0.0957 -0.0478  0.2297
 1174PYPI   C1B16771   4.142  13.561   7.044  0.2455  0.0486 -0.1229
 1174PYPI   C2B16772   4.430  13.491   7.356 -0.0497 -0.2884  0.0277
 1174PYPI   C3B16773   4.589  13.275   7.680  0.1808 -0.1012 -0.1259
 1174PYPI   C4B16774   4.851  13.407   7.868 -0.2506 -0.0209 -0.3577
 1175PYPI    C116775   6.160  16.052   5.466  0.0728  0.1229  0.0614
 1175PYPI    C216776   5.886  15.961   5.189  0.2133 -0.0077 -0.0364
 1175PYPI    C316777   6.094  16.301   5.160 -0.0062  0.1407  0.0924
 1175PYPI   PO416778   6.157  15.805   5.610  0.1220  0.2296 -0.0077
 1175PYPI   GL116779   6.160  15.754   6.044  0.1522  0.0301  0.2630
 1175PYPI   GL216780   5.903  15.737   6.106  0.0605 -0.0308  0.1634
 1175PYPI   C1A16781   6.291  15.529   6.321  0.1087  0.2898  0.0591
 1175PYPI   C2A16782   6.428  15.413   6.646 -0.0199  0.1293 -0.1034
 1175PYPI   D3A16783   6.435  15.326   7.089 -0.0901  0.0107  0.2798
 1175PYPI   C4A16784   6.736  15.016   7.115 -0.1789  0.0794  0.1114
 1175PYPI   C1B16785   5.854  15.744   6.534 -0.1750 -0.1251  0.4909
 1175PYPI   C2B16786   6.019  15.600   6.944 -0.1004  0.1068  0.0907
 1175PYPI   C3B16787   5.895  15.472   7.422 -0.0999 -0.1717 -0.1102
 1175PYPI   C4B16788   5.904  15.576   7.802  0.0705 -0.1268 -0.1804
 1176PYPI    C116789   3.781   3.409   5.664  0.0375  0.1118 -0.1385
 1176PYPI    C216790   3.463   3.255   5.477  0.0683  0.1379 -0.2127
 1176PYPI    C316791   3.816   3.273   5.290  0.1364  0.0208 -0.0968
 1176PYPI   PO416792   3.620   3.618   5.825 -0.4175  0.0344  0.1189
 1176PYPI   GL116793   3.616   3.539   6.294 -0.1213  0.2014  0.1312
 1176PYPI   GL216794   3.721   3.238   6.444  0.3717 -0.2644 -0.0300
 1176PYPI   C1A16795   3.533   3.574   6.693 -0.0115 -0.2219  0.3792
 1176PYPI   C2A16796   3.563   3.607   7.146  0.1954 -0.0817 -0.0616
 1176PYPI   D3A16797   3.497   3.508   7.631 -0.2690 -0.2895 -0.2423
 1176PYPI   C4A16798   3.454   3.024   7.893  0.1714 -0.2415  0.1690
 1176PYPI   C1B16799   3.865   2.990   6.782 -0.0831 -0.2453  0.1992
 1176PYPI   C2B16800   3.823   3.160   7.147  0.1474  0.2625 -0.0094
 1176PYPI   C3B16801   3.943   3.275   7.543  0.3989  0.1261  0.1304
 1176PYPI   C4B16802   4.245   3.329   7.727 -0.1343 -0.1495  0.0887
 1177PYPI    C116803  11.851  12.904   5.835 -0.1222  0.4025  0.3219
 1177PYPI    C216804  11.554  12.699   5.661  0.2334  0.1333  0.0151
 1177PYPI    C316805  11.643  13.069   5.535  0.1164  0.1627  0.0174
 1177PYPI   PO416806  11.806  12.855   6.082 -0.3602  0.0534 -0.0670
 1177PYPI   GL116807  11.754  12.697   6.450  0.0239 -0.1907 -0.3140
 1177PYPI   GL216808  11.472  12.608   6.646 -0.0332  0.0020  0.3309
 1177PYPI   C1A16809  11.967  12.940   6.747 -0.1238  0.2303  0.2189
 1177PYPI   C2A16810  12.072  12.770   7.087 -0.1932 -0.0679  0.1500
 1177PYPI   D3A16811  11.851  12.992   7.371 -0.0944  0.0478 -0.5045
 1177PYPI   C4A16812  11.947  12.677   7.694  0.0498 -0.2336 -0.1372
 1177PYPI   C1B16813  11.562  12.667   7.050  0.0135 -0.1775  0.2024
 1177PYPI   C2B16814  11.498  12.720   7.489 -0.0215  0.1164  0.0707
 1177PYPI   C3B16815  11.552  12.658   8.004  0.3224 -0.0650  0.0993
 1177PYPI   C4B16816  11.634  12.662   8.417 -0.4187 -0.1008  0.0198
 1178PYPI    C116817   2.904  13.355   6.069  0.0087 -0.3270 -0.0975
 1178PYPI    C216818   2.521  13.372   5.952  0.0257 -0.3757 -0.1605
 1178PYPI    C316819   2.803  13.566   5.744 -0.0504  0.2029  0.2534
 1178PYPI   PO416820   2.896  13.405   6.298  0.1344  0.1341  0.0675
 1178PYPI   GL116821   2.865  13.249   6.637 -0.0309  0.0944  0.0136
 1178PYPI   GL216822   2.723  13.460   6.818  0.2257 -0.2643 -0.1383
 1178PYPI   C1A16823   3.270  13.369   6.910 -0.0188 -0.2249  0.1102
 1178PYPI   C2A16824   3.355  13.470   7.376 -0.0071 -0.0475  0.1852
 1178PYPI   D3A16825   3.299  13.635   7.834  0.1901 -0.0986  0.1352
 1178PYPI   C4A16826   3.358  14.003   8.125 -0.1341 -0.1906  0.1816
 1178PYPI   C1B16827   2.886  13.303   7.203  0.0283 -0.0936 -0.2877
 1178PYPI   C2B16828   2.969  13.361   7.631  0.0641 -0.4212 -0.2390
 1178PYPI   C3B16829   3.172  13.142   7.956  0.0219 -0.0372 -0.1935
 1178PYPI   C4B16830   3.173  13.142   8.437  0.1535 -0.1481 -0.0281
 1179PYPI    C116831  10.239   4.626   5.669 -0.3922 -0.0054 -0.1018
 1179PYPI    C216832  10.327   4.297   5.459 -0.0807 -0.0215  0.0487
 1179PYPI    C316833  10.258   4.643   5.270 -0.1137 -0.1058 -0.0949
 1179PYPI   PO416834  10.387   4.627   5.837  0.4008  0.0394 -0.0529
 1179PYPI   GL116835  10.329   4.310   6.119  0.1299 -0.0502 -0.1084
 1179PYPI   GL216836  10.544   4.491   6.287  0.3419  0.0295  0.3441
 1179PYPI   C1A16837  10.091   4.629   6.424  0.1638  0.5262 -0.1331
 1179PYPI   C2A16838   9.688   4.728   6.543 -0.1200 -0.2385 -0.4190
 1179PYPI   D3A16839   9.332   4.654   6.581  0.0416  0.2311  0.0327
 1179PYPI   C4A16840   9.349   4.670   7.028  0.1888 -0.1659  0.0309
 1179PYPI   C1B16841  10.621   4.521   6.681 -0.0342 -0.1613 -0.1381
 1179PYPI   C2B16842  10.537   4.597   7.193 -0.1383 -0.2307  0.2397
 1179PYPI   C3B16843  10.432   4.624   7.640  0.1596 -0.0056 -0.0061
 1179PYPI   C4B16844  10.538   4.769   8.014  0.0375 -0.0878 -0.2893
 1180ERGO   ROH16845  12.093   9.565   6.624 -0.0096 -0.1458 -0.0647
 1180ERGO    R116846  12.035   9.691   6.870 -0.0079 -0.1048 -0.0869
 1180ERGO    R216847  11.780   9.703   6.976  0.0233 -0.2196 -0.0184
 1180ERGO    R316848  11.900   9.592   7.193  0.1456 -0.0809 -0.0117
 1180ERGO    R416849  11.693   9.766   7.305 -0.0454 -0.2703 -0.0254
 1180ERGO    R516850  11.905   9.768   7.356 -0.0340 -0.0491 -0.0288
 1180ERGO    C116851  11.756   9.699   7.700  0.0292 -0.1696 -0.0231
 1180ERGO    C216852  11.884   9.880   7.937  0.1477  0.3125 -0.1708
 1181ERGO   ROH16853   5.335   2.835  10.329  0.0573 -0.0643  0.1296
 1181ERGO    R116854   5.518   2.865  10.115  0.0760 -0.1137  0.1381
 1181ERGO    R216855   5.602   2.652   9.960 -0.0054 -0.1302  0.1149
 1181ERGO    R316856   5.516   2.809   9.756  0.0638 -0.0715  0.1313
 1181ERGO    R416857   5.703   2.621   9.631  0.0844 -0.0589  0.1362
 1181ERGO    R516858   5.709   2.839   9.618  0.1063 -0.0544  0.1926
 1181ERGO    C116859   5.681   2.751   9.248  0.2017  0.0377  0.1640
 1181ERGO    C216860   5.694   2.511   8.867  0.1889  0.0541  0.3048
 1182ERGO   ROH16861   2.669  14.906  10.506  0.1770 -0.0231 -0.1108
 1182ERGO    R116862   2.724  14.819  10.242  0.1745  0.2038 -0.1872
 1182ERGO    R216863   2.591  14.607  10.124  0.3581  0.1372 -0.2695
 1182ERGO    R316864   2.540  14.790   9.930  0.0913  0.2071 -0.1398
 1182ERGO    R416865   2.498  14.531   9.800  0.2075  0.2381 -0.2521
 1182ERGO    R516866   2.628  14.691   9.730  0.0423  0.3790 -0.2520
 1182ERGO    C116867   2.396  14.658   9.429 -0.1306  0.3624 -0.1204
 1182ERGO    C216868   2.310  14.723   9.085 -0.0135 -0.0019 -0.1091
 1183ERGO   ROH16869   3.516   6.071   5.995  0.1541  0.0292 -0.1426
 1183ERGO    R116870   3.501   5.993   6.267  0.0719  0.1542 -0.1111
 1183ERGO    R216871   3.698   5.845   6.390 -0.0563  0.0480 -0.0376
 1183ERGO    R316872   3.695   6.049   6.570  0.0946  0.1248 -0.1194
 1183ERGO    R416873   3.752   5.810   6.730 -0.2496  0.1154  0.0019
 1183ERGO    R516874   3.593   5.955   6.765 -0.1041  0.3140 -0.1266
 1183ERGO    C116875   3.780   5.982   7.096 -0.2204  0.2266 -0.0520
 1183ERGO    C216876   3.862   6.038   7.491 -0.0630  0.0825  0.2105
 1184ERGO   ROH16877   8.099   7.831   6.315  0.0099 -0.0970 -0.0356
 1184ERGO    R116878   7.957   7.758   6.549  0.1024 -0.1714 -0.0024
 1184ERGO    R216879   8.052   7.571   6.729  0.3517  0.0441  0.0926
 1184ERGO    R316880   8.013   7.772   6.908  0.0791  0.0850 -0.0061
 1184ERGO    R416881   8.071   7.536   7.072  0.3440  0.2239  0.1126
 1184ERGO    R516882   7.899   7.668   7.090  0.1759  0.0257  0.0242
 1184ERGO    C116883   8.046   7.705   7.440  0.0836  0.3670  0.0316
 1184ERGO    C216884   8.206   7.561   7.557  0.0141 -0.3007 -0.1519
 1185ERGO   ROH16885   0.036  14.117  10.159 -0.2173  0.0660  0.1671
 1185ERGO    R116886   0.036  14.080   9.879 -0.0022 -0.0535  0.1797
 1185ERGO    R216887  -0.119  14.234   9.709 -0.1175 -0.3303  0.0213
 1185ERGO    R316888   0.120  14.280   9.586 -0.1006 -0.0573  0.1503
 1185ERGO    R416889  -0.077  14.421   9.421 -0.1428 -0.1622  0.1261
 1185ERGO    R516890   0.068  14.274   9.352  0.0198  0.0039  0.1256
 1185ERGO    C116891   0.170  14.573   9.139 -0.1416  0.1920  0.3082
 1185ERGO    C216892   0.206  14.878   8.914  0.1722  0.0455  0.0458
 1186ERGO   ROH16893  12.039  14.091   6.341  0.0568  0.1800  0.0512
 1186ERGO    R116894  11.971  14.093   6.616  0.0295 -0.0181  0.0470
 1186ERGO    R216895  12.016  13.876   6.782  0.1343 -0.0913 -0.0748
 1186ERGO    R316896  12.148  14.060   6.932  0.0179 -0.1040  0.0449
 1186ERGO    R416897  12.024  13.881   7.127 -0.1493 -0.1115 -0.0659
 1186ERGO    R516898  12.005  14.098   7.120 -0.1361 -0.1105 -0.0694
 1186ERGO    C116899  12.152  14.058   7.469 -0.4237 -0.1353  0.0515
 1186ERGO    C216900  12.235  14.000   7.706 -0.0141  0.2774 -0.2469
 1187ERGO   ROH16901  17.783  12.401   6.101  0.1768  0.0690 -0.1279
 1187ERGO    R116902  17.709  12.269   6.340  0.0094  0.0640 -0.1817
 1187ERGO    R216903  17.636  12.002   6.346  0.1882  0.0161 -0.2121
 1187ERGO    R316904  17.831  11.987   6.535 -0.0037  0.1855  0.0063
 1187ERGO    R416905  17.657  11.757   6.589  0.1769 -0.0248 -0.2517
 1187ERGO    R516906  17.718  11.911   6.732 -0.1501  0.0120 -0.1391
 1187ERGO    C116907  17.852  11.600   6.908 -0.0099  0.1104 -0.0698
 1187ERGO    C216908  18.002  11.449   7.195 -0.1536 -0.1383 -0.2399
 1188ERGO   ROH16909   4.778  11.448   6.415 -0.1903 -0.1856  0.0398
 1188ERGO    R116910   4.880  11.442   6.680 -0.0421  0.0403 -0.0095
 1188ERGO    R216911   4.939  11.672   6.821 -0.4436  0.1830 -0.0566
 1188ERGO    R316912   4.773  11.562   7.006 -0.1323 -0.1541  0.0337
 1188ERGO    R416913   4.982  11.692   7.164 -0.2015  0.0951 -0.0800
 1188ERGO    R516914   4.919  11.484   7.179  0.1262 -0.0117 -0.1152
 1188ERGO    C116915   4.851  11.600   7.536  0.2316 -0.2724 -0.0089
 1188ERGO    C216916   4.762  11.411   7.896 -0.2109  0.0035  0.4261
 1189ERGO   ROH16917   2.930   4.335   6.172 -0.0051  0.0100  0.0762
 1189ERGO    R116918   3.054   4.437   6.405 -0.0256  0.1216  0.0385
 1189ERGO    R216919   2.923   4.605   6.582 -0.0969  0.0667  0.0341
 1189ERGO    R316920   2.998   4.417   6.764  0.0524  0.1415  0.0527
 1189ERGO    R416921   2.847   4.614   6.919 -0.1324  0.0277  0.0279
 1189ERGO    R516922   3.048   4.542   6.962 -0.0693  0.2024  0.0481
 1189ERGO    C116923   2.872   4.444   7.286 -0.0128  0.0751  0.0417
 1189ERGO    C216924   2.734   4.555   7.630 -0.1469 -0.0018  0.0528
 1190ERGO   ROH16925   8.287   6.192   6.311 -0.0239  0.0872  0.0161
 1190ERGO    R116926   8.335   6.303   6.567 -0.0289  0.0356  0.0390
 1190ERGO    R216927   8.162   6.483   6.686 -0.0266  0.0166  0.0678
 1190ERGO    R316928   8.168   6.303   6.890 -0.0385 -0.0224  0.0346
 1190ERGO    R416929   8.130   6.563   7.020 -0.1016 -0.0520  0.0779
 1190ERGO    R516930   8.285   6.416   7.065 -0.0877 -0.0382  0.0787
 1190ERGO    C116931   8.117   6.442   7.407 -0.1564 -0.1285  0.0526
 1190ERGO    C216932   8.212   6.385   7.744  0.2246  0.1221  0.0447
 1191ERGO   ROH16933  13.073  13.852  10.466  0.1945 -0.3032  0.0640
 1191ERGO    R116934  13.032  13.742  10.208 -0.0920 -0.1823  0.0536
 1191ERGO    R216935  12.813  13.806  10.052 -0.0091  0.2930  0.1122
 1191ERGO    R316936  13.003  13.868   9.868  0.0852 -0.0612  0.0830
 1191ERGO    R416937  12.764  13.810   9.710 -0.0956  0.5329  0.1260
 1191ERGO    R516938  12.960  13.719   9.685 -0.2982  0.0990  0.0373
 1191ERGO    C116939  12.913  13.871   9.338 -0.0574  0.3398  0.1066
 1191ERGO    C216940  13.083  13.847   9.008  0.1476 -0.1037 -0.0683
 1192ERGO   ROH16941   1.206  10.826  10.296 -0.1819  0.1665  0.1158
 1192ERGO    R116942   1.188  10.806  10.014 -0.1541  0.1426  0.1163
 1192ERGO    R216943   1.118  11.020   9.853  0.1036  0.1929  0.0730
 1192ERGO    R316944   1.351  10.959   9.727  0.0618 -0.0753  0.1186
 1192ERGO    R416945   1.193  11.098   9.525  0.3120  0.2522  0.1327
 1192ERGO    R516946   1.286  10.903   9.504  0.0464  0.1237  0.0685
 1192ERGO    C116947   1.455  11.086   9.216  0.3941  0.0348  0.2102
 1192ERGO    C216948   1.591  11.040   8.881  0.0364 -0.0872 -0.1979
 1193ERGO   ROH16949  11.133  15.064   6.274 -0.2108  0.0908  0.0522
 1193ERGO    R116950  10.995  15.195   6.483 -0.0794  0.0933  0.1387
 1193ERGO    R216951  10.909  15.063   6.711 -0.0990  0.0563  0.1093
 1193ERGO    R316952  11.050  15.258   6.838  0.0498 -0.0750  0.1498
 1193ERGO    R416953  10.829  15.198   7.019  0.0419  0.0022  0.1705
 1193ERGO    R516954  10.884  15.394   6.943  0.1528 -0.0042  0.2262
 1193ERGO    C116955  10.915  15.459   7.317  0.2636 -0.1524  0.2441
 1193ERGO    C216956  10.855  15.514   7.802 -0.3081 -0.0578 -0.2066
 1194ERGO   ROH16957  16.417  13.600   6.483 -0.2265  0.1748 -0.0983
 1194ERGO    R116958  16.528  13.714   6.717 -0.2141  0.1920 -0.1125
 1194ERGO    R216959  16.373  13.794   6.932 -0.1801 -0.0663  0.0113
 1194ERGO    R316960  16.540  13.631   7.071  0.0755  0.0489 -0.1531
 1194ERGO    R416961  16.424  13.809   7.274  0.0166 -0.1450 -0.0132
 1194ERGO    R516962  16.636  13.773   7.239  0.0345  0.0845 -0.1594
 1194ERGO    C116963  16.610  13.664   7.603  0.3713 -0.0828 -0.1817
 1194ERGO    C216964  16.569  13.507   7.902 -0.1889 -0.1166 -0.0311
 1195ERGO   ROH16965   7.837   9.649  10.297  0.0047 -0.0193 -0.0124
 1195ERGO    R116966   7.777   9.641  10.020  0.0463  0.0537 -0.0238
 1195ERGO    R216967   7.732   9.869   9.871  0.1801  0.0994  0.0051
 1195ERGO    R316968   7.928   9.766   9.713  0.1569  0.0312  0.0204
 1195ERGO    R416969   7.728   9.871   9.525  0.1556  0.0054  0.0047
 1195ERGO    R516970   7.810   9.669   9.529  0.1309 -0.0051  0.0551
 1195ERGO    C116971   7.910   9.774   9.176  0.1195 -0.1135  0.0190
 1195ERGO    C216972   7.847   9.699   8.898  0.1116 -0.1220  0.0737
 1196ERGO   ROH16973   4.897  15.754   6.778 -0.0828 -0.0406 -0.1088
 1196ERGO    R116974   4.992  15.824   7.035 -0.1297  0.0078 -0.1045
 1196ERGO    R216975   4.828  15.931   7.230 -0.1849 -0.0404 -0.1240
 1196ERGO    R316976   4.924  15.724   7.379 -0.1227  0.0020 -0.1048
 1196ERGO    R416977   4.821  15.917   7.575 -0.1765 -0.0087 -0.1226
 1196ERGO    R516978   5.021  15.830   7.571 -0.1512  0.0493 -0.1164
 1196ERGO    C116979   4.906  15.715   7.916 -0.1133  0.0496 -0.1037
 1196ERGO    C216980   4.724  15.776   8.268  0.0287 -0.2558 -0.0874
 1197ERGO   ROH16981  11.133   3.548  10.045 -0.1921  0.0768 -0.0457
 1197ERGO    R116982  11.049   3.516   9.776 -0.0371 -0.2199 -0.0631
 1197ERGO    R216983  11.096   3.707   9.582 -0.5322 -0.1081 -0.0820
 1197ERGO    R316984  11.208   3.498   9.449  0.1130  0.1739 -0.0178
 1197ERGO    R416985  11.096   3.669   9.239 -0.5859 -0.2920 -0.0629
 1197ERGO    R516986  11.058   3.456   9.268  0.1390 -0.4314  0.0778
 1197ERGO    C116987  11.201   3.451   8.914 -0.0114 -0.1344  0.0083
 1197ERGO    C216988  11.303   3.420   8.550 -0.3754 -0.1793 -0.3549
 1198ERGO   ROH16989   3.892   0.462   6.504 -0.1798 -0.0333  0.0340
 1198ERGO    R116990   4.015   0.343   6.729 -0.1310 -0.0879 -0.0204
 1198ERGO    R216991   4.057   0.480   6.965  0.0342 -0.1067 -0.0364
 1198ERGO    R316992   3.921   0.271   7.073 -0.0103 -0.0478  0.0212
 1198ERGO    R416993   4.066   0.390   7.299  0.1117 -0.0877 -0.0338
 1198ERGO    R516994   4.071   0.181   7.237  0.0108 -0.0941 -0.0232
 1198ERGO    C116995   3.944   0.141   7.594  0.1150 -0.0213  0.0217
 1198ERGO    C216996   3.817   0.142   8.017  0.1219  0.3033 -0.0161
 1199ERGO   ROH16997   2.482   2.800   9.956  0.3230  0.0949  0.0690
 1199ERGO    R116998   2.465   2.816   9.673  0.1999  0.1622  0.0797
 1199ERGO    R216999   2.679   2.891   9.516  0.1998 -0.0265 -0.0105
 1199ERGO    R317000   2.627   2.656   9.389 -0.1008  0.0469 -0.0312
 1199ERGO    R417001   2.693   2.843   9.174  0.1972 -0.0252 -0.0110
 1199ERGO    R517002   2.514   2.721   9.188  0.0210  0.2167 -0.0493
 1199ERGO    C117003   2.653   2.595   8.856 -0.0864  0.0445 -0.0306
 1199ERGO    C217004   2.587   2.674   8.530  0.0182 -0.1074  0.1819
 1200ERGO   ROH17005   9.345  13.812   6.400  0.1649  0.1797  0.0586
 1200ERGO    R117006   9.335  13.704   6.661  0.0078  0.1523  0.0427
 1200ERGO    R217007   9.553  13.705   6.830 -0.0648  0.0450  0.1383
 1200ERGO    R317008   9.380  13.828   7.000 -0.0901  0.0944  0.0771
 1200ERGO    R417009   9.596  13.729   7.173 -0.2995 -0.1890  0.1867
 1200ERGO    R517010   9.382  13.690   7.197 -0.3535 -0.0235  0.0032
 1200ERGO    C117011   9.458  13.857   7.531 -0.4599 -0.2790  0.1575
 1200ERGO    C217012   9.397  13.949   7.861 -0.0609 -0.1994 -0.1614
 1201ERGO   ROH17013  10.090   5.875   6.266  0.1327 -0.0939  0.1110
 1201ERGO    R117014   9.892   5.905   6.467  0.0684 -0.0335  0.0412
 1201ERGO    R217015   9.776   5.688   6.594  0.0150  0.0005  0.0627
 1201ERGO    R317016   9.858   5.818   6.818 -0.0452  0.0561  0.0512
 1201ERGO    R417017   9.618   5.673   6.901  0.0815 -0.1180  0.0903
 1201ERGO    R517018   9.656   5.885   6.926 -0.0725 -0.0952  0.0880
 1201ERGO    C117019   9.603   5.785   7.290  0.0637 -0.1349  0.0956
 1201ERGO    C217020   9.701   5.573   7.656  0.0326  0.1645 -0.0612
 1202ERGO   ROH17021  13.952  12.179   6.088 -0.2440  0.2882  0.0311
 1202ERGO    R117022  13.946  12.262   6.358 -0.0457 -0.0053  0.1298
 1202ERGO    R217023  13.710  12.307   6.494  0.0569  0.2880  0.2075
 1202ERGO    R317024  13.816  12.131   6.672 -0.2490 -0.1214  0.0012
 1202ERGO    R417025  13.612  12.277   6.824  0.3248  0.4325  0.3045
 1202ERGO    R517026  13.821  12.251   6.879  0.3386 -0.2136  0.0613
 1202ERGO    C117027  13.654  12.093   7.183  0.1935  0.1325  0.1673
 1202ERGO    C217028  13.511  12.060   7.479  0.1742  0.1139  0.2498
 1203ERGO   ROH17029   7.628   2.364   6.644 -0.4210 -0.1758  0.0239
 1203ERGO    R117030   7.529   2.480   6.883 -0.2339 -0.0230  0.0290
 1203ERGO    R217031   7.547   2.354   7.128 -0.1726  0.0708  0.0671
 1203ERGO    R317032   7.666   2.587   7.202 -0.0108  0.0393 -0.0844
 1203ERGO    R417033   7.532   2.493   7.444  0.1337  0.1508  0.0509
 1203ERGO    R517034   7.511   2.689   7.352  0.1451  0.1422  0.0167
 1203ERGO    C117035   7.635   2.793   7.697  0.4640  0.1678 -0.1008
 1203ERGO    C217036   7.700   2.867   7.988  0.0908  0.1439  0.1736
 1204ERGO   ROH17037   9.049   8.669   6.178  0.0818  0.2478 -0.1822
 1204ERGO    R117038   9.167   8.626   6.432  0.0247  0.1471 -0.1715
 1204ERGO    R217039   9.216   8.831   6.610  0.0921  0.0951 -0.1221
 1204ERGO    R317040   9.071   8.676   6.779 -0.0077  0.1273 -0.1793
 1204ERGO    R417041   9.256   8.819   6.953  0.0513 -0.0362 -0.1220
 1204ERGO    R517042   9.228   8.604   6.945 -0.0685 -0.0119 -0.1873
 1204ERGO    C117043   9.143   8.666   7.311 -0.0661 -0.0825 -0.1757
 1204ERGO    C217044   9.056   8.653   7.680  0.5325  0.1210  0.1021
 1205ERGO   ROH17045  10.532  15.230  10.097 -0.0186  0.1630 -0.0463
 1205ERGO    R117046  10.575  15.110   9.844 -0.0392  0.1143 -0.0266
 1205ERGO    R217047  10.418  15.168   9.624 -0.0369  0.0956 -0.0324
 1205ERGO    R317048  10.658  15.223   9.509 -0.0329  0.0460 -0.0484
 1205ERGO    R417049  10.480  15.162   9.284 -0.0073 -0.1263 -0.0249
 1205ERGO    R517050  10.673  15.070   9.325  0.0005 -0.0770  0.0551
 1205ERGO    C117051  10.741  15.211   8.978  0.0137 -0.3021 -0.0357
 1205ERGO    C217052  10.888  15.279   8.684 -0.0428 -0.0079  0.1206
 1206ERGO   ROH17053  14.415  17.563   6.368  0.1635  0.2229  0.1642
 1206ERGO    R117054  14.422  17.356   6.562  0.1431  0.1045  0.0397
 1206ERGO    R217055  14.605  17.354   6.769  0.0853  0.0070  0.0871
 1206ERGO    R317056  14.381  17.331   6.923  0.0475 -0.1259  0.0149
 1206ERGO    R417057  14.605  17.283   7.108  0.0463  0.4014  0.1752
 1206ERGO    R517058  14.432  17.153   7.075  0.2378  0.1163  0.2472
 1206ERGO    C117059  14.395  17.220   7.449 -0.0118  0.5063  0.1586
 1206ERGO    C217060  14.382  17.357   7.799 -0.0096 -0.2065 -0.2411
 1207ERGO   ROH17061  13.372  10.425   9.971  0.1792  0.1883  0.0224
 1207ERGO    R117062  13.240  10.462   9.723  0.1137  0.0185  0.0308
 1207ERGO    R217063  13.259  10.696   9.578 -0.1639  0.0301  0.0095
 1207ERGO    R317064  13.338  10.529   9.379  0.0086  0.1007  0.0160
 1207ERGO    R417065  13.203  10.750   9.242 -0.1490 -0.0018  0.0015
 1207ERGO    R517066  13.159  10.538   9.220  0.0276 -0.0389 -0.0153
 1207ERGO    C117067  13.243  10.624   8.859  0.0216  0.0459  0.0030
 1207ERGO    C217068  13.376  10.763   8.534 -0.0223  0.0336 -0.0562
 1208ERGO   ROH17069   1.331   9.015   6.322  0.0868 -0.0969 -0.1219
 1208ERGO    R117070   1.181   9.000   6.562 -0.0265 -0.0749 -0.1910
 1208ERGO    R217071   1.285   8.897   6.796 -0.1883 -0.2005 -0.1743
 1208ERGO    R317072   1.205   9.136   6.898 -0.0927 -0.1815 -0.1419
 1208ERGO    R417073   1.230   8.960   7.132 -0.0426 -0.1925 -0.1510
 1208ERGO    R517074   1.055   9.078   7.076 -0.0386 -0.1498 -0.0832
 1208ERGO    C117075   1.123   9.221   7.423  0.1320 -0.1699 -0.1070
 1208ERGO    C217076   1.060   9.258   7.713 -0.1248 -0.0467 -0.3220
 1209ERGO   ROH17077  16.590   3.450   6.401 -0.3049  0.1303  0.1899
 1209ERGO    R117078  16.700   3.446   6.661 -0.2129  0.0221  0.1505
 1209ERGO    R217079  16.877   3.637   6.752 -0.0522 -0.1030  0.1160
 1209ERGO    R317080  16.697   3.662   6.954  0.0325 -0.0145  0.1809
 1209ERGO    R417081  16.948   3.763   7.066  0.0840 -0.0197  0.0526
 1209ERGO    R517082  16.821   3.609   7.151  0.0972  0.0286  0.1485
 1209ERGO    C117083  16.820   3.860   7.438  0.2432  0.1118  0.0765
 1209ERGO    C217084  16.850   4.105   7.728  0.5997  0.1096  0.0133
 1210ERGO   ROH17085   4.229   7.755  10.204 -0.0994  0.1413  0.0355
 1210ERGO    R117086   4.180   7.819   9.933 -0.0056  0.1712  0.0258
 1210ERGO    R217087   4.374   7.923   9.767  0.0804  0.0861  0.0767
 1210ERGO    R317088   4.307   7.713   9.609  0.0222  0.1226  0.0517
 1210ERGO    R417089   4.376   7.928   9.421  0.2680  0.0726  0.0762
 1210ERGO    R517090   4.191   7.813   9.424  0.1855  0.1955 -0.0156
 1210ERGO    C117091   4.314   7.734   9.071  0.3226  0.0990  0.0522
 1210ERGO    C217092   4.331   7.763   8.697  0.1712  0.0220 -0.1423
 1211ERGO   ROH17093  10.440   0.159   6.355 -0.1045 -0.0489  0.1434
 1211ERGO    R117094  10.253   0.228   6.557 -0.0256  0.0877  0.1712
 1211ERGO    R217095  10.175   0.051   6.754 -0.2107  0.1063  0.1154
 1211ERGO    R317096  10.253   0.251   6.920  0.0117 -0.0297  0.1794
 1211ERGO    R417097  10.073   0.089   7.082 -0.1536  0.1025  0.1337
 1211ERGO    R517098  10.059   0.303   7.048  0.0703  0.1327  0.2066
 1211ERGO    C117099  10.087   0.299   7.429  0.0884 -0.0274  0.2044
 1211ERGO    C217100  10.136   0.413   7.818  0.1566  0.2734  0.0456
 1212ERGO   ROH17101   6.288   4.288   6.142  0.0852  0.0812  0.0808
 1212ERGO    R117102   6.281   4.186   6.406 -0.2149 -0.0180  0.0363
 1212ERGO    R217103   6.448   4.280   6.606 -0.1301 -0.4065  0.1372
 1212ERGO    R317104   6.214   4.319   6.738 -0.1177 -0.0340  0.0674
 1212ERGO    R417105   6.421   4.398   6.929 -0.0160 -0.3054  0.1126
 1212ERGO    R517106   6.261   4.254   6.964 -0.2553 -0.0763  0.0974
 1212ERGO    C117107   6.185   4.504   7.242  0.0622  0.1031  0.0327
 1212ERGO    C217108   6.054   4.668   7.407 -0.4583 -0.0583  0.0138
 1213ERGO   ROH17109   4.271   5.035   6.246 -0.1386 -0.1187 -0.0968
 1213ERGO    R117110   4.247   5.009   6.527 -0.1132 -0.1279 -0.0940
 1213ERGO    R217111   4.451   4.911   6.686 -0.1352 -0.2457 -0.1248
 1213ERGO    R317112   4.413   5.144   6.821 -0.0009 -0.2330 -0.1112
 1213ERGO    R417113   4.444   4.941   7.030 -0.3314 -0.2862 -0.1250
 1213ERGO    R517114   4.280   5.082   7.010 -0.1796 -0.1298 -0.2085
 1213ERGO    C117115   4.405   5.177   7.357 -0.3194 -0.2980 -0.1123
 1213ERGO    C217116   4.460   5.265   7.733 -0.1121 -0.1379  0.0262
 1214ERGO   ROH17117   8.973   7.092   6.516 -0.2027 -0.0947 -0.0552
 1214ERGO    R117118   8.980   7.167   6.789 -0.1070  0.0684 -0.1014
 1214ERGO    R217119   9.049   6.990   6.990 -0.1627  0.1548 -0.0099
 1214ERGO    R317120   9.231   7.182   7.053 -0.0455  0.0953 -0.1597
 1214ERGO    R417121   9.121   7.097   7.311  0.0512  0.2067 -0.0733
 1214ERGO    R517122   9.132   7.301   7.235  0.0980  0.1861 -0.1352
 1214ERGO    C117123   9.334   7.339   7.556  0.2858  0.1811 -0.2508
 1214ERGO    C217124   9.473   7.325   7.792 -0.4950  0.1477 -0.0379
 1215ERGO   ROH17125   4.304  17.491  10.344 -0.3933 -0.4711 -0.0264
 1215ERGO    R117126   4.444  17.542  10.103 -0.1913 -0.2762  0.1266
 1215ERGO    R217127   4.435  17.370   9.887  0.0198 -0.1268 -0.0120
 1215ERGO    R317128   4.358  17.594   9.754  0.0982 -0.0399  0.0883
 1215ERGO    R417129   4.375  17.387   9.547 -0.1416  0.0228  0.0229
 1215ERGO    R517130   4.473  17.581   9.544 -0.0208 -0.0471  0.0299
 1215ERGO    C117131   4.267  17.606   9.224 -0.1620  0.1916  0.1374
 1215ERGO    C217132   4.005  17.685   8.936 -0.0221 -0.0237 -0.0887
 1216ERGO   ROH17133   0.003  15.692   6.572  0.0655  0.0307 -0.1165
 1216ERGO    R117134   0.114  15.628   6.824  0.1773  0.0751 -0.1518
 1216ERGO    R217135   0.289  15.796   6.957  0.0806  0.1975 -0.1607
 1216ERGO    R317136   0.109  15.772   7.159  0.1393  0.0191 -0.1305
 1216ERGO    R417137   0.370  15.750   7.290  0.1653  0.0614 -0.2006
 1216ERGO    R517138   0.205  15.609   7.305  0.2338 -0.0109 -0.2338
 1216ERGO    C117139   0.248  15.701   7.673  0.2697 -0.1854 -0.1956
 1216ERGO    C217140   0.262  15.702   8.036 -0.0250 -0.1421 -0.1852
 1217ERGO   ROH17141  17.842   8.195  10.218 -0.3589  0.2796  0.0131
 1217ERGO    R117142  17.871   8.273   9.948 -0.2578  0.1063 -0.0275
 1217ERGO    R217143  18.093   8.209   9.797 -0.1972  0.0202  0.1019
 1217ERGO    R317144  17.908   8.107   9.626 -0.1236 -0.0988  0.0913
 1217ERGO    R417145  18.109   8.231   9.452 -0.1871  0.0321  0.1027
 1217ERGO    R517146  17.894   8.268   9.450 -0.2145 -0.1040  0.0905
 1217ERGO    C117147  17.944   8.147   9.092 -0.1121 -0.0726  0.0931
 1217ERGO    C217148  18.008   8.155   8.786  0.3939  0.0325  0.0521
 1218ERGO   ROH17149  15.073  10.657   6.276 -0.2383 -0.0237 -0.2508
 1218ERGO    R117150  14.991  10.560   6.529  0.0289 -0.0327 -0.1645
 1218ERGO    R217151  15.171  10.503   6.731  0.2263  0.2192 -0.2589
 1218ERGO    R317152  15.012  10.672   6.874  0.1391  0.1007 -0.2147
 1218ERGO    R417153  15.180  10.540   7.075  0.2163  0.1595 -0.2523
 1218ERGO    R517154  14.963  10.551   7.075  0.2145  0.0371 -0.2381
 1218ERGO    C117155  15.037  10.719   7.409  0.1287  0.0135 -0.2070
 1218ERGO    C217156  15.252  10.630   7.649  0.0013 -0.0155  0.0656
 1219ERGO   ROH17157  10.194   2.651  10.152 -0.0870  0.3125  0.0892
 1219ERGO    R117158  10.118   2.600   9.885  0.0677  0.1896  0.0664
 1219ERGO    R217159   9.897   2.718   9.768 -0.0833 -0.1448 -0.0026
 1219ERGO    R317160  10.077   2.795   9.580 -0.1382  0.1265  0.0527
 1219ERGO    R417161   9.839   2.715   9.428  0.0441 -0.2847 -0.0236
 1219ERGO    R517162  10.043   2.641   9.399  0.1781  0.0439  0.0587
 1219ERGO    C117163   9.974   2.785   9.052  0.0668 -0.1114  0.0161
 1219ERGO    C217164   9.840   2.662   8.648 -0.0115 -0.1087 -0.0698
 1220ERGO   ROH17165   7.739   3.764   6.273  0.1942  0.1662  0.1386
 1220ERGO    R117166   7.689   3.808   6.548 -0.0284 -0.0229  0.1314
 1220ERGO    R217167   7.611   3.605   6.719  0.2179 -0.2262  0.0112
 1220ERGO    R317168   7.826   3.689   6.864  0.0061  0.0819  0.1561
 1220ERGO    R417169   7.666   3.528   7.052  0.1277 -0.1859  0.0350
 1220ERGO    R517170   7.736   3.733   7.082 -0.1989 -0.0803  0.1072
 1220ERGO    C117171   7.899   3.562   7.382 -0.1237  0.1267  0.1850
 1220ERGO    C217172   7.945   3.290   7.528 -0.1569 -0.0123 -0.1935
 1221ERGO   ROH17173   3.669   2.702   6.269  0.0834  0.0740  0.0210
 1221ERGO    R117174   3.591   2.734   6.539  0.1297  0.0568  0.0377
 1221ERGO    R217175   3.331   2.694   6.624  0.1026  0.2117  0.0537
 1221ERGO    R317176   3.449   2.524   6.800  0.0088  0.0819 -0.0107
 1221ERGO    R417177   3.247   2.666   6.959  0.2734  0.3076  0.1050
 1221ERGO    R517178   3.460   2.648   7.005  0.2729  0.0662 -0.0192
 1221ERGO    C117179   3.310   2.490   7.318  0.2848  0.2417  0.0744
 1221ERGO    C217180   3.081   2.489   7.630 -0.0791  0.2021  0.1799
 1222ERGO   ROH17181   2.862  15.169   6.602  0.0148  0.0164  0.0571
 1222ERGO    R117182   2.743  15.317   6.812 -0.1086  0.0103 -0.0078
 1222ERGO    R217183   2.512  15.235   6.939 -0.0478 -0.1224  0.0225
 1222ERGO    R317184   2.664  15.262   7.163 -0.0703  0.0935  0.0134
 1222ERGO    R417185   2.389  15.242   7.262 -0.0540 -0.0552  0.0187
 1222ERGO    R517186   2.533  15.399   7.308 -0.1686  0.0686 -0.0536
 1222ERGO    C117187   2.461  15.271   7.660 -0.0788  0.1867  0.0080
 1222ERGO    C217188   2.438  15.254   7.929  0.0411 -0.1564 -0.1172
 1223ERGO   ROH17189   5.696  15.084  10.246 -0.0841  0.0388  0.1100
 1223ERGO    R117190   5.578  15.057   9.990 -0.1711  0.1751  0.1372
 1223ERGO    R217191   5.496  15.275   9.841  0.2020  0.2785  0.0904
 1223ERGO    R317192   5.655  15.163   9.651 -0.0290 -0.0673  0.0887
 1223ERGO    R417193   5.483  15.350   9.504  0.4026  0.3860  0.1038
 1223ERGO    R517194   5.512  15.138   9.461 -0.0876  0.3061  0.0670
 1223ERGO    C117195   5.625  15.288   9.129  0.3025  0.1240  0.1100
 1223ERGO    C217196   5.680  15.364   8.793 -0.0229 -0.0896  0.0382
 1224ERGO   ROH17197  13.314   2.879   6.796  0.1064 -0.0161  0.1033
 1224ERGO    R117198  13.178   2.781   7.024  0.1264 -0.0509  0.1011
 1224ERGO    R217199  13.282   2.581   7.185  0.1116 -0.1213  0.0265
 1224ERGO    R317200  13.241   2.764   7.382  0.1899 -0.1674  0.0848
 1224ERGO    R417201  13.231   2.504   7.518 -0.2608 -0.2313 -0.0518
 1224ERGO    R517202  13.080   2.660   7.526 -0.0658 -0.0348 -0.0987
 1224ERGO    C117203  13.163   2.630   7.897 -0.4042 -0.3385 -0.0427
 1224ERGO    C217204  13.209   2.432   8.167 -0.1759  0.0653 -0.4521
 1225ERGO   ROH17205  10.214   2.051   6.668 -0.1203 -0.1537  0.0077
 1225ERGO    R117206  10.084   1.931   6.889 -0.2563 -0.0010  0.0133
 1225ERGO    R217207  10.219   1.855   7.118 -0.3063 -0.3119 -0.0548
 1225ERGO    R317208  10.033   2.011   7.240  0.0028 -0.0220  0.0573
 1225ERGO    R417209  10.154   1.856   7.457 -0.2331 -0.3628 -0.0416
 1225ERGO    R517210   9.942   1.872   7.412 -0.2222  0.0553  0.0048
 1225ERGO    C117211   9.942   2.003   7.770  0.0996 -0.1203  0.0715
 1225ERGO    C217212   9.877   1.861   8.138 -0.1522  0.1515 -0.1169
 1226ERGO   ROH17213  12.105  11.530   6.295 -0.1425  0.1447 -0.0948
 1226ERGO    R117214  12.211  11.750   6.438 -0.0528  0.0389  0.0037
 1226ERGO    R217215  12.093  11.850   6.667 -0.0995  0.0818 -0.0352
 1226ERGO    R317216  12.340  11.810   6.773 -0.1816 -0.1257  0.0830
 1226ERGO    R417217  12.196  11.964   6.977 -0.1105  0.0849 -0.0329
 1226ERGO    R517218  12.389  12.014   6.889 -0.0255 -0.1367  0.0319
 1226ERGO    C117219  12.488  11.993   7.256 -0.1942 -0.1082  0.0795
 1226ERGO    C217220  12.621  11.874   7.595  0.2988 -0.1385 -0.2377
 1227ERGO   ROH17221   1.022  14.477   6.701 -0.1574  0.0296  0.0623
 1227ERGO    R117222   1.113  14.582   6.947 -0.1865  0.1314  0.0291
 1227ERGO    R217223   0.971  14.555   7.182 -0.0582 -0.0573  0.0806
 1227ERGO    R317224   1.204  14.449   7.274  0.1136  0.2279 -0.0097
 1227ERGO    R417225   1.085  14.581   7.508 -0.2748 -0.4087  0.1904
 1227ERGO    R517226   1.286  14.612   7.429 -0.2816  0.1303  0.3273
 1227ERGO    C117227   1.370  14.496   7.783 -0.2396 -0.3456  0.1695
 1227ERGO    C217228   1.389  14.465   8.039  0.2900  0.2012  0.4412
 1228ERGO   ROH17229   5.052  15.349   6.742 -0.0891 -0.1854 -0.0620
 1228ERGO    R117230   5.128  15.408   7.008  0.0491 -0.2257 -0.0936
 1228ERGO    R217231   4.978  15.331   7.227  0.0764 -0.1049 -0.0434
 1228ERGO    R317232   5.213  15.219   7.307  0.0253 -0.2658 -0.1084
 1228ERGO    R417233   5.047  15.227   7.549  0.2259  0.2617  0.0492
 1228ERGO    R517234   5.248  15.308   7.527  0.3156  0.0089 -0.2484
 1228ERGO    C117235   5.306  15.062   7.813  0.2649  0.3242  0.0420
 1228ERGO    C217236   5.489  14.822   8.115  0.2557  0.0558  0.2081
 1229ERGO   ROH17237   3.441  16.979   6.731  0.0640  0.1884 -0.0880
 1229ERGO    R117238   3.449  16.893   7.000  0.0922  0.1081 -0.1139
 1229ERGO    R217239   3.622  17.002   7.186  0.0800  0.0842 -0.0892
 1229ERGO    R317240   3.393  17.044   7.327  0.0791 -0.0011 -0.0650
 1229ERGO    R417241   3.610  17.088   7.520  0.0919  0.2422 -0.1288
 1229ERGO    R517242   3.440  16.953   7.544  0.1866  0.1367 -0.0280
 1229ERGO    C117243   3.388  17.177   7.848  0.0979  0.2542 -0.1290
 1229ERGO    C217244   3.412  17.158   8.190 -0.1411  0.0538 -0.0189
 1230ERGO   ROH17245  16.974   8.941   6.318  0.0476  0.0174 -0.0290
 1230ERGO    R117246  16.942   9.068   6.569  0.0067 -0.0537  0.0010
 1230ERGO    R217247  16.697   9.086   6.696  0.0058 -0.1762  0.0115
 1230ERGO    R317248  16.832   8.972   6.902  0.0537 -0.1715 -0.0172
 1230ERGO    R417249  16.620   9.128   7.030  0.1573 -0.0748  0.0356
 1230ERGO    R517250  16.834   9.140   7.073  0.1782 -0.1328 -0.0551
 1230ERGO    C117251  16.702   9.045   7.418  0.2903 -0.0114  0.0227
 1230ERGO    C217252  16.850   9.161   7.782  0.1568 -0.1606  0.2396
 1231ERGO   ROH17253   6.932  14.609   6.535 -0.1459 -0.1994  0.0328
 1231ERGO    R117254   6.902  14.478   6.784 -0.0674 -0.0596  0.1169
 1231ERGO    R217255   7.115  14.431   6.954  0.0157 -0.1178 -0.0033
 1231ERGO    R317256   6.958  14.560   7.134  0.2208  0.0736  0.0429
 1231ERGO    R417257   7.163  14.427   7.296  0.1301 -0.1465 -0.0189
 1231ERGO    R517258   6.947  14.411   7.321  0.1175  0.0976  0.0568
 1231ERGO    C117259   7.043  14.547   7.664  0.3893  0.0166  0.0155
 1231ERGO    C217260   6.957  14.450   8.032 -0.2729 -0.0325 -0.2046
 1232ERGO   ROH17261  10.237  12.005   6.522  0.0557 -0.1945  0.0068
 1232ERGO    R117262  10.431  11.956   6.722  0.0499 -0.0655  0.0444
 1232ERGO    R217263  10.556  12.160   6.860 -0.1419  0.0176  0.0979
 1232ERGO    R317264  10.466  12.023   7.078 -0.0835 -0.0804  0.0612
 1232ERGO    R417265  10.653  12.222   7.186 -0.0597 -0.1237  0.1015
 1232ERGO    R517266  10.658  12.007   7.221 -0.0461 -0.1396  0.0054
 1232ERGO    C117267  10.625  12.131   7.580  0.0430 -0.2980  0.0692
 1232ERGO    C217268  10.734  12.348   7.772  0.2364  0.3347  0.0280
 1233ERGO   ROH17269  15.831   9.705  10.041 -0.0321 -0.0819  0.0261
 1233ERGO    R117270  15.865   9.545   9.810 -0.1008  0.0140 -0.0498
 1233ERGO    R217271  15.722   9.587   9.578  0.0570  0.3072 -0.0900
 1233ERGO    R317272  15.969   9.596   9.465  0.1206  0.0953  0.0256
 1233ERGO    R417273  15.802   9.457   9.268  0.0771  0.2331 -0.0546
 1233ERGO    R517274  15.990   9.386   9.352 -0.0150  0.0681  0.0371
 1233ERGO    C117275  16.081   9.389   8.982  0.1485 -0.0088  0.0746
 1233ERGO    C217276  16.072   9.436   8.692  0.2105  0.2339  0.1659
 1234ERGO   ROH17277  17.717  17.232  10.213 -0.0043  0.0552 -0.0702
 1234ERGO    R117278  17.597  17.107   9.989  0.0643 -0.0776 -0.0332
 1234ERGO    R217279  17.526  17.246   9.761 -0.1858 -0.1482  0.0024
 1234ERGO    R317280  17.679  17.058   9.638 -0.0034  0.0409 -0.0676
 1234ERGO    R417281  17.496  17.153   9.430 -0.1904 -0.1384 -0.0001
 1234ERGO    R517282  17.527  16.946   9.490  0.0706 -0.1168 -0.0321
 1234ERGO    C117283  17.621  16.922   9.121 -0.0217  0.0446 -0.0673
 1234ERGO    C217284  17.559  16.831   8.772  0.0320 -0.1967  0.2016
 1235ERGO   ROH17285  11.641  15.692   6.195 -0.3375 -0.1332  0.1718
 1235ERGO    R117286  11.797  15.750   6.423 -0.2105 -0.0140  0.0569
 1235ERGO    R217287  11.723  15.940   6.610 -0.1673  0.0001  0.0629
 1235ERGO    R317288  11.755  15.734   6.785  0.0321  0.0524  0.0900
 1235ERGO    R417289  11.735  15.973   6.954  0.0465  0.0806  0.0490
 1235ERGO    R517290  11.894  15.824   6.958  0.1097  0.1475 -0.0218
 1235ERGO    C117291  11.771  15.799   7.318  0.3584  0.1766  0.0663
 1235ERGO    C217292  11.788  15.864   7.679 -0.1659 -0.2054 -0.1162
 1236ERGO   ROH17293   0.498   5.703   5.954  0.1284 -0.0924 -0.1785
 1236ERGO    R117294   0.563   5.618   6.216  0.1268 -0.0470 -0.1629
 1236ERGO    R217295   0.685   5.784   6.401 -0.1175  0.0712 -0.1012
 1236ERGO    R317296   0.472   5.714   6.555 -0.1015 -0.1738 -0.1863
 1236ERGO    R417297   0.663   5.834   6.742 -0.3540  0.1443 -0.1259
 1236ERGO    R517298   0.569   5.638   6.760 -0.0969  0.0192 -0.1160
 1236ERGO    C117299   0.450   5.798   7.085 -0.4768 -0.0431 -0.2202
 1236ERGO    C217300   0.315   5.802   7.314 -0.1869  0.1587  0.1260
 1237ERGO   ROH17301   6.746  17.398  10.279 -0.2120  0.0635  0.2371
 1237ERGO    R117302   6.673  17.552  10.053 -0.1276  0.1460  0.2652
 1237ERGO    R217303   6.600  17.437   9.812  0.0422  0.2337  0.1689
 1237ERGO    R317304   6.378  17.591   9.844 -0.0210  0.1543  0.1148
 1237ERGO    R417305   6.383  17.526   9.558  0.0003  0.0504  0.1396
 1237ERGO    R517306   6.370  17.725   9.645 -0.0802  0.0774  0.0655
 1237ERGO    C117307   6.048  17.722   9.440 -0.0835 -0.1306  0.0716
 1237ERGO    C217308   5.968  17.675   9.240  0.0720  0.2127 -0.0608
 1238ERGO   ROH17309  13.331  17.148   6.503  0.2038  0.2414  0.1042
 1238ERGO    R117310  13.329  17.252   6.767 -0.0038  0.1240  0.1509
 1238ERGO    R217311  13.136  17.184   6.952 -0.0059 -0.1564  0.0464
 1238ERGO    R317312  13.351  17.118   7.104  0.0041 -0.0022  0.1015
 1238ERGO    R417313  13.134  17.154   7.297 -0.1410 -0.3854  0.0279
 1238ERGO    R517314  13.329  17.251   7.302 -0.2513 -0.1540  0.1827
 1238ERGO    C117315  13.336  17.074   7.640 -0.2101 -0.3740  0.0690
 1238ERGO    C217316  13.298  17.098   7.949 -0.1479  0.1317 -0.2885
 1239ERGO   ROH17317   6.052   0.140   6.501 -0.3726  0.3049  0.0233
 1239ERGO    R117318   6.247  -0.012   6.639 -0.3201  0.2371 -0.1256
 1239ERGO    R217319   6.390   0.087   6.853 -0.3178  0.0953 -0.0661
 1239ERGO    R317320   6.296  -0.135   6.978 -0.2451 -0.0301 -0.2289
 1239ERGO    R417321   6.468  -0.005   7.177 -0.3563 -0.0598 -0.0997
 1239ERGO    R517322   6.480  -0.212   7.110 -0.2366 -0.0183 -0.2266
 1239ERGO    C117323   6.425  -0.268   7.483 -0.3104 -0.2679 -0.2719
 1239ERGO    C217324   6.472  -0.334   7.755  0.0220  0.1741 -0.2392
 1240ERGO   ROH17325   6.800   7.871  10.273  0.0219  0.1584 -0.1185
 1240ERGO    R117326   6.877   7.807  10.009 -0.0548 -0.1419 -0.0715
 1240ERGO    R217327   6.770   7.593   9.871 -0.4141 -0.0507  0.0497
 1240ERGO    R317328   6.713   7.782   9.684 -0.0636 -0.0595 -0.0730
 1240ERGO    R417329   6.670   7.527   9.547 -0.2088 -0.0637 -0.0124
 1240ERGO    R517330   6.797   7.691   9.479  0.0163 -0.2194  0.0309
 1240ERGO    C117331   6.558   7.667   9.183  0.2398 -0.0796 -0.1638
 1240ERGO    C217332   6.467   7.586   8.841  0.0165 -0.1130  0.1415
 1241ERGO   ROH17333   8.036   8.586  10.317 -0.0254  0.0626 -0.0248
 1241ERGO    R117334   7.920   8.737  10.108  0.1003  0.0978 -0.0703
 1241ERGO    R217335   8.045   8.775   9.865  0.0778 -0.1880 -0.1286
 1241ERGO    R317336   7.812   8.676   9.765 -0.0784  0.0487 -0.0073
 1241ERGO    R417337   7.953   8.786   9.532 -0.0368 -0.1720 -0.0965
 1241ERGO    R517338   7.749   8.833   9.595  0.0362  0.0794 -0.0253
 1241ERGO    C117339   7.681   8.699   9.244 -0.2501  0.0594  0.0360
 1241ERGO    C217340   7.778   8.812   8.950  0.1197 -0.1190  0.2219
 1242ERGO   ROH17341  12.374   2.125  10.378 -0.1088 -0.1161 -0.0994
 1242ERGO    R117342  12.332   2.134  10.098  0.0103 -0.0111 -0.1147
 1242ERGO    R217343  12.535   2.186   9.919  0.1382 -0.1821 -0.0232
 1242ERGO    R317344  12.453   1.953   9.807 -0.0613 -0.0747 -0.1049
 1242ERGO    R417345  12.462   2.144   9.584  0.1734 -0.0231 -0.0521
 1242ERGO    R517346  12.292   2.020   9.643  0.0398  0.1236 -0.1254
 1242ERGO    C117347  12.341   1.900   9.284  0.0067  0.1704 -0.1457
 1242ERGO    C217348  12.463   1.754   8.985 -0.1930 -0.2363  0.0642
 1243ERGO   ROH17349  11.397  17.444   8.306 -0.0422 -0.1515 -0.1317
 1243ERGO    R117350  11.329  17.682   8.443 -0.0798 -0.2562  0.0333
 1243ERGO    R217351  11.332  17.930   8.322  0.1275 -0.1401  0.2705
 1243ERGO    R317352  11.076  17.942   8.412  0.0452 -0.1315  0.0448
 1243ERGO    R417353  11.121  18.200   8.280  0.2710 -0.0176  0.3243
 1243ERGO    R517354  11.049  18.169   8.483  0.0688 -0.1846  0.2343
 1243ERGO    C117355  10.757  18.369   8.340  0.2772  0.0618  0.1437
 1243ERGO    C217356  10.536  18.516   8.076 -0.0718 -0.0241  0.1724
 1244ERGO   ROH17357   1.910   7.590   6.157 -0.0646  0.3083  0.0459
 1244ERGO    R117358   1.951   7.609   6.437  0.0071  0.1282  0.0489
 1244ERGO    R217359   2.111   7.432   6.576 -0.0686 -0.0471 -0.0834
 1244ERGO    R317360   2.234   7.659   6.660  0.0869 -0.1665  0.0189
 1244ERGO    R417361   2.112   7.547   6.902 -0.1004 -0.1256 -0.0551
 1244ERGO    R517362   2.086   7.749   6.826  0.0956 -0.0841 -0.0177
 1244ERGO    C117363   2.228   7.827   7.171  0.0269 -0.2835  0.0573
 1244ERGO    C217364   2.428   7.963   7.378  0.1507  0.1921  0.2145
 1245ERGO   ROH17365   1.489   4.065   7.782  0.3977 -0.2848  0.0587
 1245ERGO    R117366   1.484   4.067   7.499  0.1354 -0.1547  0.0614
 1245ERGO    R217367   1.714   4.079   7.347 -0.0119  0.1044 -0.1479
 1245ERGO    R317368   1.610   3.856   7.231  0.0635  0.0730 -0.1557
 1245ERGO    R417369   1.825   3.939   7.051  0.0403  0.1480 -0.1491
 1245ERGO    R517370   1.618   3.901   6.996  0.0537  0.0814 -0.1545
 1245ERGO    C117371   1.793   3.649   6.770  0.1414  0.1438 -0.1571
 1245ERGO    C217372   1.924   3.513   6.498  0.3408 -0.0077 -0.3307
 1246ERGO   ROH17373   0.077   4.697   6.252  0.2973 -0.1628  0.1541
 1246ERGO    R117374  -0.090   4.779   6.466  0.2379 -0.1099  0.0867
 1246ERGO    R217375  -0.076   4.666   6.717  0.1678 -0.0461  0.1140
 1246ERGO    R317376  -0.043   4.924   6.796  0.1418 -0.0270  0.0660
 1246ERGO    R417377  -0.100   4.777   7.044  0.4577 -0.0496  0.1402
 1246ERGO    R517378  -0.205   4.954   6.970  0.3034 -0.0923  0.2362
 1246ERGO    C117379  -0.084   5.084   7.308  0.6025 -0.0336  0.1105
 1246ERGO    C217380   0.081   5.253   7.594 -0.1417 -0.1282 -0.2041
 1247ERGO   ROH17381   9.157   4.380   6.163  0.2613  0.1890  0.0306
 1247ERGO    R117382   9.051   4.255   6.394  0.0656  0.1338 -0.0856
 1247ERGO    R217383   9.210   4.127   6.580 -0.0961  0.0188 -0.0160
 1247ERGO    R317384   9.085   4.294   6.754 -0.1691 -0.0038 -0.0486
 1247ERGO    R417385   9.240   4.115   6.924 -0.2337 -0.0004 -0.0048
 1247ERGO    R517386   9.027   4.155   6.940 -0.2347 -0.0133 -0.0824
 1247ERGO    C117387   9.140   4.265   7.288 -0.3824 -0.0327 -0.0288
 1247ERGO    C217388   9.236   4.215   7.536  0.1830 -0.0129 -0.1355
 1248ERGO   ROH17389   2.461   4.664  10.233  0.2813 -0.1654  0.0588
 1248ERGO    R117390   2.337   4.845  10.054  0.1723 -0.1754  0.1247
 1248ERGO    R217391   2.479   4.985   9.863  0.1007  0.0490  0.2410
 1248ERGO    R317392   2.297   4.875   9.693  0.2405 -0.0119  0.1281
 1248ERGO    R417393   2.321   5.154   9.606 -0.1580  0.1464  0.4579
 1248ERGO    R517394   2.137   5.049   9.657 -0.0133 -0.1829  0.3564
 1248ERGO    C117395   2.059   5.149   9.297 -0.1774  0.1460  0.4780
 1248ERGO    C217396   2.154   5.144   8.972 -0.1142 -0.1849  0.1416
 1249ERGO   ROH17397   6.574   8.107   6.296  0.2934  0.1407 -0.0117
 1249ERGO    R117398   6.659   8.259   6.520  0.1404  0.1622  0.0336
 1249ERGO    R217399   6.482   8.362   6.706  0.0310 -0.0603  0.0611
 1249ERGO    R317400   6.640   8.229   6.882  0.1579  0.0396  0.0237
 1249ERGO    R417401   6.531   8.452   7.036 -0.0841 -0.1338  0.0987
 1249ERGO    R517402   6.741   8.400   7.014 -0.0299  0.0939  0.0951
 1249ERGO    C117403   6.708   8.379   7.393 -0.0321 -0.0830  0.0854
 1249ERGO    C217404   6.693   8.539   7.726  0.1276  0.0953  0.1507
 1250ERGO   ROH17405   1.356  15.947   7.000  0.1151  0.0773 -0.0498
 1250ERGO    R117406   1.409  15.962   7.278 -0.0255 -0.2232 -0.0049
 1250ERGO    R217407   1.387  16.197   7.421  0.4104 -0.2628  0.1215
 1250ERGO    R317408   1.223  16.048   7.578 -0.0302 -0.0019 -0.0658
 1250ERGO    R417409   1.269  16.294   7.731  0.6024 -0.2393  0.1910
 1250ERGO    R517410   1.300  16.090   7.801  0.0524 -0.4183  0.0012
 1250ERGO    C117411   1.046  16.210   8.059  0.3007  0.0196  0.0555
 1250ERGO    C217412   0.905  16.278   8.319  0.0283 -0.1237 -0.1993
 1251ERGO   ROH17413  11.921   1.471   6.675 -0.0388  0.0272  0.0106
 1251ERGO    R117414  12.038   1.510   6.929 -0.1444 -0.1585  0.0897
 1251ERGO    R217415  12.077   1.761   7.039  0.1392 -0.2183  0.1322
 1251ERGO    R317416  11.938   1.656   7.247 -0.1440 -0.0416  0.0370
 1251ERGO    R417417  12.024   1.920   7.340  0.1435 -0.1483  0.0959
 1251ERGO    R517418  12.057   1.730   7.441 -0.1746 -0.1990  0.1190
 1251ERGO    C117419  11.862   1.915   7.712 -0.1198  0.0583 -0.0146
 1251ERGO    C217420  11.871   2.219   7.802  0.0214  0.1216  0.1985
 1252ERGO   ROH17421  13.678  13.195   8.448  0.3993  0.1912 -0.1288
 1252ERGO    R117422  13.894  13.116   8.282  0.2570 -0.0432 -0.2055
 1252ERGO    R217423  14.113  12.978   8.379  0.2731 -0.0185 -0.2245
 1252ERGO    R317424  14.049  12.803   8.181  0.0827 -0.1966 -0.0130
 1252ERGO    R417425  14.335  12.762   8.227  0.1816 -0.0146 -0.3696
 1252ERGO    R517426  14.240  12.805   8.036 -0.1082 -0.2000 -0.2796
 1252ERGO    C117427  14.405  12.471   7.954 -0.0506 -0.1794 -0.2556
 1252ERGO    C217428  14.392  12.152   7.906 -0.1781 -0.2388  0.0149
 1253ERGO   ROH17429   0.887  11.615   6.562 -0.1241  0.2102 -0.0030
 1253ERGO    R117430   0.863  11.507   6.823 -0.1792 -0.0498 -0.1133
 1253ERGO    R217431   0.793  11.659   7.042  0.1190 -0.1891  0.0867
 1253ERGO    R317432   0.600  11.471   7.071 -0.1410  0.0472 -0.0589
 1253ERGO    R417433   0.668  11.551   7.345  0.0417 -0.3241  0.0077
 1253ERGO    R517434   0.666  11.348   7.266 -0.2631 -0.2460 -0.1979
 1253ERGO    C117435   0.413  11.311   7.549 -0.2474 -0.1806 -0.1750
 1253ERGO    C217436   0.248  11.446   7.810  0.1120 -0.0330 -0.1308
 1254ERGO   ROH17437  15.601   7.278   6.415  0.2513  0.2059 -0.0316
 1254ERGO    R117438  15.531   7.165   6.664  0.0215  0.1354 -0.1259
 1254ERGO    R217439  15.673   7.216   6.896 -0.0079 -0.1685 -0.0371
 1254ERGO    R317440  15.429   7.289   6.991  0.0373  0.0589 -0.0920
 1254ERGO    R417441  15.577   7.206   7.228 -0.1068 -0.1217 -0.0638
 1254ERGO    R517442  15.383   7.133   7.166 -0.1639  0.0786 -0.1257
 1254ERGO    C117443  15.293   7.269   7.510 -0.1220  0.1191 -0.1310
 1254ERGO    C217444  15.255   7.315   7.788  0.1854 -0.0048  0.0902
 1255ERGO   ROH17445  12.652   0.217  10.449  0.1333 -0.0773  0.0100
 1255ERGO    R117446  12.789   0.106  10.227  0.0502 -0.0290 -0.0654
 1255ERGO    R217447  12.687   0.115   9.970 -0.0020  0.1110 -0.0398
 1255ERGO    R317448  12.928   0.228   9.913  0.0231  0.0570 -0.0441
 1255ERGO    R417449  12.837   0.112   9.659 -0.1236  0.2941 -0.1023
 1255ERGO    R517450  13.029   0.077   9.758 -0.0989  0.1368 -0.2038
 1255ERGO    C117451  13.150   0.217   9.424 -0.1709  0.3501 -0.1427
 1255ERGO    C217452  13.338   0.405   9.198  0.2557 -0.1764 -0.0463
 1256ERGO   ROH17453   3.771  14.340   6.753 -0.0275  0.0575  0.1143
 1256ERGO    R117454   3.922  14.150   6.898  0.0525  0.0932  0.0803
 1256ERGO    R217455   4.145  14.218   7.046  0.0028  0.1682  0.1309
 1256ERGO    R317456   4.011  14.094   7.246  0.0344  0.0450  0.0755
 1256ERGO    R417457   4.290  14.102   7.337  0.0363 -0.0144  0.0421
 1256ERGO    R517458   4.163  13.925   7.323  0.0383 -0.0016 -0.0465
 1256ERGO    C117459   4.249  13.917   7.695  0.0854 -0.2365 -0.0616
 1256ERGO    C217460   4.184  14.115   8.013  0.0846  0.2421 -0.0416
 1257ERGO   ROH17461   7.356   0.291  10.673 -0.2745  0.1673 -0.0417
 1257ERGO    R117462   7.361   0.428  10.425 -0.2068  0.1283 -0.0642
 1257ERGO    R217463   7.545   0.369  10.226 -0.1114  0.1304  0.0064
 1257ERGO    R317464   7.321   0.340  10.074 -0.0539  0.0547 -0.0604
 1257ERGO    R417465   7.540   0.346   9.881 -0.0240  0.0967  0.0085
 1257ERGO    R517466   7.363   0.472   9.879 -0.0473  0.0383 -0.0572
 1257ERGO    C117467   7.327   0.306   9.538  0.0808  0.0061 -0.0530
 1257ERGO    C217468   7.366   0.354   9.219 -0.4672 -0.0511 -0.3350
 1258ERGO   ROH17469  15.311   1.881   6.741 -0.2033  0.1918  0.0222
 1258ERGO    R117470  15.303   1.820   7.018 -0.1758  0.1843  0.0206
 1258ERGO    R217471  15.488   1.921   7.197 -0.0212 -0.0051 -0.0332
 1258ERGO    R317472  15.266   2.006   7.328  0.1024  0.2051  0.0453
 1258ERGO    R417473  15.437   1.894   7.538  0.0264 -0.0694 -0.0303
 1258ERGO    R517474  15.229   1.842   7.498 -0.0482  0.1815 -0.0054
 1258ERGO    C117475  15.199   1.960   7.860  0.1702  0.0904  0.0452
 1258ERGO    C217476  15.402   2.005   8.099  0.2948 -0.2404 -0.1371
 1259ERGO   ROH17477   4.488   1.682   6.484  0.2853 -0.0587 -0.0457
 1259ERGO    R117478   4.698   1.696   6.673  0.2189 -0.0127  0.0269
 1259ERGO    R217479   4.853   1.922   6.706  0.1923  0.0081  0.0476
 1259ERGO    R317480   4.777   1.897   6.966  0.0976  0.0404  0.0222
 1259ERGO    R417481   5.005   2.081   6.973  0.2185 -0.1192  0.1079
 1259ERGO    R517482   4.983   1.897   7.089  0.0581 -0.1103  0.0857
 1259ERGO    C117483   5.022   2.149   7.372  0.1449 -0.1631  0.1192
 1259ERGO    C217484   5.044   2.402   7.529 -0.1716  0.0341 -0.2013
 1260ERGO   ROH17485  12.273   3.308   6.467  0.0236 -0.0000 -0.1449
 1260ERGO    R117486  12.211   3.244   6.736  0.0575 -0.1126 -0.1626
 1260ERGO    R217487  12.403   3.240   6.936  0.0544 -0.0244 -0.1531
 1260ERGO    R317488  12.231   3.412   7.058 -0.0767 -0.1772 -0.1210
 1260ERGO    R417489  12.335   3.243   7.274  0.1967 -0.0120 -0.1246
 1260ERGO    R517490  12.125   3.279   7.227  0.1376 -0.2478 -0.0417
 1260ERGO    C117491  12.134   3.406   7.587  0.1566 -0.1483 -0.0778
 1260ERGO    C217492  12.057   3.593   7.892  0.3120  0.0581  0.0863
 1261ERGO   ROH17493  14.233   8.855  10.274 -0.2093  0.0551 -0.1416
 1261ERGO    R117494  14.369   8.796  10.033 -0.1245  0.0007 -0.0803
 1261ERGO    R217495  14.309   8.575   9.879 -0.0747 -0.0276 -0.0539
 1261ERGO    R317496  14.282   8.761   9.682  0.0029 -0.0706 -0.1064
 1261ERGO    R417497  14.439   8.545   9.560 -0.0046 -0.1366 -0.0157
 1261ERGO    R517498  14.492   8.756   9.567  0.0326 -0.1402 -0.0560
 1261ERGO    C117499  14.489   8.701   9.189  0.1090 -0.2405 -0.0431
 1261ERGO    C217500  14.714   8.533   8.991  0.0618 -0.1345  0.1515
 1262ERGO   ROH17501  16.337   4.440  10.161  0.0090 -0.0069 -0.0112
 1262ERGO    R117502  16.467   4.411   9.911 -0.1579 -0.0674 -0.0933
 1262ERGO    R217503  16.705   4.273   9.882 -0.0164  0.1810 -0.1627
 1262ERGO    R317504  16.565   4.136   9.694 -0.0162 -0.1441  0.0660
 1262ERGO    R417505  16.845   4.064   9.646  0.0526  0.2741 -0.2047
 1262ERGO    R517506  16.705   4.143   9.499 -0.2417 -0.0247 -0.0957
 1262ERGO    C117507  16.796   3.813   9.332  0.0929  0.0232 -0.0146
 1262ERGO    C217508  16.992   3.695   9.073 -0.0753  0.1169 -0.1036
 1263ERGO   ROH17509   0.439   2.313  10.024 -0.1119 -0.0334  0.0256
 1263ERGO    R117510   0.583   2.360   9.785 -0.0095 -0.1461  0.0635
 1263ERGO    R217511   0.678   2.155   9.625 -0.2064 -0.2243  0.0409
 1263ERGO    R317512   0.540   2.286   9.431 -0.0244 -0.0274  0.0405
 1263ERGO    R417513   0.698   2.086   9.287 -0.1328 -0.0945  0.0182
 1263ERGO    R517514   0.693   2.300   9.248  0.0579 -0.0732  0.1067
 1263ERGO    C117515   0.580   2.168   8.908  0.0808  0.1659  0.0045
 1263ERGO    C217516   0.553   2.213   8.512 -0.0105  0.0513  0.1190
 1264ERGO   ROH17517  13.500  15.163   6.350 -0.0618 -0.1223  0.0500
 1264ERGO    R117518  13.555  15.272   6.605  0.0185 -0.0364 -0.0035
 1264ERGO    R217519  13.376  15.255   6.816  0.0800  0.0466  0.0523
 1264ERGO    R317520  13.588  15.145   6.945  0.1107  0.0813  0.0332
 1264ERGO    R417521  13.406  15.226   7.159  0.0594 -0.0499  0.0469
 1264ERGO    R517522  13.616  15.280   7.140  0.0447  0.0328  0.0794
 1264ERGO    C117523  13.622  15.107   7.480  0.0761 -0.0734  0.0258
 1264ERGO    C217524  13.677  15.069   7.782  0.2864 -0.0897 -0.2140
 1265ERGO   ROH17525  17.599   2.371   6.328  0.1621 -0.0904  0.1279
 1265ERGO    R117526  17.631   2.590   6.504 -0.0720  0.0510 -0.0044
 1265ERGO    R217527  17.416   2.733   6.604 -0.2369 -0.2917  0.1102
 1265ERGO    R317528  17.530   2.673   6.844  0.0833  0.0340  0.0507
 1265ERGO    R417529  17.345   2.892   6.903 -0.4622 -0.3922  0.1138
 1265ERGO    R517530  17.557   2.885   6.952 -0.3827  0.1521 -0.0203
 1265ERGO    C117531  17.410   2.929   7.301 -0.2927 -0.1449  0.0601
 1265ERGO    C217532  17.341   3.040   7.659  0.0560  0.0186 -0.0289
 1266ERGO   ROH17533   7.600  16.099  10.342  0.3975 -0.3530  0.0425
 1266ERGO    R117534   7.569  15.988  10.083  0.1694 -0.1735 -0.0112
 1266ERGO    R217535   7.446  16.123   9.877  0.1624  0.0523  0.1339
 1266ERGO    R317536   7.678  16.069   9.746  0.0525 -0.0536 -0.0198
 1266ERGO    R417537   7.477  16.092   9.534 -0.0756  0.0094  0.1145
 1266ERGO    R517538   7.613  15.925   9.566 -0.1236 -0.0407  0.0353
 1266ERGO    C117539   7.713  16.023   9.212 -0.3173 -0.1149 -0.0409
 1266ERGO    C217540   7.907  15.909   8.953  0.0558 -0.3266  0.2013
 1267ERGO   ROH17541   6.734  16.415   6.238  0.1794 -0.0642 -0.0941
 1267ERGO    R117542   6.866  16.270   6.442  0.4155  0.0705 -0.1468
 1267ERGO    R217543   7.041  16.389   6.620  0.0793  0.3356  0.0192
 1267ERGO    R317544   6.877  16.277   6.806  0.2355 -0.1725 -0.1344
 1267ERGO    R417545   7.123  16.343   6.952 -0.0321  0.4586  0.0647
 1267ERGO    R517546   7.025  16.148   6.944  0.4955  0.1789 -0.0707
 1267ERGO    C117547   7.018  16.210   7.320  0.0496  0.0534 -0.0530
 1267ERGO    C217548   7.062  16.355   7.587  0.0372  0.2509  0.1882
 1268ERGO   ROH17549  10.590   4.425   9.989  0.1814  0.0135 -0.0089
 1268ERGO    R117550  10.600   4.374   9.711  0.1205  0.2829 -0.0629
 1268ERGO    R217551  10.418   4.212   9.583  0.4189 -0.0488 -0.0739
 1268ERGO    R317552  10.384   4.429   9.423 -0.2145  0.0222  0.1306
 1268ERGO    R417553  10.310   4.198   9.255  0.8595 -0.1282 -0.2233
 1268ERGO    R517554  10.456   4.354   9.207  0.3528  0.5098  0.1221
 1268ERGO    C117555  10.214   4.394   8.914  0.5214 -0.1077 -0.1181
 1268ERGO    C217556  10.035   4.357   8.626  0.0732 -0.3026 -0.0827
 1269ERGO   ROH17557  10.970   9.221   6.530 -0.2451  0.0716  0.0648
 1269ERGO    R117558  11.074   9.171   6.789 -0.1303 -0.1023 -0.0118
 1269ERGO    R217559  10.953   9.265   7.019  0.1392  0.0176  0.0927
 1269ERGO    R317560  10.962   9.003   7.091 -0.1434 -0.0105  0.0327
 1269ERGO    R417561  10.992   9.150   7.343  0.4002 -0.1005  0.0209
 1269ERGO    R517562  11.124   8.995   7.267  0.0772 -0.2796 -0.1812
 1269ERGO    C117563  11.023   8.838   7.599  0.2868 -0.1956 -0.0772
 1269ERGO    C217564  10.807   8.644   7.758  0.1170 -0.0499  0.0066
 1270ERGO   ROH17565  14.591   9.755   6.204 -0.2762  0.2507  0.1076
 1270ERGO    R117566  14.800   9.877   6.350 -0.1547  0.1847 -0.0108
 1270ERGO    R217567  14.759  10.097   6.513 -0.0074  0.1500  0.0670
 1270ERGO    R317568  14.877   9.939   6.700  0.1049  0.0935 -0.0480
 1270ERGO    R417569  14.847  10.200   6.831  0.0513  0.0259  0.0925
 1270ERGO    R517570  15.031  10.084   6.812  0.0900  0.0957 -0.0231
 1270ERGO    C117571  15.008  10.111   7.192  0.1908 -0.0994 -0.0007
 1270ERGO    C217572  15.054  10.152   7.543 -0.4450  0.0515  0.0566
 1271ERGO   ROH17573   1.401   3.966   8.218  0.0895 -0.0113 -0.1232
 1271ERGO    R117574   1.145   3.894   8.121  0.0890 -0.1732 -0.0060
 1271ERGO    R217575   0.957   3.764   8.276  0.1043  0.0470  0.1999
 1271ERGO    R317576   0.799   3.973   8.202  0.0881 -0.0686 -0.1064
 1271ERGO    R417577   0.612   3.762   8.282  0.1055  0.0662  0.3199
 1271ERGO    R517578   0.613   3.869   8.093  0.0475 -0.2546  0.1282
 1271ERGO    C117579   0.262   3.955   8.216  0.0910 -0.0312  0.1022
 1271ERGO    C217580  -0.037   3.782   8.253 -0.0970  0.2746 -0.3589
 1272ERGO   ROH17581  13.643   3.815   6.733 -0.3013  0.4210 -0.1534
 1272ERGO    R117582  13.689   3.736   7.001 -0.2168  0.2534 -0.2163
 1272ERGO    R217583  13.780   3.912   7.194 -0.0340  0.1016 -0.1655
 1272ERGO    R317584  13.560   3.827   7.329 -0.0154  0.1464 -0.1045
 1272ERGO    R417585  13.726   3.956   7.532  0.0287  0.1952 -0.1665
 1272ERGO    R517586  13.644   3.755   7.541  0.0206  0.1987 -0.0988
 1272ERGO    C117587  13.487   3.902   7.856  0.0829  0.2918 -0.1098
 1272ERGO    C217588  13.284   3.915   8.196 -0.3172  0.2693 -0.1998
 1273ERGO   ROH17589  14.679   8.304   6.184 -0.0188  0.2377  0.0365
 1273ERGO    R117590  14.769   8.278   6.451 -0.0197  0.1289  0.0255
 1273ERGO    R217591  14.749   8.483   6.636 -0.0148  0.0528  0.1052
 1273ERGO    R317592  14.621   8.293   6.783 -0.0170 -0.0011  0.0339
 1273ERGO    R417593  14.752   8.463   6.981 -0.1292  0.0077  0.1049
 1273ERGO    R517594  14.769   8.247   6.964 -0.0668  0.0131  0.0802
 1273ERGO    C117595  14.633   8.274   7.320 -0.1981 -0.0692  0.0376
 1273ERGO    C217596  14.528   8.369   7.656  0.1243  0.3263  0.0900
 1274ERGO   ROH17597   4.775   5.945   6.267  0.0271  0.2234 -0.0036
 1274ERGO    R117598   4.832   6.044   6.526 -0.0067  0.2443 -0.0046
 1274ERGO    R217599   4.653   6.199   6.669 -0.1103  0.0773  0.0453
 1274ERGO    R317600   4.692   6.009   6.860  0.0875  0.0890  0.0202
 1274ERGO    R417601   4.674   6.261   7.008 -0.1757  0.0557  0.0539
 1274ERGO    R517602   4.835   6.114   7.020 -0.0198  0.2188  0.0343
 1274ERGO    C117603   4.722   6.118   7.385 -0.0279  0.0541  0.0353
 1274ERGO    C217604   4.660   5.925   7.710 -0.2405  0.1981  0.1768
 1275ERGO   ROH17605  16.650   6.565   6.573  0.0788  0.0895 -0.0309
 1275ERGO    R117606  16.790   6.644   6.806  0.0014 -0.0086  0.0481
 1275ERGO    R217607  16.662   6.735   7.033 -0.0661  0.0032 -0.0032
 1275ERGO    R317608  16.805   6.538   7.154 -0.2022 -0.0719  0.0414
 1275ERGO    R417609  16.744   6.728   7.369  0.1189  0.1546 -0.0430
 1275ERGO    R517610  16.941   6.653   7.314  0.0170 -0.0955 -0.1152
 1275ERGO    C117611  16.927   6.539   7.678  0.0989  0.1721 -0.0243
 1275ERGO    C217612  16.822   6.487   8.068 -0.1273 -0.1711  0.0883
 1276ERGO   ROH17613   1.574   0.711   6.593  0.0610  0.2341  0.0242
 1276ERGO    R117614   1.603   0.806   6.858 -0.1539  0.1403  0.0833
 1276ERGO    R217615   1.390   0.823   7.034 -0.2733 -0.0453 -0.0403
 1276ERGO    R317616   1.553   0.674   7.193 -0.2932 -0.0251 -0.0010
 1276ERGO    R417617   1.442   0.880   7.371 -0.3368 -0.0202 -0.0344
 1276ERGO    R517618   1.653   0.834   7.341 -0.3289 -0.0097  0.0066
 1276ERGO    C117619   1.625   0.773   7.716 -0.3924  0.0133  0.0059
 1276ERGO    C217620   1.536   0.718   8.004  0.2512 -0.0077 -0.1343
 1277ERGO   ROH17621   3.882  12.667   6.926  0.0202 -0.3153  0.0086
 1277ERGO    R117622   3.793  12.718   7.190  0.3094  0.2623  0.0093
 1277ERGO    R217623   3.750  12.516   7.374 -0.4805  0.5491  0.1592
 1277ERGO    R317624   3.919  12.663   7.527  0.2152 -0.0267  0.0057
 1277ERGO    R417625   3.808  12.463   7.710 -0.7378  0.5841  0.2132
 1277ERGO    R517626   3.809  12.679   7.739  0.2338  0.6743  0.0015
 1277ERGO    C117627   4.001  12.570   8.050 -0.2345  0.0639  0.1007
 1277ERGO    C217628   4.220  12.516   8.267  0.4407  0.0635 -0.0379
 1278ERGO   ROH17629  16.673  17.633   6.661  0.1108 -0.0232 -0.0698
 1278ERGO    R117630  16.687  17.494   6.907  0.2579 -0.0758 -0.1067
 1278ERGO    R217631  16.871  17.555   7.103  0.1309  0.1342 -0.0521
 1278ERGO    R317632  16.650  17.576   7.259  0.0651 -0.2260 -0.0893
 1278ERGO    R417633  16.865  17.505   7.445  0.1951  0.2621 -0.0314
 1278ERGO    R517634  16.675  17.401   7.421  0.3873 -0.1194 -0.0139
 1278ERGO    C117635  16.654  17.494   7.791  0.1706 -0.0014 -0.0543
 1278ERGO    C217636  16.502  17.508   8.130 -0.1149  0.2674  0.1216
 1279ERGO   ROH17637  15.560  14.502  10.380  0.0520 -0.3743 -0.0746
 1279ERGO    R117638  15.410  14.463  10.143 -0.0361 -0.1806 -0.0529
 1279ERGO    R217639  15.338  14.671   9.976  0.1833 -0.0807 -0.0272
 1279ERGO    R317640  15.459  14.518   9.787 -0.0279 -0.2150 -0.0572
 1279ERGO    R417641  15.300  14.713   9.635  0.4310  0.2044 -0.0234
 1279ERGO    R517642  15.294  14.496   9.614  0.0036  0.2202 -0.1543
 1279ERGO    C117643  15.392  14.595   9.259  0.3770  0.2443 -0.0493
 1279ERGO    C217644  15.367  14.492   8.913  0.0568 -0.0930 -0.3955
 1280ERGO   ROH17645  12.636   4.236   6.871 -0.2063 -0.0365 -0.0652
 1280ERGO    R117646  12.544   4.282   7.134 -0.0633 -0.0304 -0.0157
 1280ERGO    R217647  12.662   4.165   7.355 -0.0302 -0.1361 -0.0895
 1280ERGO    R317648  12.680   4.422   7.442  0.1535 -0.1605 -0.0499
 1280ERGO    R417649  12.621   4.266   7.683  0.0491 -0.1569 -0.0726
 1280ERGO    R517650  12.511   4.440   7.610  0.1691 -0.0669 -0.0434
 1280ERGO    C117651  12.614   4.567   7.955  0.2677 -0.1920 -0.0255
 1280ERGO    C217652  12.643   4.685   8.319 -0.0169 -0.0194  0.0129
 1281ERGO   ROH17653  14.454   1.796   6.629  0.1897  0.0304 -0.0266
 1281ERGO    R117654  14.367   1.545   6.726  0.0272  0.0999  0.0090
 1281ERGO    R217655  14.540   1.358   6.833 -0.0856 -0.0201 -0.0201
 1281ERGO    R317656  14.370   1.369   7.045 -0.0299  0.1159  0.0191
 1281ERGO    R417657  14.490   1.102   7.059 -0.2552  0.0076 -0.0243
 1281ERGO    R517658  14.277   1.149   7.058 -0.2181  0.1926  0.0263
 1281ERGO    C117659  14.302   0.963   7.390 -0.3017  0.1514  0.0102
 1281ERGO    C217660  14.432   0.657   7.569 -0.0032  0.2696  0.1965
 1282ERGO   ROH17661  12.983   5.718   6.428  0.0211 -0.0255 -0.0031
 1282ERGO    R117662  12.811   5.763   6.648  0.0638  0.1392 -0.0022
 1282ERGO    R217663  12.725   5.559   6.813 -0.0726  0.2317  0.0399
 1282ERGO    R317664  12.826   5.719   7.009  0.0503  0.1970  0.0060
 1282ERGO    R417665  12.728   5.481   7.150 -0.1481  0.3033  0.0578
 1282ERGO    R517666  12.677   5.688   7.194  0.0165  0.3583  0.0085
 1282ERGO    C117667  12.826   5.586   7.530 -0.0765  0.3123  0.0364
 1282ERGO    C217668  12.943   5.537   7.910 -0.0781  0.0043 -0.0177
 1283ERGO   ROH17669  12.369  12.760   6.374 -0.2458 -0.1416  0.1853
 1283ERGO    R117670  12.367  12.620   6.619 -0.0059 -0.1403  0.1903
 1283ERGO    R217671  12.586  12.480   6.713  0.1492  0.0219  0.0702
 1283ERGO    R317672  12.550  12.634   6.934  0.1604 -0.0027  0.0905
 1283ERGO    R417673  12.669  12.385   7.035 -0.1495 -0.1581  0.0983
 1283ERGO    R517674  12.484  12.479   7.104 -0.1061  0.0083  0.0056
 1283ERGO    C117675  12.683  12.475   7.430 -0.3129 -0.2861  0.1337
 1283ERGO    C217676  12.750  12.360   7.737 -0.2725 -0.0608  0.2479
 1284ERGO   ROH17677  12.675  10.444   6.304 -0.0528  0.0558 -0.0906
 1284ERGO    R117678  12.666  10.516   6.578 -0.1729  0.0410 -0.0914
 1284ERGO    R217679  12.431  10.513   6.724 -0.2034 -0.1410 -0.1502
 1284ERGO    R317680  12.576  10.354   6.891 -0.1241 -0.0350 -0.1150
 1284ERGO    R417681  12.429  10.534   7.069 -0.3739 -0.1938 -0.1465
 1284ERGO    R517682  12.644  10.500   7.068 -0.3355  0.0065 -0.0613
 1284ERGO    C117683  12.563  10.397   7.427 -0.3988 -0.1248 -0.1113
 1284ERGO    C217684  12.500  10.530   7.731  0.1623  0.2955 -0.0579
 1285ERGO   ROH17685   5.709  14.107   6.666  0.0196 -0.1438 -0.0571
 1285ERGO    R117686   5.760  14.026   6.933  0.0893 -0.1913 -0.0862
 1285ERGO    R217687   6.001  13.915   7.012  0.2489  0.1573 -0.0918
 1285ERGO    R317688   5.995  14.115   7.196 -0.1083  0.0611  0.0131
 1285ERGO    R417689   6.113  13.887   7.338  0.3107  0.1733 -0.1101
 1285ERGO    R517690   5.941  14.005   7.401  0.0864 -0.1584 -0.0406
 1285ERGO    C117691   6.172  14.059   7.700  0.0112  0.0922 -0.0223
 1285ERGO    C217692   6.177  14.082   7.985 -0.1780 -0.0698 -0.1535
 1286ERGO   ROH17693  10.653   9.234  10.408  0.0194  0.1517 -0.0006
 1286ERGO    R117694  10.552   9.258  10.144  0.0802  0.1091 -0.0272
 1286ERGO    R217695  10.715   9.250   9.921  0.1266  0.0419  0.0128
 1286ERGO    R317696  10.545   9.052   9.844  0.1185  0.0479  0.0125
 1286ERGO    R417697  10.603   9.199   9.598 -0.1257  0.2475  0.0632
 1286ERGO    R517698  10.406   9.153   9.678 -0.0504  0.1341  0.1982
 1286ERGO    C117699  10.379   8.982   9.338 -0.2803  0.3731  0.0923
 1286ERGO    C217700  10.286   8.949   8.965 -0.0701  0.1311 -0.6153
 1287ERGO   ROH17701   6.955   6.119   6.063 -0.0850 -0.1442 -0.0651
 1287ERGO    R117702   6.808   6.004   6.276 -0.0507 -0.0576  0.0059
 1287ERGO    R217703   6.870   5.758   6.384 -0.0801 -0.0479  0.0462
 1287ERGO    R317704   6.876   5.897   6.617  0.0235  0.0060  0.0113
 1287ERGO    R417705   6.741   5.646   6.684  0.0692  0.0124  0.1335
 1287ERGO    R517706   6.667   5.848   6.722  0.0756  0.0171  0.1226
 1287ERGO    C117707   6.672   5.712   7.078  0.2534  0.0979  0.1516
 1287ERGO    C217708   6.840   5.660   7.411 -0.2688  0.1579 -0.0944
 1288ERGO   ROH17709   4.392  10.614   6.331  0.0803 -0.1136  0.0826
 1288ERGO    R117710   4.395  10.466   6.572  0.0401 -0.0915  0.0973
 1288ERGO    R217711   4.500  10.565   6.807  0.1561 -0.1328  0.0654
 1288ERGO    R317712   4.255  10.501   6.907  0.1359  0.0319  0.1247
 1288ERGO    R417713   4.443  10.435   7.122  0.1540 -0.1884  0.0417
 1288ERGO    R517714   4.293  10.302   7.034  0.0181 -0.0405  0.0476
 1288ERGO    C117715   4.179  10.298   7.398  0.1339 -0.0660  0.0835
 1288ERGO    C217716   4.056  10.255   7.711  0.1229 -0.1972 -0.2085
 1289ERGO   ROH17717   7.495  10.536   8.310  0.0827 -0.0430 -0.1764
 1289ERGO    R117718   7.416  10.807   8.325 -0.2295 -0.1214 -0.3150
 1289ERGO    R217719   7.594  11.016   8.292 -0.3023  0.0689  0.3362
 1289ERGO    R317720   7.417  11.095   8.102  0.2124 -0.0409 -0.2169
 1289ERGO    R417721   7.568  11.338   8.170 -0.2610  0.0981  0.4051
 1289ERGO    R517722   7.351  11.315   8.170 -0.2608 -0.1462 -0.3126
 1289ERGO    C117723   7.386  11.600   7.919  0.2461  0.0122 -0.0739
 1289ERGO    C217724   7.565  11.914   7.783 -0.2592 -0.2463 -0.1833
 1290ERGO   ROH17725  16.273   6.082  10.203  0.1256 -0.0471  0.1872
 1290ERGO    R117726  16.233   6.104   9.924 -0.0674  0.0767  0.2226
 1290ERGO    R217727  16.360   5.940   9.742  0.0549  0.3598  0.0442
 1290ERGO    R317728  16.106   5.893   9.657  0.0643  0.0686  0.1654
 1290ERGO    R417729  16.267   5.902   9.411 -0.0553  0.2290  0.0896
 1290ERGO    R517730  16.087   6.019   9.454 -0.1696  0.0336  0.1618
 1290ERGO    C117731  15.974   5.835   9.139 -0.1104 -0.1205  0.2297
 1290ERGO    C217732  15.787   5.778   8.833  0.1791  0.0218  0.2056
 1291ERGO   ROH17733  14.424  16.459   6.144  0.0150 -0.0948 -0.1615
 1291ERGO    R117734  14.365  16.365   6.405 -0.0365 -0.0802 -0.1676
 1291ERGO    R217735  14.499  16.151   6.519 -0.0056 -0.0238 -0.0998
 1291ERGO    R317736  14.545  16.329   6.719 -0.1230  0.0149 -0.1063
 1291ERGO    R417737  14.539  16.069   6.852  0.2774 -0.0165 -0.1298
 1291ERGO    R517738  14.421  16.244   6.905  0.0806 -0.1670 -0.0481
 1291ERGO    C117739  14.606  16.188   7.234  0.3319  0.0243 -0.1534
 1291ERGO    C217740  14.621  16.191   7.604 -0.2253 -0.0035 -0.0036
 1292ERGO   ROH17741  12.852   1.259   6.616  0.2557 -0.3344  0.0031
 1292ERGO    R117742  12.918   1.164   6.875  0.4236 -0.0267  0.0809
 1292ERGO    R217743  13.006   1.330   7.077  0.0242  0.3102 -0.0007
 1292ERGO    R317744  12.800   1.218   7.214  0.2345 -0.0613  0.0201
 1292ERGO    R417745  12.956   1.358   7.418  0.1301  0.0110  0.0403
 1292ERGO    R517746  12.897   1.148   7.422  0.4155 -0.0711 -0.0705
 1292ERGO    C117747  12.734   1.268   7.745  0.3892 -0.5119  0.0837
 1292ERGO    C217748  12.608   1.217   8.062  0.2670 -0.1171  0.1123
 1293ERGO   ROH17749   7.323  17.735   6.524  0.0619  0.0262 -0.0616
 1293ERGO    R117750   7.468  17.658   6.755 -0.1065 -0.1073  0.0035
 1293ERGO    R217751   7.617  17.837   6.903  0.2499 -0.2909 -0.1096
 1293ERGO    R317752   7.466  17.743   7.108  0.0295  0.1525 -0.0574
 1293ERGO    R417753   7.703  17.858   7.237  0.2496 -0.2468 -0.1129
 1293ERGO    R517754   7.625  17.656   7.265 -0.1673 -0.0729  0.0165
 1293ERGO    C117755   7.611  17.781   7.625  0.0426  0.1952 -0.0658
 1293ERGO    C217756   7.719  17.815   7.881 -0.0110  0.0650  0.3725
 1294ERGO   ROH17757  14.030  16.115  10.641 -0.1813 -0.3232  0.1919
 1294ERGO    R117758  14.104  16.168  10.373 -0.1324 -0.1412  0.2403
 1294ERGO    R217759  14.238  15.984  10.215 -0.0997 -0.0344  0.1398
 1294ERGO    R317760  14.031  16.028  10.045 -0.0695  0.0767  0.1312
 1294ERGO    R417761  14.243  15.917   9.876 -0.1359 -0.0713  0.1465
 1294ERGO    R517762  14.134  16.103   9.843 -0.0201 -0.0079  0.1256
 1294ERGO    C117763  14.051  15.919   9.519 -0.1287  0.0114  0.1424
 1294ERGO    C217764  14.037  15.993   9.185 -0.1561  0.0246  0.0801
 1295ERGO   ROH17765  13.817   5.036   6.557 -0.2489 -0.3227  0.1113
 1295ERGO    R117766  13.841   5.243   6.749  0.0078 -0.2156 -0.0314
 1295ERGO    R217767  13.648   5.292   6.940  0.0213  0.2188 -0.1211
 1295ERGO    R317768  13.857   5.266   7.111 -0.0663  0.0244 -0.0415
 1295ERGO    R417769  13.632   5.350   7.280 -0.0899  0.1075 -0.1066
 1295ERGO    R517770  13.828   5.445   7.268 -0.0211 -0.0107  0.0097
 1295ERGO    C117771  13.820   5.360   7.639 -0.2369 -0.1398 -0.0236
 1295ERGO    C217772  14.029   5.470   7.891 -0.0620  0.2104 -0.1124
 1296ERGO   ROH17773   2.184   0.134  10.205 -0.0315 -0.2208 -0.0104
 1296ERGO    R117774   2.231   0.121   9.926  0.0047 -0.2870 -0.0031
 1296ERGO    R217775   2.104  -0.061   9.762 -0.2468 -0.0974 -0.0369
 1296ERGO    R317776   2.035   0.162   9.622  0.1187  0.0200 -0.0369
 1296ERGO    R417777   1.988  -0.060   9.437 -0.2820  0.0987 -0.0237
 1296ERGO    R517778   2.109   0.117   9.399  0.0174 -0.1100 -0.0403
 1296ERGO    C117779   1.855   0.149   9.116  0.0405  0.3235 -0.0160
 1296ERGO    C217780   1.695   0.140   8.803  0.3890 -0.0090  0.1841
 1297ERGO   ROH17781   7.311  12.309  10.499 -0.2819 -0.1805  0.0632
 1297ERGO    R117782   7.247  12.195  10.248 -0.2065  0.0151 -0.0466
 1297ERGO    R217783   7.156  12.346  10.035  0.1273  0.2224 -0.0452
 1297ERGO    R317784   7.364  12.228   9.905  0.1042  0.0619  0.0601
 1297ERGO    R417785   7.166  12.279   9.696  0.2052  0.1426 -0.0278
 1297ERGO    R517786   7.261  12.088   9.741  0.0715  0.0884  0.0532
 1297ERGO    C117787   7.367  12.130   9.377  0.2290 -0.0545  0.0813
 1297ERGO    C217788   7.298  12.298   9.036 -0.0766  0.2425  0.1215
 1298ERGO   ROH17789   6.869   0.857   6.480 -0.2195  0.0661 -0.0422
 1298ERGO    R117790   6.981   0.812   6.735 -0.0913  0.0043 -0.1084
 1298ERGO    R217791   7.024   1.015   6.918 -0.0576 -0.0483 -0.0569
 1298ERGO    R317792   6.877   0.856   7.082  0.0557 -0.1407 -0.0444
 1298ERGO    R417793   7.055   1.004   7.262 -0.0477  0.0038 -0.0564
 1298ERGO    R517794   7.031   0.787   7.252  0.1068 -0.0160 -0.0387
 1298ERGO    C117795   6.934   0.847   7.616  0.0644 -0.0526 -0.0443
 1298ERGO    C217796   7.012   1.020   7.915 -0.1046 -0.2380 -0.3244
 1299ERGO   ROH17797   8.457   5.752   6.189  0.2184  0.0549  0.3033
 1299ERGO    R117798   8.279   5.737   6.408  0.1354  0.1686  0.2448
 1299ERGO    R217799   8.357   5.647   6.657 -0.0278  0.0175  0.2427
 1299ERGO    R317800   8.254   5.885   6.739  0.1832  0.0986  0.2807
 1299ERGO    R417801   8.288   5.730   6.986 -0.3168 -0.1287  0.2221
 1299ERGO    R517802   8.105   5.827   6.918 -0.1141  0.1609  0.0625
 1299ERGO    C117803   8.151   6.002   7.254 -0.2870 -0.1376  0.2459
 1299ERGO    C217804   8.172   5.948   7.528  0.0170  0.2521 -0.1836
 1300ERGO   ROH17805  17.086   5.115  10.205  0.2312 -0.1268 -0.0192
 1300ERGO    R117806  17.162   5.220   9.953  0.0219  0.0060 -0.0289
 1300ERGO    R217807  17.331   5.085   9.780  0.1619  0.2540 -0.0865
 1300ERGO    R317808  17.127   5.121   9.604  0.0631 -0.0045 -0.0309
 1300ERGO    R417809  17.363   5.081   9.436  0.0950  0.3843 -0.0956
 1300ERGO    R517810  17.224   5.248   9.426 -0.1594  0.1861 -0.0243
 1300ERGO    C117811  17.191   5.112   9.071 -0.0367  0.2173 -0.0487
 1300ERGO    C217812  17.120   4.979   8.723  0.0757 -0.1036 -0.2444
 1301ERGO   ROH17813   7.311   9.172   6.086 -0.0660 -0.2387 -0.0587
 1301ERGO    R117814   7.213   9.210   6.349 -0.0684 -0.0278 -0.0892
 1301ERGO    R217815   7.136   9.000   6.511 -0.1534  0.1103  0.0444
 1301ERGO    R317816   7.312   9.112   6.685 -0.1271  0.1611 -0.0133
 1301ERGO    R417817   7.151   8.930   6.849 -0.0809  0.1637  0.0528
 1301ERGO    R517818   7.186   9.142   6.886 -0.0954  0.1803  0.0091
 1301ERGO    C117819   7.325   8.995   7.209 -0.0141  0.2425  0.0036
 1301ERGO    C217820   7.423   8.965   7.511  0.1544 -0.5421 -0.0908
 1302ERGO   ROH17821  15.657  12.603  10.007  0.1442  0.0806  0.0746
 1302ERGO    R117822  15.692  12.506   9.743  0.0353  0.0681  0.0637
 1302ERGO    R217823  15.624  12.653   9.520 -0.0729  0.0535  0.0812
 1302ERGO    R317824  15.881  12.603   9.448 -0.0996  0.0666 -0.0225
 1302ERGO    R417825  15.743  12.666   9.196 -0.2346 -0.1213  0.0130
 1302ERGO    R517826  15.862  12.488   9.238 -0.1766 -0.0649  0.0600
 1302ERGO    C117827  16.054  12.627   8.939 -0.3539 -0.2107 -0.1241
 1302ERGO    C217828  16.173  12.605   8.540 -0.0413 -0.3112  0.0624
 1303ERGO   ROH17829  15.931   0.523   6.600 -0.2063  0.1409 -0.1901
 1303ERGO    R117830  15.867   0.376   6.834  0.1366  0.1062 -0.1132
 1303ERGO    R217831  15.964   0.445   7.083  0.0111  0.4450 -0.1532
 1303ERGO    R317832  15.700   0.443   7.150  0.0097 -0.1073 -0.1335
 1303ERGO    R417833  15.840   0.362   7.395  0.2124  0.2664 -0.1185
 1303ERGO    R517834  15.678   0.254   7.296  0.4300 -0.1206 -0.0741
 1303ERGO    C117835  15.520   0.311   7.639  0.3285 -0.3561 -0.0799
 1303ERGO    C217836  15.475   0.594   7.948 -0.1158 -0.0762 -0.0744
 1304ERGO   ROH17837  15.502  11.560   6.349  0.0479  0.1536  0.0866
 1304ERGO    R117838  15.307  11.512   6.548 -0.0485  0.1730 -0.0025
 1304ERGO    R217839  15.371  11.485   6.816 -0.1575  0.0358  0.0108
 1304ERGO    R317840  15.186  11.682   6.847 -0.0701  0.1175  0.0203
 1304ERGO    R417841  15.220  11.570   7.115 -0.1430  0.0712  0.0084
 1304ERGO    R517842  15.032  11.594   7.008 -0.1230  0.1701 -0.0025
 1304ERGO    C117843  14.958  11.804   7.318 -0.0525  0.1686  0.0160
 1304ERGO    C217844  14.739  12.040   7.602 -0.0829  0.0360 -0.1951
 1305ERGO   ROH17845   3.715  11.553   6.415  0.0084  0.3386 -0.0920
 1305ERGO    R117846   3.830  11.499   6.669 -0.1233  0.1624 -0.0684
 1305ERGO    R217847   3.958  11.693   6.818  0.0225 -0.0002  0.0178
 1305ERGO    R317848   3.783  11.616   7.010 -0.1159  0.1256 -0.0547
 1305ERGO    R417849   4.023  11.698   7.157 -0.0981 -0.0992  0.0436
 1305ERGO    R517850   3.919  11.507   7.174 -0.2690 -0.0134 -0.0172
 1305ERGO    C117851   3.896  11.627   7.536 -0.2984 -0.0389 -0.0094
 1305ERGO    C217852   3.988  11.551   7.947 -0.0483  0.1291  0.1187
 1306ERGO   ROH17853  11.701   7.902   6.465  0.1914  0.0945  0.0673
 1306ERGO    R117854  11.832   7.784   6.686  0.1470  0.1339  0.1158
 1306ERGO    R217855  11.823   7.892   6.940 -0.0483  0.0873  0.1324
 1306ERGO    R317856  11.733   7.644   7.008  0.0601  0.0234  0.0418
 1306ERGO    R417857  11.806   7.769   7.263  0.1666 -0.1013  0.0735
 1306ERGO    R517858  11.876   7.577   7.188  0.1800 -0.0393 -0.0753
 1306ERGO    C117859  11.712   7.465   7.514  0.3936 -0.2710 -0.0459
 1306ERGO    C217860  11.713   7.602   7.880  0.0578 -0.0780  0.0753
 1307ERGO   ROH17861   9.433  15.710  10.315  0.0356 -0.0175 -0.0609
 1307ERGO    R117862   9.495  15.791  10.051 -0.0915 -0.0369 -0.0974
 1307ERGO    R217863   9.628  15.627   9.873  0.0193  0.0292 -0.0777
 1307ERGO    R317864   9.414  15.679   9.715 -0.0632 -0.2079 -0.0482
 1307ERGO    R417865   9.634  15.630   9.528 -0.0253  0.0718 -0.0781
 1307ERGO    R517866   9.504  15.805   9.532 -0.2329 -0.0809 -0.0459
 1307ERGO    C117867   9.436  15.682   9.178 -0.1287 -0.1259 -0.0506
 1307ERGO    C217868   9.538  15.775   8.829 -0.0250  0.0340  0.4104
 1308ERGO   ROH17869   8.239   8.657   5.895 -0.1979  0.1064 -0.0001
 1308ERGO    R117870   8.372   8.511   6.097 -0.1095  0.1215 -0.0475
 1308ERGO    R217871   8.598   8.605   6.225 -0.1485  0.2016 -0.0430
 1308ERGO    R317872   8.451   8.558   6.449 -0.1058  0.0706 -0.0406
 1308ERGO    R417873   8.721   8.612   6.548 -0.0918  0.0558 -0.0600
 1308ERGO    R517874   8.599   8.438   6.594 -0.0635  0.0151 -0.1262
 1308ERGO    C117875   8.655   8.573   6.946 -0.0188 -0.1522 -0.0677
 1308ERGO    C217876   8.642   8.547   7.353 -0.0929  0.3066 -0.1110
 1309ERGO   ROH17877   9.673  16.504   6.330 -0.0573  0.0357  0.0278
 1309ERGO    R117878   9.716  16.557   6.604 -0.0259  0.0303  0.0237
 1309ERGO    R217879   9.640  16.795   6.724  0.0031  0.0335  0.0327
 1309ERGO    R317880   9.510  16.629   6.896  0.0092  0.0427  0.0463
 1309ERGO    R417881   9.611  16.846   7.064 -0.2093  0.1947 -0.0073
 1309ERGO    R517882   9.644  16.633   7.094 -0.0966  0.2256  0.1184
 1309ERGO    C117883   9.473  16.721   7.424 -0.3274  0.2974 -0.0177
 1309ERGO    C217884   9.422  16.654   7.758 -0.1701  0.3791 -0.1259
 1310ERGO   ROH17885   7.142  12.283   6.463 -0.2159  0.1889  0.0639
 1310ERGO    R117886   7.270  12.395   6.690 -0.1288  0.0062  0.1063
 1310ERGO    R217887   7.130  12.500   6.903 -0.0484  0.0720  0.1265
 1310ERGO    R317888   7.282  12.326   7.047 -0.2155 -0.1102  0.0879
 1310ERGO    R417889   7.180  12.517   7.245  0.1955  0.1221  0.0903
 1310ERGO    R517890   7.389  12.463   7.212  0.0999 -0.2065 -0.0270
 1310ERGO    C117891   7.352  12.364   7.579  0.1806 -0.0197  0.0329
 1310ERGO    C217892   7.105  12.468   7.916  0.0872 -0.1967 -0.1838
 1311ERGO   ROH17893   3.281  15.411   6.682  0.0785  0.0268 -0.0305
 1311ERGO    R117894   3.265  15.528   6.938  0.0385 -0.1994  0.0721
 1311ERGO    R217895   3.066  15.708   7.008  0.2402  0.0183  0.0747
 1311ERGO    R317896   3.025  15.533   7.212 -0.1832 -0.1229 -0.1171
 1311ERGO    R417897   2.881  15.775   7.292  0.3457  0.1476  0.1147
 1311ERGO    R517898   3.031  15.669   7.409  0.1042 -0.3295  0.0318
 1311ERGO    C117899   2.735  15.651   7.649  0.0097  0.0902 -0.0420
 1311ERGO    C217900   2.643  15.685   8.010  0.1919  0.2037  0.0025
 1312ERGO   ROH17901  17.134   7.858  10.093  0.1936 -0.0230  0.0032
 1312ERGO    R117902  17.058   7.777   9.833 -0.1468  0.0453  0.0768
 1312ERGO    R217903  16.830   7.871   9.709 -0.1548  0.3101  0.2801
 1312ERGO    R317904  17.005   7.937   9.511 -0.2524  0.0849  0.1143
 1312ERGO    R417905  16.753   7.880   9.372 -0.3415  0.0149  0.3121
 1312ERGO    R517906  16.947   7.791   9.330 -0.3894 -0.0694  0.2817
 1312ERGO    C117907  16.871   7.947   8.990 -0.5420 -0.3683  0.1750
 1312ERGO    C217908  16.718   8.193   8.877  0.0662  0.0120 -0.2932
 1313ERGO   ROH17909  16.685  10.045   6.440 -0.1570 -0.0302  0.1424
 1313ERGO    R117910  16.924  10.100   6.580 -0.1185 -0.0377  0.0803
 1313ERGO    R217911  16.954  10.047   6.849 -0.0301 -0.0919  0.0606
 1313ERGO    R317912  17.173   9.908   6.765 -0.0435 -0.0540 -0.0366
 1313ERGO    R417913  17.208   9.935   7.055  0.0228 -0.1499 -0.0356
 1313ERGO    R517914  17.352   9.992   6.900 -0.0158 -0.0917 -0.0500
 1313ERGO    C117915  17.561   9.740   7.096  0.0411 -0.1480 -0.1829
 1313ERGO    C217916  17.692   9.600   7.376 -0.2369  0.0261 -0.0398
 1314ERGO   ROH17917  17.815   7.255   9.730  0.0468  0.1082 -0.1047
 1314ERGO    R117918  17.874   7.196   9.459 -0.0098  0.1133 -0.1184
 1314ERGO    R217919  17.737   7.005   9.315  0.0253  0.0438 -0.0633
 1314ERGO    R317920  17.699   7.211   9.141 -0.1130  0.0174 -0.0659
 1314ERGO    R417921  17.612   6.972   8.994 -0.1389 -0.0095  0.0048
 1314ERGO    R517922  17.758   7.120   8.927 -0.2088  0.0134 -0.0885
 1314ERGO    C117923  17.504   7.146   8.644 -0.3642 -0.0653  0.0418
 1314ERGO    C217924  17.238   7.123   8.420  0.0755  0.0499  0.1173
 1315ERGO   ROH17925   3.620  11.844  10.429  0.2784  0.0694 -0.0730
 1315ERGO    R117926   3.727  11.800  10.170  0.1501  0.1531 -0.1409
 1315ERGO    R217927   3.738  11.549  10.054  0.2828  0.1608 -0.1403
 1315ERGO    R317928   3.605  11.673   9.852  0.0515  0.0462 -0.0622
 1315ERGO    R417929   3.759  11.462   9.720  0.4645  0.4089 -0.1971
 1315ERGO    R517930   3.760  11.673   9.670  0.0670  0.4554 -0.0606
 1315ERGO    C117931   3.646  11.527   9.336  0.3531  0.4457 -0.1568
 1315ERGO    C217932   3.643  11.458   8.973 -0.0148  0.2297  0.0978
 1316ERGO   ROH17933  11.011   4.328   6.432 -0.3366 -0.0618  0.0813
 1316ERGO    R117934  11.022   4.201   6.685 -0.2334 -0.0708  0.0721
 1316ERGO    R217935  11.161   4.307   6.899 -0.0742 -0.1214 -0.0050
 1316ERGO    R317936  10.921   4.279   7.025 -0.0114 -0.0449  0.1339
 1316ERGO    R417937  11.108   4.358   7.237  0.1297 -0.0646  0.0200
 1316ERGO    R517938  10.977   4.184   7.238  0.0853 -0.0322  0.1155
 1316ERGO    C117939  10.853   4.361   7.552  0.3075  0.0401  0.1648
 1316ERGO    C217940  10.957   4.534   7.754 -0.0617 -0.1200  0.1609
 1317ERGO   ROH17941   7.190  10.688   5.996  0.1075 -0.1693  0.1007
 1317ERGO    R117942   7.249  10.589   6.255  0.1005 -0.1402  0.1131
 1317ERGO    R217943   7.223  10.743   6.483  0.1603 -0.0938  0.0867
 1317ERGO    R317944   7.067  10.537   6.565  0.1108 -0.0371  0.1377
 1317ERGO    R417945   7.161  10.662   6.813  0.0992  0.0375  0.1085
 1317ERGO    R517946   7.178  10.452   6.759  0.0696  0.0128  0.1855
 1317ERGO    C117947   6.978  10.421   7.082  0.0171  0.1672  0.1691
 1317ERGO    C217948   6.784  10.345   7.314 -0.0053  0.3505 -0.0277
 1318ERGO   ROH17949  12.639   7.295   6.256 -0.0707  0.0467  0.0158
 1318ERGO    R117950  12.763   7.309   6.510 -0.0225  0.1293 -0.0120
 1318ERGO    R217951  12.784   7.545   6.652 -0.2787  0.1178  0.0464
 1318ERGO    R317952  12.663   7.400   6.848 -0.0504 -0.0871  0.0401
 1318ERGO    R417953  12.830   7.593   6.992 -0.2048  0.0519  0.0458
 1318ERGO    R517954  12.831   7.377   7.017  0.0423  0.0377 -0.0299
 1318ERGO    C117955  12.743   7.484   7.373  0.0526 -0.1788  0.0395
 1318ERGO    C217956  12.690   7.359   7.788  0.2259 -0.1625  0.0134
 1319ERGO   ROH17957  12.512   8.611   6.282  0.0476  0.1386  0.0931
 1319ERGO    R117958  12.583   8.476   6.521  0.1482  0.1284  0.0585
 1319ERGO    R217959  12.791   8.561   6.683  0.1150  0.2173  0.0608
 1319ERGO    R317960  12.599   8.557   6.875  0.1301  0.0630  0.0733
 1319ERGO    R417961  12.850   8.566   7.024  0.1302  0.1163  0.0595
 1319ERGO    R517962  12.690   8.421   7.049  0.1967  0.0397  0.0169
 1319ERGO    C117963  12.704   8.566   7.402  0.1533 -0.0873  0.0704
 1319ERGO    C217964  12.632   8.759   7.728  0.0338 -0.1727  0.2169
 1320ERGO   ROH17965  10.289   7.948   6.340 -0.1947  0.0476  0.0682
 1320ERGO    R117966  10.385   7.899   6.602 -0.2217  0.0926  0.0865
 1320ERGO    R217967  10.359   8.083   6.807 -0.3568  0.0766  0.0847
 1320ERGO    R317968  10.242   7.874   6.936 -0.2762  0.0138  0.0573
 1320ERGO    R417969  10.392   8.017   7.144 -0.2686 -0.0037  0.0612
 1320ERGO    R517970  10.406   7.805   7.096 -0.2253  0.0130  0.0041
 1320ERGO    C117971  10.301   7.783   7.462 -0.1415 -0.1095  0.0218
 1320ERGO    C217972  10.274   7.745   7.784  0.1069  0.4823 -0.0015
 1321ERGO   ROH17973  11.819   0.799  10.577  0.1102 -0.0668  0.1105
 1321ERGO    R117974  11.767   0.850  10.304  0.3890  0.0364  0.0734
 1321ERGO    R217975  11.931   0.758  10.102  0.2723 -0.4252  0.1779
 1321ERGO    R317976  11.700   0.651  10.006  0.0300  0.1577  0.0673
 1321ERGO    R417977  11.862   0.707   9.767  0.5240 -0.6808  0.1607
 1321ERGO    R517978  11.657   0.774   9.805  0.6615  0.0276 -0.1720
 1321ERGO    C117979  11.605   0.577   9.482  0.4431 -0.2824  0.0467
 1321ERGO    C217980  11.603   0.559   9.123  0.0663  0.1175 -0.1101
 1322ERGO   ROH17981   1.595   9.895   6.531  0.0271  0.0511  0.0332
 1322ERGO    R117982   1.661   9.810   6.793 -0.1384  0.1140  0.0959
 1322ERGO    R217983   1.838   9.948   6.954 -0.0370  0.0076  0.0688
 1322ERGO    R317984   1.631   9.943   7.130 -0.0916  0.3202  0.0216
 1322ERGO    R417985   1.872   9.940   7.298 -0.1109 -0.2771  0.0731
 1322ERGO    R517986   1.706   9.798   7.306 -0.4133  0.0466 -0.0504
 1322ERGO    C117987   1.697   9.931   7.663 -0.2051 -0.1494  0.0313
 1322ERGO    C217988   1.664  10.051   8.124 -0.1167  0.0657  0.0196
 1323ERGO   ROH17989  14.451   2.401  10.680 -0.0801 -0.1175 -0.1016
 1323ERGO    R117990  14.336   2.340  10.428 -0.0532 -0.0646 -0.1272
 1323ERGO    R217991  14.301   2.530  10.230 -0.0905 -0.0082 -0.0687
 1323ERGO    R317992  14.441   2.352  10.080 -0.0386  0.0740 -0.1178
 1323ERGO    R417993  14.327   2.539   9.886 -0.2176  0.0026 -0.0786
 1323ERGO    R517994  14.309   2.322   9.883 -0.0898 -0.0073 -0.0698
 1323ERGO    C117995  14.475   2.377   9.544 -0.2428  0.0860 -0.1304
 1323ERGO    C217996  14.377   2.248   9.173 -0.0713 -0.3072 -0.0009
 1324ERGO   ROH17997  13.154  16.153  10.228 -0.0822  0.0069  0.1190
 1324ERGO    R117998  13.080  16.360  10.049  0.0093 -0.0382  0.0274
 1324ERGO    R217999  13.247  16.448   9.847  0.0405 -0.2166 -0.0298
 1324ERGO    R318000  13.032  16.394   9.690 -0.0001 -0.1837  0.0148
 1324ERGO    R418001  13.221  16.529   9.512  0.0236 -0.3109 -0.0514
 1324ERGO    R518002  13.014  16.585   9.546  0.0511 -0.2229 -0.0412
 1324ERGO    C118003  13.005  16.525   9.169 -0.0242 -0.3345 -0.0219
 1324ERGO    C218004  12.909  16.797   8.842 -0.0230 -0.0111 -0.2083
 1325ERGO   ROH18005  15.219  15.695  10.282  0.1512 -0.2053 -0.0831
 1325ERGO    R118006  15.202  15.595  10.017 -0.0017 -0.1894 -0.0795
 1325ERGO    R218007  14.985  15.450   9.927 -0.1225 -0.0505 -0.0077
 1325ERGO    R318008  14.981  15.640   9.732 -0.0719 -0.0457 -0.0053
 1325ERGO    R418009  14.936  15.386   9.591 -0.0960 -0.0448 -0.0132
 1325ERGO    R518010  15.088  15.535   9.545 -0.0650 -0.0645  0.0053
 1325ERGO    C118011  14.902  15.527   9.212 -0.0332 -0.0369 -0.0140
 1325ERGO    C218012  14.773  15.333   8.897  0.1606 -0.1555  0.1307
 1326ERGO   ROH18013   1.228  13.608  10.273 -0.1792 -0.0212 -0.1618
 1326ERGO    R118014   1.268  13.820  10.091 -0.0267 -0.0489 -0.1639
 1326ERGO    R218015   1.508  13.861   9.960  0.0004 -0.2352 -0.1871
 1326ERGO    R318016   1.351  13.854   9.738 -0.0288 -0.1152 -0.1693
 1326ERGO    R418017   1.602  13.975   9.647 -0.0115 -0.1628 -0.1634
 1326ERGO    R518018   1.402  14.057   9.622  0.0140 -0.0966 -0.1110
 1326ERGO    C118019   1.510  14.033   9.257 -0.0459 -0.0080 -0.1329
 1326ERGO    C218020   1.645  13.966   8.962 -0.2993  0.0062  0.0843
 1327ERGO   ROH18021   0.942   4.090  10.345 -0.0306  0.1268  0.0575
 1327ERGO    R118022   1.024   4.141  10.080  0.0643  0.1637  0.0934
 1327ERGO    R218023   0.888   4.045   9.860  0.2516  0.0291  0.0313
 1327ERGO    R318024   0.885   4.307   9.787  0.0791  0.0208  0.0053
 1327ERGO    R418025   0.900   4.160   9.534  0.2197  0.0079  0.0229
 1327ERGO    R518026   1.034   4.318   9.600  0.0986  0.1080  0.0272
 1327ERGO    C118027   0.904   4.472   9.276  0.0392 -0.0122 -0.0063
 1327ERGO    C218028   0.775   4.665   9.002  0.1741  0.1645 -0.1043
 1328ERGO   ROH18029   8.234  14.660   6.412  0.1716  0.3255  0.1648
 1328ERGO    R118030   8.304  14.721   6.680 -0.0104  0.3758  0.2028
 1328ERGO    R218031   8.118  14.803   6.868 -0.2039  0.0615  0.1589
 1328ERGO    R318032   8.219  14.594   7.010  0.0600  0.1761  0.1451
 1328ERGO    R418033   8.115  14.779   7.212 -0.0156  0.1045  0.1646
 1328ERGO    R518034   8.316  14.696   7.204  0.0572  0.2926  0.0832
 1328ERGO    C118035   8.207  14.570   7.547  0.3416  0.2371  0.1548
 1328ERGO    C218036   8.347  14.435   7.840 -0.0711 -0.1000  0.0786
 1329ERGO   ROH18037   6.777   9.382  10.185 -0.2684  0.2246  0.0389
 1329ERGO    R118038   6.653   9.494   9.957 -0.2642  0.0349 -0.0587
 1329ERGO    R218039   6.796   9.600   9.745 -0.2590  0.0416 -0.0548
 1329ERGO    R318040   6.647   9.426   9.599 -0.0836 -0.1324 -0.0311
 1329ERGO    R418041   6.741   9.622   9.405 -0.4606  0.0631 -0.0212
 1329ERGO    R518042   6.534   9.563   9.439 -0.3615 -0.2438  0.0638
 1329ERGO    C118043   6.568   9.472   9.070 -0.4132 -0.0876  0.0207
 1329ERGO    C218044   6.554   9.392   8.776  0.0980  0.0504 -0.4194
 1330ERGO   ROH18045  14.414  13.269  10.856 -0.1993 -0.1401 -0.0041
 1330ERGO    R118046  14.418  13.266  10.573 -0.0079 -0.1300 -0.0022
 1330ERGO    R218047  14.463  13.035  10.428 -0.4190 -0.2303  0.0232
 1330ERGO    R318048  14.228  13.104  10.308 -0.1948  0.3038 -0.1438
 1330ERGO    R418049  14.389  12.987  10.093 -0.3548 -0.2272  0.0076
 1330ERGO    R518050  14.293  13.182  10.091  0.1315  0.0315 -0.1553
 1330ERGO    C118051  14.127  13.023   9.787 -0.1070  0.2759 -0.1583
 1330ERGO    C218052  13.991  13.030   9.505  0.2811  0.3029  0.0261
 1331ERGO   ROH18053  13.270   0.385   6.719  0.0611  0.0623  0.1114
 1331ERGO    R118054  13.274   0.308   6.992  0.0085 -0.0276  0.0880
 1331ERGO    R218055  13.504   0.315   7.145  0.0019 -0.1709  0.1110
 1331ERGO    R318056  13.351   0.467   7.310  0.0497 -0.1599  0.1440
 1331ERGO    R418057  13.555   0.351   7.485  0.0378 -0.2223  0.1105
 1331ERGO    R518058  13.340   0.342   7.513  0.0410 -0.1803  0.1287
 1331ERGO    C118059  13.441   0.515   7.838  0.1035 -0.2420  0.1411
 1331ERGO    C218060  13.535   0.613   8.202 -0.2470 -0.3282 -0.3126
 1332ERGO   ROH18061   1.663  16.788   6.612 -0.0998  0.0409 -0.0811
 1332ERGO    R118062   1.844  16.814   6.829 -0.0799 -0.0842 -0.0812
 1332ERGO    R218063   1.866  17.047   6.977  0.1465 -0.0642 -0.1376
 1332ERGO    R318064   1.820  16.879   7.186 -0.0316  0.0302 -0.0992
 1332ERGO    R418065   1.928  17.122   7.309  0.2844 -0.0817 -0.1593
 1332ERGO    R518066   2.003  16.919   7.336  0.0382 -0.1680 -0.1320
 1332ERGO    C118067   1.922  17.008   7.698  0.1976 -0.0035 -0.1359
 1332ERGO    C218068   1.944  16.971   7.972 -0.2120  0.0853  0.0840
 1333ERGO   ROH18069  11.138   2.746  10.413  0.1118  0.0647  0.0467
 1333ERGO    R118070  11.200   2.600  10.179 -0.0081 -0.0395  0.0777
 1333ERGO    R218071  11.013   2.549   9.982 -0.0760 -0.0031  0.1227
 1333ERGO    R318072  11.200   2.663   9.820 -0.0442 -0.1436  0.0613
 1333ERGO    R418073  11.007   2.540   9.636 -0.0721 -0.1678  0.1272
 1333ERGO    R518074  11.223   2.508   9.639 -0.0900 -0.2330  0.1388
 1333ERGO    C118075  11.179   2.640   9.284 -0.0400 -0.3955  0.0721
 1333ERGO    C218076  11.219   2.586   9.007 -0.2210  0.1779 -0.3359
 1334ERGO   ROH18077   0.997   4.908   6.234  0.0254  0.0092  0.0072
 1334ERGO    R118078   1.189   4.895   6.441 -0.0196 -0.0597  0.0446
 1334ERGO    R218079   1.227   5.100   6.623  0.0317 -0.0666  0.0385
 1334ERGO    R318080   1.186   4.902   6.805 -0.0838 -0.0382  0.0447
 1334ERGO    R418081   1.348   5.101   6.947  0.1498 -0.1786 -0.0044
 1334ERGO    R518082   1.393   4.889   6.926 -0.0471 -0.2240 -0.0286
 1334ERGO    C118083   1.380   4.917   7.306  0.1102 -0.2170 -0.0235
 1334ERGO    C218084   1.357   4.889   7.713 -0.1475 -0.3067 -0.2710
 1335ERGO   ROH18085  11.146   7.170   6.689 -0.0911  0.0784  0.1239
 1335ERGO    R118086  11.102   7.025   6.928 -0.1164  0.1365  0.1543
 1335ERGO    R218087  11.287   7.016   7.133 -0.0423  0.0034  0.0810
 1335ERGO    R318088  11.077   7.102   7.283  0.0865  0.1897  0.1589
 1335ERGO    R418089  11.250   6.961   7.473  0.0054 -0.0242  0.0819
 1335ERGO    R518090  11.038   6.925   7.439 -0.0459  0.1961  0.1367
 1335ERGO    C118091  11.032   7.010   7.811  0.1541  0.1346  0.1555
 1335ERGO    C218092  10.829   7.048   8.186 -0.1964 -0.0235  0.0798
 1336ERGO   ROH18093  13.103  15.360   6.391 -0.1202  0.0984  0.2461
 1336ERGO    R118094  12.897  15.302   6.576 -0.1911  0.2017  0.2000
 1336ERGO    R218095  12.945  15.182   6.820 -0.3167  0.0867  0.1675
 1336ERGO    R318096  12.812  15.398   6.916 -0.1618  0.1611  0.2196
 1336ERGO    R418097  12.913  15.261   7.155 -0.2002  0.0631  0.1850
 1336ERGO    R518098  12.706  15.319   7.116 -0.1743  0.2000  0.2308
 1336ERGO    C118099  12.769  15.510   7.440  0.0131  0.1193  0.2441
 1336ERGO    C218100  12.776  15.606   7.818  0.0747 -0.0621 -0.0619
 1337ERGO   ROH18101  16.153  15.824  10.007 -0.0279 -0.0842  0.0225
 1337ERGO    R118102  16.218  15.888   9.739 -0.0474 -0.0405  0.0276
 1337ERGO    R218103  16.312  15.700   9.560  0.1228  0.0254  0.0430
 1337ERGO    R318104  16.105  15.789   9.408  0.0677 -0.1425  0.0184
 1337ERGO    R418105  16.330  15.766   9.221  0.1827  0.2924  0.0967
 1337ERGO    R518106  16.206  15.942   9.254 -0.0690  0.1050  0.1711
 1337ERGO    C118107  16.147  15.888   8.881  0.1662  0.2903  0.1048
 1337ERGO    C218108  16.084  15.953   8.525 -0.2758  0.0612  0.0232
 1338ERGO   ROH18109   0.573   1.810   6.484 -0.0510  0.3444 -0.0590
 1338ERGO    R118110   0.383   1.855   6.689 -0.0586  0.1159 -0.0131
 1338ERGO    R218111   0.254   1.648   6.820  0.1984 -0.0438  0.0012
 1338ERGO    R318112   0.351   1.771   7.042  0.1135  0.0491 -0.0131
 1338ERGO    R418113   0.142   1.592   7.142  0.2072 -0.0452  0.0035
 1338ERGO    R518114   0.158   1.806   7.180  0.0866 -0.0314 -0.0334
 1338ERGO    C118115   0.168   1.675   7.538  0.1327  0.0413 -0.0086
 1338ERGO    C218116   0.302   1.514   7.763  0.0977 -0.0855  0.0685
 1339ERGO   ROH18117   4.533   3.764   9.981  0.1552  0.1791  0.0901
 1339ERGO    R118118   4.459   3.720   9.711  0.1157 -0.0498  0.1366
 1339ERGO    R218119   4.450   3.923   9.524 -0.2311 -0.1468  0.0438
 1339ERGO    R318120   4.614   3.759   9.384 -0.0541  0.0112  0.0610
 1339ERGO    R418121   4.482   3.924   9.180 -0.2374 -0.1478  0.0428
 1339ERGO    R518122   4.490   3.705   9.186 -0.0039 -0.1436  0.0676
 1339ERGO    C118123   4.655   3.769   8.848 -0.0749 -0.0001  0.0585
 1339ERGO    C218124   4.586   3.755   8.440  0.2100 -0.0892 -0.1135
 1340ERGO   ROH18125   9.112   2.564   6.326  0.0263 -0.0180  0.0669
 1340ERGO    R118126   9.129   2.439   6.579  0.0995 -0.0128  0.0643
 1340ERGO    R218127   9.328   2.499   6.762  0.0359  0.1349  0.0819
 1340ERGO    R318128   9.117   2.545   6.927 -0.0135 -0.0333  0.0681
 1340ERGO    R418129   9.345   2.501   7.107  0.0330  0.2079  0.0820
 1340ERGO    R518130   9.153   2.397   7.112  0.1251  0.0270  0.0945
 1340ERGO    C118131   9.156   2.545   7.463 -0.0151  0.0926  0.0691
 1340ERGO    C218132   9.285   2.505   7.821  0.0131  0.0773  0.2764
 1341ERGO   ROH18133  11.541   6.318   6.616 -0.1231  0.1921  0.0739
 1341ERGO    R118134  11.439   6.300   6.880 -0.0740  0.0813  0.0860
 1341ERGO    R218135  11.262   6.102   6.957 -0.0682  0.0547  0.0339
 1341ERGO    R318136  11.447   6.056   7.150 -0.0332 -0.0383 -0.0217
 1341ERGO    R418137  11.190   6.011   7.283 -0.0176  0.0839  0.0532
 1341ERGO    R518138  11.348   6.144   7.350  0.0671  0.0063  0.0091
 1341ERGO    C118139  11.322   5.914   7.653  0.0445  0.0135  0.0122
 1341ERGO    C218140  11.323   5.790   8.038 -0.2771  0.0251  0.1972
 1342ERGO   ROH18141   6.140   6.963   6.469 -0.3966  0.4024  0.0649
 1342ERGO    R118142   6.228   6.920   6.735 -0.2510  0.2813 -0.0028
 1342ERGO    R218143   6.082   7.003   6.954 -0.1216  0.1877  0.1079
 1342ERGO    R318144   6.106   6.743   7.028 -0.0897  0.1562 -0.0063
 1342ERGO    R418145   6.031   6.884   7.275 -0.3249  0.0323  0.0205
 1342ERGO    R518146   6.203   6.751   7.247 -0.2497  0.0957  0.0786
 1342ERGO    C118147   6.023   6.569   7.530 -0.4133 -0.0877 -0.1376
 1342ERGO    C218148   6.055   6.312   7.837 -0.4476 -0.0080  0.0715
 1343ERGO   ROH18149   8.816  12.069   6.247 -0.2101 -0.0540  0.0994
 1343ERGO    R118150   8.907  11.985   6.501 -0.3427 -0.1509  0.1152
 1343ERGO    R218151   8.998  12.162   6.693  0.0645 -0.2610  0.0292
 1343ERGO    R318152   8.812  12.040   6.848 -0.1746  0.1871  0.1130
 1343ERGO    R418153   8.988  12.179   7.038  0.1392 -0.0703  0.0237
 1343ERGO    R518154   8.934  11.967   7.041 -0.2925  0.0292  0.1330
 1343ERGO    C118155   8.808  12.074   7.385 -0.0418  0.4614  0.0993
 1343ERGO    C218156   8.853  12.088   7.740 -0.1905  0.5125 -0.0964
 1344ERGO   ROH18157   3.843   7.572  10.258 -0.0571 -0.0718  0.0839
 1344ERGO    R118158   3.812   7.481   9.992 -0.1378 -0.0131  0.0717
 1344ERGO    R218159   3.635   7.599   9.814 -0.0203  0.1837  0.0728
 1344ERGO    R318160   3.857   7.620   9.659  0.0117 -0.0172  0.0914
 1344ERGO    R418161   3.634   7.621   9.470  0.0391  0.1481  0.0713
 1344ERGO    R518162   3.806   7.489   9.465 -0.0732  0.0069  0.1021
 1344ERGO    C118163   3.841   7.654   9.123  0.1038 -0.0613  0.0879
 1344ERGO    C218164   3.875   7.805   8.782 -0.4826 -0.0891  0.2657
 1345ERGO   ROH18165   2.562  12.071   6.867  0.2032  0.0458  0.1022
 1345ERGO    R118166   2.575  11.812   6.981  0.0474 -0.0103 -0.0035
 1345ERGO    R218167   2.587  11.771   7.254  0.1789 -0.1210 -0.0262
 1345ERGO    R318168   2.371  11.612   7.207  0.0086  0.0830  0.0456
 1345ERGO    R418169   2.441  11.562   7.488  0.2521 -0.2080 -0.0577
 1345ERGO    R518170   2.417  11.412   7.331 -0.0166 -0.0603 -0.1676
 1345ERGO    C118171   2.154  11.291   7.580  0.1348 -0.0673 -0.0085
 1345ERGO    C218172   1.955  11.305   7.803  0.0019 -0.1173  0.2667
 1346ERGO   ROH18173   0.061  16.028  10.089 -0.3044 -0.0585  0.1221
 1346ERGO    R118174   0.050  16.076   9.810 -0.2829  0.0930  0.1467
 1346ERGO    R218175   0.143  15.895   9.624 -0.1138  0.2653  0.0602
 1346ERGO    R318176  -0.107  15.922   9.521 -0.1133  0.1430  0.0258
 1346ERGO    R418177   0.060  15.850   9.291 -0.0089  0.4021  0.0151
 1346ERGO    R518178  -0.073  16.022   9.306 -0.1397  0.2977  0.0917
 1346ERGO    C118179  -0.223  15.850   9.001  0.0526  0.3669 -0.0436
 1346ERGO    C218180  -0.298  15.621   8.828  0.0647 -0.0181 -0.1191
 1347ERGO   ROH18181  14.798   6.695   6.461 -0.1471 -0.0594  0.0829
 1347ERGO    R118182  14.556   6.716   6.606 -0.0949  0.1131  0.1472
 1347ERGO    R218183  14.480   6.531   6.796 -0.2087  0.1301  0.1181
 1347ERGO    R318184  14.459   6.750   6.956  0.0190  0.1088  0.1798
 1347ERGO    R418185  14.423   6.522   7.137 -0.1287  0.0901  0.1305
 1347ERGO    R518186  14.289   6.693   7.114  0.0090  0.2125  0.2081
 1347ERGO    C118187  14.371   6.723   7.485  0.1315  0.0468  0.1957
 1347ERGO    C218188  14.284   6.909   7.714  0.2801 -0.4202 -0.1428
 1348ERGO   ROH18189   5.623  16.416  10.278 -0.1551  0.0386  0.0902
 1348ERGO    R118190   5.629  16.503  10.008 -0.1300 -0.0038  0.0777
 1348ERGO    R218191   5.754  16.359   9.809 -0.1013 -0.0276  0.1166
 1348ERGO    R318192   5.511  16.377   9.688 -0.0877 -0.0594  0.0828
 1348ERGO    R418193   5.697  16.305   9.472 -0.0452 -0.0514  0.1102
 1348ERGO    R518194   5.559  16.474   9.474 -0.0654 -0.0636  0.0832
 1348ERGO    C118195   5.435  16.291   9.163  0.0001 -0.0953  0.0747
 1348ERGO    C218196   5.308  16.441   8.848 -0.1845  0.0190  0.0860
 1349W        W18197  14.307   2.770  14.475 -0.0528  0.1001 -0.0724
 1350W        W18198   5.188  13.516  13.213  0.1017  0.2670  0.0218
 1351W        W18199   9.539   7.994  16.390 -0.1140 -0.0568  0.0178
 1352W        W18200  13.746  11.347   0.937  0.5211  0.1394 -0.0170
 1353W        W18201  17.149   2.420   0.819 -0.0772 -0.0265  0.0764
 1354W        W18202  11.963   6.380   3.184 -0.1538 -0.0340 -0.0351
 1355W        W18203   6.722   2.945  12.328 -0.0747  0.0434  0.0286
 1356W        W18204  11.730  13.587   0.105  0.0520 -0.0262  0.1148
 1357W        W18205   0.004   9.477   0.418 -0.3309 -0.1286 -0.2217
 1358W        W18206   5.228  14.009  15.855  0.0312 -0.3766  0.0132
 1359W        W18207  17.337   4.550   1.123 -0.2613  0.0373  0.2083
 1360W        W18208   9.153  16.773  14.497 -0.0448  0.0777  0.2612
 1361W        W18209  17.025   3.535   0.708 -0.2466 -0.0131  0.0670
 1362W        W18210   4.338  10.369   2.948  0.1469  0.2207 -0.0642
 1363W        W18211   6.673   9.427  15.646  0.0242 -0.3649  0.1529
 1364W        W18212   2.407   1.466  11.924 -0.1350 -0.0304  0.1235
 1365W        W18213  10.642  13.325   1.191 -0.0628  0.0282 -0.0850
 1366W        W18214   8.134  10.439  16.595 -0.2146 -0.3334  0.2204
 1367W        W18215   3.971  16.279  15.567 -0.3087  0.1581  0.1158
 1368W        W18216   6.481  11.561   3.110 -0.0524 -0.0073 -0.0068
 1369W        W18217  12.816  11.734   2.013  0.2116 -0.0355  0.0150
 1370W        W18218  17.485  14.710   6.535 -0.0988  0.2726  0.0966
 1371W        W18219  13.642  15.350   5.157  0.0929 -0.0542  0.1209
 1372W        W18220  10.890   6.889   0.924  0.1327 -0.0423  0.1024
 1373W        W18221  13.373  10.198   3.360 -0.2797  0.3559  0.0189
 1374W        W18222  12.196  16.071  12.897  0.0470 -0.1533 -0.2958
 1375W        W18223  14.731   6.620   5.043 -0.0532  0.0201 -0.2154
 1376W        W18224  12.433  17.699   2.940  0.0153 -0.2185 -0.1274
 1377W        W18225  12.886   1.730  13.238  0.1256  0.0613  0.0593
 1378W        W18226  15.676   7.925   0.696 -0.0930 -0.0122  0.1195
 1379W        W18227   7.113   6.272  16.628  0.1226  0.0710 -0.0258
 1380W        W18228   0.182  12.885   1.907  0.0769  0.4130  0.1066
 1381W        W18229  12.938   0.616  12.839  0.1691 -0.1537 -0.3336
 1382W        W18230  12.038   7.625  13.479  0.4016  0.0978 -0.1927
 1383W        W18231   1.277   3.324  12.307 -0.3376 -0.2454  0.2952
 1384W        W18232   4.133  10.740   3.301 -0.1923 -0.2734  0.0961
 1385W        W18233   8.150   2.155  15.468 -0.0983  0.2220  0.1857
 1386W        W18234   2.087  11.094  12.101 -0.2982  0.1305  0.0056
 1387W        W18235  15.670   7.153  11.533  0.2455 -0.0494  0.2515
 1388W        W18236   2.447  12.523  16.244 -0.2927 -0.1878 -0.3667
 1389W        W18237  10.486   8.536   4.059 -0.0926 -0.3516  0.2501
 1390W        W18238   4.966  16.104   1.815 -0.1082  0.1080 -0.0622
 1391W        W18239   3.117  12.772   2.435  0.3923 -0.0581 -0.1134
 1392W        W18240  16.370   6.714   2.613 -0.2416  0.1144  0.0984
 1393W        W18241  11.361  10.112  16.285  0.3316 -0.0058  0.1291
 1394W        W18242  14.386   0.748  10.823  0.0490  0.3182 -0.2401
 1395W        W18243  10.549  16.491   1.031 -0.0425  0.0010  0.0120
 1396W        W18244   9.787   6.592  15.864 -0.0440  0.0925  0.1223
 1397W        W18245   5.966  16.089  13.954  0.2239  0.1520  0.1055
 1398W        W18246   0.202   6.549  15.461  0.3386  0.0052 -0.2862
 1399W        W18247  16.176  10.252  15.558  0.1937  0.2035  0.1318
 1400W        W18248   3.868  17.665   4.550 -0.2158 -0.0705 -0.0950
 1401W        W18249   8.383   1.444  11.430  0.3718 -0.5514 -0.2925
 1402W        W18250  11.244  11.272   0.538 -0.2485 -0.0711  0.0875
 1403W        W18251   2.499  10.786  11.959  0.0463 -0.1117 -0.2304
 1404W        W18252   5.793   8.770  13.589  0.1470 -0.0169  0.0668
 1405W        W18253   2.714   5.451   0.223  0.4215  0.2480  0.3605
 1406W        W18254   7.005   3.134  14.192  0.2020 -0.2383 -0.2956
 1407W        W18255   1.161   8.175  12.600 -0.1594 -0.0390  0.2836
 1408W        W18256  12.685   8.366   2.205 -0.0844 -0.0125 -0.2016
 1409W        W18257  15.482   4.215  13.274 -0.1139  0.0388  0.1867
 1410W        W18258  10.077  11.362  13.771 -0.0832 -0.1452  0.1547
 1411W        W18259  16.472   7.500   0.114  0.0384 -0.0324 -0.1262
 1412W        W18260  17.586   5.537   2.674 -0.0598 -0.2118 -0.0722
 1413W        W18261   4.019  12.981   3.659 -0.1800  0.0758  0.0444
 1414W        W18262  13.665   6.807   4.146 -0.1819 -0.0010  0.4001
 1415W        W18263   0.569   6.140  15.045 -0.2103  0.1614  0.0442
 1416W        W18264   5.597   3.434  16.070 -0.0140  0.0741 -0.2107
 1417W        W18265   4.911   9.146  11.326  0.0855  0.3309  0.2867
 1418W        W18266   6.059  13.678   0.248 -0.0884  0.0465 -0.0805
 1419W        W18267   6.533   4.029   2.421 -0.1505 -0.3608  0.1969
 1420W        W18268  11.676   7.523  16.584 -0.1255  0.1691 -0.2162
 1421W        W18269   1.400   9.343  16.621  0.1526 -0.2409 -0.0582
 1422W        W18270   0.832  10.586   4.502  0.0180 -0.2916 -0.1475
 1423W        W18271  15.057   0.646   6.393  0.0150  0.1097  0.0122
 1424W        W18272   9.930   4.461   4.887 -0.1906 -0.1222 -0.2067
 1425W        W18273   7.870   2.274   4.241 -0.1926  0.2735 -0.1692
 1426W        W18274   2.817  13.706  11.930  0.1473 -0.0195 -0.2161
 1427W        W18275  14.430  11.455  14.032  0.1710 -0.2017 -0.0143
 1428W        W18276  16.178   1.858  13.249 -0.0068  0.2076  0.1156
 1429W        W18277   8.576  10.458   4.689  0.3001 -0.2662 -0.1368
 1430W        W18278  12.632   9.439  16.357  0.0688 -0.0000 -0.0718
 1431W        W18279  17.119  17.665   4.681  0.1683 -0.1376  0.2954
 1432W        W18280   1.252  15.131  15.338 -0.0194  0.1717 -0.1333
 1433W        W18281   9.204   3.598  13.990 -0.0516 -0.1871  0.2091
 1434W        W18282  17.049  16.038  12.150 -0.2360  0.0224 -0.3248
 1435W        W18283   4.454   1.831  11.707  0.3126 -0.1382  0.0894
 1436W        W18284   8.093  10.213   1.035 -0.1072  0.0284 -0.3426
 1437W        W18285  11.832   0.394  12.082 -0.1378  0.1882  0.1460
 1438W        W18286   0.656  11.283   2.179 -0.1177 -0.1165 -0.3937
 1439W        W18287  10.897   7.402  11.828  0.1989  0.1997  0.0837
 1440W        W18288   1.355  15.536  14.536 -0.0641 -0.0732  0.1839
 1441W        W18289  17.301   0.469  12.759 -0.1592  0.0571 -0.1765
 1442W        W18290   5.422   2.766   0.560  0.0341  0.0173  0.3037
 1443W        W18291  16.502   6.904   0.790 -0.0174  0.0935  0.2511
 1444W        W18292  11.657  10.854  16.407 -0.0818 -0.0701 -0.0897
 1445W        W18293   3.049   3.148   2.409  0.3047  0.1403  0.0845
 1446W        W18294   8.783   1.267  11.199 -0.0795 -0.0759  0.0022
 1447W        W18295   5.353   2.196   2.881 -0.1225 -0.2017  0.0254
 1448W        W18296   4.911   1.726  16.036  0.1001  0.0390 -0.1086
 1449W        W18297  16.831  16.217   1.339  0.1834  0.0553 -0.0100
 1450W        W18298   3.414   1.113   3.760 -0.0958  0.1214  0.1671
 1451W        W18299  15.712   8.125   5.225 -0.1073  0.0966 -0.1574
 1452W        W18300  16.548   4.883  14.411  0.1622 -0.2482  0.0885
 1453W        W18301   0.545  13.982   5.921  0.0708  0.2292 -0.0947
 1454W        W18302  13.693   0.358  14.128  0.3656 -0.2315  0.0311
 1455W        W18303   4.608  13.369   1.999  0.0491 -0.1008  0.0687
 1456W        W18304   9.821  16.597   4.039 -0.1175  0.1285  0.0215
 1457W        W18305   8.138   6.716  14.705  0.0867 -0.2697 -0.0599
 1458W        W18306  10.990   1.552  12.527 -0.1467  0.4829 -0.1376
 1459W        W18307   0.717   2.035  12.650 -0.1186  0.0101 -0.2060
 1460W        W18308   1.521   0.272  13.740 -0.2902 -0.1920  0.2098
 1461W        W18309   9.513   3.896   3.938  0.3130  0.1471  0.3144
 1462W        W18310   4.776   3.584   0.040 -0.2571  0.1097 -0.1388
 1463W        W18311   7.672  12.438  11.433 -0.0465  0.0057  0.0635
 1464W        W18312   6.890   5.658   3.840  0.1666 -0.2173 -0.3565
 1465W        W18313   4.354   4.169  13.388  0.0467 -0.1499  0.1954
 1466W        W18314   3.391   8.338   1.019  0.0238 -0.1720  0.1419
 1467W        W18315  12.129  16.402  12.067 -0.0324  0.1011 -0.0845
 1468W        W18316  12.090   3.860  14.873 -0.2178 -0.0543 -0.2039
 1469W        W18317   5.426  17.202  14.234  0.0849  0.2341 -0.1433
 1470W        W18318   8.616   7.670   0.205  0.0581 -0.0616  0.5133
 1471W        W18319   5.310   7.826   0.431  0.0098 -0.5194  0.0830
 1472W        W18320   8.423  14.457  15.383  0.2419  0.0921 -0.2681
 1473W        W18321   6.228  12.287  11.202  0.0417  0.3467  0.0589
 1474W        W18322  17.231  16.394   4.641 -0.0841  0.0476  0.2067
 1475W        W18323  12.050   3.846  15.524 -0.0508  0.2115 -0.2820
 1476W        W18324  12.108  15.187   3.142 -0.3072  0.0734  0.0583
 1477W        W18325   1.367  12.950  13.559 -0.2151 -0.0103 -0.0254
 1478W        W18326   1.797   7.871  15.455  0.3226 -0.0684 -0.1134
 1479W        W18327   2.545   1.888   1.082 -0.0668 -0.1178  0.0595
 1480W        W18328   5.460   4.212  15.786 -0.0913 -0.2583 -0.0379
 1481W        W18329   9.570   5.513   2.631 -0.3224  0.1854 -0.1145
 1482W        W18330  13.454   3.925  11.778  0.1078 -0.0463 -0.1215
 1483W        W18331   8.817  10.017  13.084  0.0581  0.0038 -0.0912
 1484W        W18332   5.728   0.777  16.040 -0.0903 -0.1244  0.2384
 1485W        W18333  14.830   1.290   4.553  0.1000  0.1461 -0.1530
 1486W        W18334  14.389   7.606   2.114  0.3896 -0.3023  0.0945
 1487W        W18335   7.682   3.779   0.801 -0.1965  0.2489 -0.0628
 1488W        W18336  17.605  15.825  13.629 -0.0646  0.4792 -0.1311
 1489W        W18337  12.340  11.191   2.744  0.0826  0.3113 -0.1023
 1490W        W18338   5.094  13.080   5.645 -0.0052 -0.3839  0.1516
 1491W        W18339  11.085  14.111   4.980  0.0320 -0.2187  0.1453
 1492W        W18340  15.211  12.023   2.743  0.2437 -0.0397 -0.2279
 1493W        W18341   2.541   0.596  13.075 -0.0361  0.0873 -0.0673
 1494W        W18342  16.723   5.810  15.132  0.2731 -0.1109 -0.1552
 1495W        W18343  14.482   5.666  12.586 -0.2318 -0.1882 -0.1606
 1496W        W18344   4.023  13.125  13.249 -0.1087 -0.0591 -0.0413
 1497W        W18345  12.814  12.170  14.351 -0.2219 -0.2305  0.0680
 1498W        W18346  15.260   5.732   3.532 -0.0651 -0.0569  0.1821
 1499W        W18347  13.594  15.676  15.793 -0.1052  0.0467 -0.1277
 1500W        W18348   9.811   8.348  14.524  0.2616  0.2068  0.0868
 1501W        W18349   3.993   4.383   4.645 -0.0227  0.1545 -0.1487
 1502W        W18350  11.759   2.028   3.756 -0.1560  0.2030 -0.2418
 1503W        W18351  16.392   4.624   1.331  0.1429 -0.0491  0.0993
 1504W        W18352   7.026  16.879   0.853 -0.0662 -0.0693  0.0900
 1505W        W18353   4.718   9.583  11.138 -0.2871 -0.3062  0.0331
 1506W        W18354   1.004   8.297   0.161 -0.3518 -0.2085  0.1765
 1507W        W18355   1.884  10.873   1.090 -0.0110  0.2104  0.2098
 1508W        W18356   4.751   9.871  15.081  0.0068 -0.1481  0.2753
 1509W        W18357   2.385  14.111   0.153  0.1471  0.0529  0.3027
 1510W        W18358   3.084   7.607   1.157  0.1336  0.0517 -0.1896
 1511W        W18359   1.790   4.824  11.468  0.0812  0.3235 -0.2194
 1512W        W18360  15.191  16.387  13.618 -0.0346  0.0189 -0.3681
 1513W        W18361  13.482   7.877   3.025  0.6850 -0.0446  0.0708
 1514W        W18362  16.514   2.969  15.163  0.3830 -0.1616 -0.2370
 1515W        W18363  17.323   8.598  11.833  0.1042  0.2727 -0.1787
 1516W        W18364  17.644  10.253  12.145  0.4101  0.0455  0.0738
 1517W        W18365   5.023  10.916   3.683  0.1417  0.0535  0.0569
 1518W        W18366   9.068   8.597  11.698  0.0586 -0.1127 -0.1394
 1519W        W18367  14.063   7.875  16.212  0.0297  0.0801 -0.1889
 1520W        W18368  10.540   4.329  16.249  0.0767  0.2799  0.1124
 1521W        W18369  11.786   6.323   1.139  0.2325  0.1189 -0.1373
 1522W        W18370   8.861   3.655  16.463  0.1407  0.0399  0.0212
 1523W        W18371  15.619  12.831  16.259 -0.3356  0.1730 -0.0967
 1524W        W18372  15.176   7.938   0.939 -0.3462  0.0388  0.2060
 1525W        W18373   6.725   0.151   1.705 -0.2431  0.2083  0.0530
 1526W        W18374  13.128   0.623   1.780 -0.3255  0.2553  0.2214
 1527W        W18375   6.345   0.672   5.722  0.0088  0.0383 -0.2799
 1528W        W18376  12.123  14.939  15.517 -0.0060  0.3526 -0.0534
 1529W        W18377   8.982  12.879  14.410 -0.3869 -0.0142 -0.2201
 1530W        W18378   5.627  16.940   2.632  0.0407  0.0310 -0.1988
 1531W        W18379  12.983   6.918   2.145 -0.1159 -0.1404 -0.0078
 1532W        W18380   2.839   5.854   5.105  0.0385  0.2924 -0.1791
 1533W        W18381   0.919  11.976  14.430 -0.1305  0.2975 -0.2676
 1534W        W18382  16.698   5.523  16.053 -0.2140  0.0480  0.0533
 1535W        W18383   7.388  17.144  16.271 -0.2904 -0.3569 -0.2599
 1536W        W18384   0.983  10.007  15.498  0.0671 -0.0321 -0.0434
 1537W        W18385  11.120  14.233  12.858 -0.0479 -0.2073  0.0736
 1538W        W18386   1.251   8.062  16.417  0.0020 -0.4756  0.1039
 1539W        W18387  17.070   5.038   5.260 -0.3477  0.1085 -0.3619
 1540W        W18388  14.273  12.265  15.303 -0.0421  0.0276  0.0020
 1541W        W18389  11.604  14.189  12.000  0.0325 -0.4481  0.1234
 1542W        W18390   3.228   2.178  10.829 -0.0567  0.0569 -0.1229
 1543W        W18391   0.184   8.864   5.630 -0.0067 -0.1452  0.0391
 1544W        W18392   1.028   2.336  12.270  0.2039 -0.2432  0.1604
 1545W        W18393  10.986   4.576  12.377 -0.0238  0.0696  0.0268
 1546W        W18394   8.045  16.873   0.027  0.2473 -0.0841  0.3168
 1547W        W18395   6.855   1.433   0.733 -0.0380 -0.1055 -0.2368
 1548W        W18396  13.148   3.183  11.857  0.2495  0.0878 -0.1364
 1549W        W18397  14.079   5.693  12.130  0.0709 -0.1011  0.0063
 1550W        W18398   3.203   4.520  15.122 -0.0260  0.0046 -0.1121
 1551W        W18399   1.416  14.735  13.332 -0.2695  0.1435 -0.1118
 1552W        W18400   9.569   0.967  10.961  0.3133 -0.0910 -0.1952
 1553W        W18401   2.084  11.318  14.328  0.1338 -0.1537 -0.0671
 1554W        W18402   1.144   4.387   1.606  0.0029  0.2694  0.0264
 1555W        W18403   5.806   4.146   4.927 -0.2886  0.0879 -0.0457
 1556W        W18404   5.798   4.628   4.804  0.2697 -0.0520  0.1486
 1557W        W18405   0.542   0.458   1.666 -0.2451  0.1616  0.0404
 1558W        W18406   1.385  11.805   0.552  0.1337  0.2518 -0.2434
 1559W        W18407  10.932   8.880   3.537 -0.0484  0.6852  0.2368
 1560W        W18408  15.234   5.448  13.957  0.0433  0.1210  0.1025
 1561W        W18409   8.703   8.781   5.635 -0.1841 -0.0230 -0.5424
 1562W        W18410  12.515   8.475  13.770  0.2387 -0.1535 -0.0702
 1563W        W18411  12.572  10.800   1.158  0.0706 -0.0305 -0.1869
 1564W        W18412   2.904   3.075   0.586  0.1048 -0.3017 -0.2523
 1565W        W18413   1.014   4.627   0.002 -0.1872  0.1587  0.2575
 1566W        W18414   1.523  10.819  11.524 -0.1611  0.0381  0.1007
 1567W        W18415   4.363   9.119   3.921 -0.1891 -0.0260  0.2466
 1568W        W18416  16.296   0.012   3.957 -0.1351 -0.0180  0.1008
 1569W        W18417   8.889   9.352   1.633  0.1080 -0.0585  0.0079
 1570W        W18418   2.312   8.983   3.822 -0.1053  0.1135 -0.1673
 1571W        W18419   0.278  15.204   3.684 -0.3044  0.0997  0.0537
 1572W        W18420   9.818   6.546   5.467 -0.0021 -0.1310 -0.0815
 1573W        W18421   7.288  13.698   4.188  0.1939  0.2893 -0.2457
 1574W        W18422  10.748   2.376   0.165 -0.0392  0.1795  0.0279
 1575W        W18423   8.697   4.960  16.568  0.1342  0.1077  0.0075
 1576W        W18424   3.420  10.761  15.121  0.2890  0.0654 -0.0118
 1577W        W18425   9.486  10.290  12.000 -0.0611  0.0814 -0.1662
 1578W        W18426  17.047  16.822  15.918  0.3258 -0.0707  0.1637
 1579W        W18427  15.272   4.173   4.892  0.0028  0.0779  0.1639
 1580W        W18428  13.754  12.986   0.408 -0.0958  0.0436 -0.3366
 1581W        W18429   0.058  13.492   3.779 -0.4664 -0.2852 -0.0270
 1582W        W18430  14.120  10.004   0.171 -0.0999  0.1707 -0.1015
 1583W        W18431   2.465  16.918  12.716 -0.0195  0.0496  0.0346
 1584W        W18432   3.068  11.004  11.413  0.3846 -0.0540  0.1166
 1585W        W18433  10.616  15.449  15.646  0.0981  0.0376 -0.4183
 1586W        W18434  17.433  14.735  13.759  0.0278  0.1798 -0.3281
 1587W        W18435   8.341  17.064  15.021 -0.1451  0.2143  0.3257
 1588W        W18436  13.515   4.466  12.544  0.0052  0.0778 -0.1276
 1589W        W18437  12.784  15.201   2.371  0.1732 -0.2323  0.1686
 1590W        W18438  13.654  16.295  12.581  0.1727  0.5053  0.1176
 1591W        W18439   9.233   2.828  16.460  0.2418  0.0474  0.3832
 1592W        W18440   2.219   3.795   0.364 -0.1449  0.2225  0.0567
 1593W        W18441  10.774  17.104  12.887  0.1988 -0.2687  0.0636
 1594W        W18442   7.338   1.566  13.457  0.0989 -0.1635  0.1726
 1595W        W18443  16.167   6.054  13.620  0.3452 -0.0894 -0.2825
 1596W        W18444  10.653  13.834  14.865 -0.0229 -0.3742 -0.0717
 1597W        W18445  10.779  17.784   1.935 -0.0555 -0.2391 -0.1197
 1598W        W18446   0.400   8.343   3.313  0.1090  0.0554  0.0554
 1599W        W18447   6.379   3.178  16.239 -0.0560  0.0082  0.2639
 1600W        W18448   2.708   9.948  13.700  0.0909  0.0866  0.1576
 1601W        W18449  12.164  13.847   3.393  0.2374  0.2297 -0.0016
 1602W        W18450  15.072   5.819   0.500  0.2556 -0.2837 -0.2007
 1603W        W18451  15.390   6.635  14.695 -0.0828 -0.3416 -0.0218
 1604W        W18452  14.226   1.271  15.389 -0.1083 -0.2939 -0.0671
 1605W        W18453   4.803   1.209   0.680  0.0129  0.0117 -0.0251
 1606W        W18454  12.046   5.492  10.936 -0.0605  0.0797 -0.0053
 1607W        W18455   6.350   3.538   0.068  0.0686 -0.2474  0.2307
 1608W        W18456  17.340   1.194   0.537 -0.0879 -0.0850  0.1118
 1609W        W18457   6.920  16.292  13.927  0.2970  0.0898 -0.0042
 1610W        W18458  14.423  15.042  15.757  0.0464  0.1727  0.0967
 1611W        W18459   4.779  12.828   1.764 -0.0479 -0.2577 -0.1379
 1612W        W18460  15.264  10.640  10.724  0.0735 -0.4769  0.0900
 1613W        W18461   5.056   5.346   5.573  0.1648 -0.1728  0.0548
 1614W        W18462  11.746   6.601   2.439 -0.5325 -0.4414  0.0036
 1615W        W18463  12.256   8.380  15.131 -0.4668 -0.0969  0.2792
 1616W        W18464   6.417   4.519  11.755  0.1132 -0.0326  0.0907
 1617W        W18465   4.416   4.186  15.097  0.0985 -0.0003 -0.0985
 1618W        W18466   2.727   3.321  15.341  0.0721 -0.0067  0.0753
 1619W        W18467  10.386  11.828  14.309 -0.2755  0.2405 -0.0793
 1620W        W18468   8.237  10.694   2.553 -0.1114  0.0473 -0.2652
 1621W        W18469   3.399  14.689   1.077  0.1839 -0.1882  0.1810
 1622W        W18470   7.388   6.761  13.828  0.0710 -0.0857 -0.2462
 1623W        W18471  16.155  10.665  14.618  0.5359 -0.4048  0.3650
 1624W        W18472  11.473   8.950  15.342 -0.2347  0.1912 -0.1304
 1625W        W18473  14.160  12.687   0.251  0.1362  0.0681 -0.0394
 1626W        W18474   6.856  14.500  11.210  0.2251 -0.2561 -0.1612
 1627W        W18475   9.139  15.648   0.995  0.1068 -0.1207 -0.0413
 1628W        W18476   3.673   9.178   2.572  0.0173  0.0625 -0.1040
 1629W        W18477  13.793  14.443  11.762 -0.3234 -0.3108 -0.2319
 1630W        W18478  17.393   4.118  12.007 -0.0073 -0.2142  0.0607
 1631W        W18479  17.475  11.660  10.201  0.1343  0.1223  0.4040
 1632W        W18480   5.362   4.133  14.827  0.2419 -0.0481 -0.1051
 1633W        W18481   0.326   6.319   0.989 -0.0911  0.3331  0.1327
 1634W        W18482  10.391   7.417   4.131  0.0656  0.4552  0.0575
 1635W        W18483   5.157   8.975  11.779 -0.4218 -0.0062  0.3882
 1636W        W18484   3.675   1.233   6.193  0.1079  0.0226  0.0480
 1637W        W18485   5.507  14.710   1.682 -0.0709 -0.0725 -0.0486
 1638W        W18486  15.553  14.070  13.613  0.1453  0.0126 -0.1177
 1639W        W18487   1.519   6.087  14.208  0.0365 -0.1372  0.0190
 1640W        W18488   6.763   7.345  13.357  0.0091  0.3687  0.3509
 1641W        W18489  11.118   7.922  14.402 -0.0022  0.1779  0.0086
 1642W        W18490   9.171   7.452  13.330 -0.0513  0.1905 -0.1199
 1643W        W18491  11.033  14.125  11.736  0.0710  0.2526  0.0142
 1644W        W18492   8.366   2.986  16.499 -0.0412  0.0549  0.0133
 1645W        W18493  17.519  16.842   0.788 -0.0189  0.1199 -0.1107
 1646W        W18494   8.311   1.202   3.372 -0.1788 -0.0278 -0.1612
 1647W        W18495  16.703   9.442  14.852 -0.4379  0.4264 -0.0517
 1648W        W18496   2.555  12.691  14.880 -0.0675 -0.3198 -0.1185
 1649W        W18497  16.568   0.894  11.717  0.3655  0.0546  0.0864
 1650W        W18498  13.187   1.574  12.910  0.0326 -0.2117  0.0776
 1651W        W18499  13.458   9.034  12.780  0.0685  0.0099 -0.0466
 1652W        W18500   6.978   8.964   2.374 -0.2066  0.2076  0.4182
 1653W        W18501   3.191  10.872   4.700  0.0397  0.5275  0.0496
 1654W        W18502  12.515  13.423  13.030 -0.1368 -0.0497  0.1985
 1655W        W18503  11.583  15.109   4.235 -0.1211  0.5989 -0.1343
 1656W        W18504   7.592   4.990  11.670 -0.0857  0.5709  0.3389
 1657W        W18505   7.317   3.928   4.889  0.0476  0.1068 -0.0738
 1658W        W18506  16.197  10.924  16.185 -0.2222  0.0072  0.2891
 1659W        W18507   8.973  14.967  12.451 -0.2459  0.0873  0.0522
 1660W        W18508   6.252  13.812   5.266 -0.2578 -0.1769 -0.0987
 1661W        W18509  12.258  14.649   1.936 -0.1483  0.0738  0.0743
 1662W        W18510   2.259   4.112   6.070 -0.2081  0.1089  0.1226
 1663W        W18511  16.213  15.932   2.118 -0.0778  0.0159  0.1571
 1664W        W18512   2.502  16.158   3.552 -0.4221  0.2217  0.0800
 1665W        W18513  16.484   4.763  12.410 -0.0058 -0.1803  0.1003
 1666W        W18514   4.755   7.824  15.734 -0.1736 -0.1432 -0.2029
 1667W        W18515   5.942   8.930   2.148 -0.1695 -0.1991  0.2825
 1668W        W18516   4.741   1.506   0.236  0.1337  0.1445  0.2111
 1669W        W18517   1.401  13.000   4.183 -0.1194  0.1935 -0.0993
 1670W        W18518  13.587  13.725  11.230  0.0530  0.3279 -0.0297
 1671W        W18519   6.413  15.120  13.366  0.0577 -0.3717  0.0185
 1672W        W18520   4.710   1.382  13.682  0.0022  0.0119 -0.1924
 1673W        W18521   0.829   5.498  11.891 -0.2263  0.3040 -0.2379
 1674W        W18522   6.209   7.793  16.507 -0.0153  0.0744  0.1171
 1675W        W18523  11.674  11.005   0.711  0.1304 -0.0497  0.2358
 1676W        W18524  16.380   8.604  14.256  0.3081 -0.1487  0.2145
 1677W        W18525   9.141  13.209  13.698  0.1558 -0.1562 -0.0001
 1678W        W18526   5.524  17.841   3.664 -0.0081  0.0143  0.2112
 1679W        W18527   8.600   8.200   0.569  0.2797 -0.3927 -0.2601
 1680W        W18528   1.322  15.771   6.431 -0.1047 -0.0022  0.0586
 1681W        W18529   0.710   7.492   3.595  0.2984  0.1198 -0.3195
 1682W        W18530   1.217   2.267   3.826  0.0090  0.1477 -0.1642
 1683W        W18531   7.292  12.307  11.840  0.3072  0.0454  0.1116
 1684W        W18532   0.470  15.448   2.889  0.1352 -0.2239 -0.1687
 1685W        W18533  11.882   0.721   5.754  0.0860  0.0080  0.0583
 1686W        W18534   3.432  12.227  14.074 -0.3056 -0.0827 -0.2665
 1687W        W18535  17.240   8.111  14.433 -0.0227 -0.0581  0.1841
 1688W        W18536   5.147  17.263  13.612  0.3409  0.0431 -0.2087
 1689W        W18537   0.835  17.391   4.458  0.1702 -0.1894 -0.1455
 1690W        W18538   4.077   1.743  14.552  0.1083  0.1612 -0.2171
 1691W        W18539  14.530   7.122   3.402 -0.2762 -0.0659  0.2587
 1692W        W18540   9.199  14.159  15.983  0.1564  0.2180 -0.1002
 1693W        W18541   1.571   3.304  16.191 -0.1136 -0.1578  0.1826
 1694W        W18542   8.265  10.183   1.754 -0.3113 -0.4388 -0.3333
 1695W        W18543  15.095   6.898  14.419 -0.2826 -0.2532 -0.0490
 1696W        W18544   3.755  14.334   4.526  0.1247  0.3246 -0.0214
 1697W        W18545   9.697   8.600  13.683 -0.1159  0.0528  0.0947
 1698W        W18546  12.920   5.859  12.861 -0.2361 -0.1940  0.2638
 1699W        W18547   7.938   6.125   1.879 -0.1042  0.0487  0.2528
 1700W        W18548   1.830  11.013  12.523 -0.0875  0.0560  0.1319
 1701W        W18549   2.523   6.232  11.815 -0.1004  0.0143  0.1273
 1702W        W18550  14.812  15.722   3.481 -0.0772  0.0349  0.1761
 1703W        W18551   7.851  17.783  14.386  0.0755 -0.2927  0.0295
 1704W        W18552   0.735   1.922   4.754 -0.1326  0.1985 -0.0399
 1705W        W18553   0.930  13.579   5.198  0.0856 -0.3911 -0.0277
 1706W        W18554   4.463  11.027  13.105 -0.0031 -0.1947 -0.0899
 1707W        W18555   0.784   3.154   5.576  0.0162 -0.2031 -0.1228
 1708W        W18556   0.889   8.741  14.234 -0.0347 -0.1528 -0.0258
 1709W        W18557  12.988  17.299   4.060 -0.2190  0.2841 -0.1055
 1710W        W18558   5.656  14.713  15.250 -0.2737  0.0359 -0.1097
 1711W        W18559  10.905   3.971   5.094 -0.2443 -0.1369 -0.1235
 1712W        W18560  11.969  13.600   4.879  0.0908  0.0814  0.2122
 1713W        W18561   3.311   1.892   2.268  0.0542 -0.2383  0.3568
 1714W        W18562  17.213   0.069  14.059  0.3503 -0.0930  0.0185
 1715W        W18563   6.502  16.967   2.589  0.0084  0.2290 -0.0621
 1716W        W18564  11.315  10.427   1.810  0.2124 -0.0863 -0.0824
 1717W        W18565   6.452  16.171  13.758 -0.1401  0.2028 -0.3362
 1718W        W18566   7.166   3.606  14.307  0.0240  0.0419  0.0124
 1719W        W18567   7.159  13.280  11.808  0.3409 -0.1650  0.1596
 1720W        W18568   8.773   5.455  12.083 -0.1669  0.1567 -0.2385
 1721W        W18569  16.577   6.179  11.415  0.1823 -0.0278  0.0466
 1722W        W18570   6.624   3.186  11.553  0.1875  0.1202  0.1257
 1723W        W18571   2.144  12.610   2.565  0.0750 -0.1017  0.1123
 1724W        W18572   0.155  10.629  16.386 -0.4544 -0.1378 -0.0956
 1725W        W18573  15.888   0.528   5.223  0.1613 -0.1883 -0.0407
 1726W        W18574   0.141   4.472  10.857 -0.0914 -0.3766 -0.1567
 1727W        W18575   9.196  11.732  12.066  0.2841 -0.1255 -0.1759
 1728W        W18576  14.548   0.210  13.675 -0.1021  0.2180  0.0844
 1729W        W18577  12.062  14.754   2.939 -0.1449 -0.1280  0.1557
 1730W        W18578   2.811   8.019  13.950 -0.0479 -0.0982 -0.2950
 1731W        W18579   8.393   5.322  11.504  0.0247  0.1234  0.1450
 1732W        W18580   3.236   4.831   1.302 -0.0018  0.0653 -0.1360
 1733W        W18581   1.557  14.386   4.789  0.1648 -0.2800 -0.2153
 1734W        W18582   2.238  12.310   3.453 -0.1863 -0.0371 -0.1197
 1735W        W18583  10.184   2.408   4.333 -0.3790 -0.0371 -0.1618
 1736W        W18584   0.785   1.774  12.191 -0.1514 -0.0420  0.3229
 1737W        W18585  17.074  13.594  16.025 -0.2008  0.2497  0.1228
 1738W        W18586   7.329  17.575  15.057 -0.1914  0.1281 -0.0170
 1739W        W18587  10.726  11.699   1.884  0.3105  0.1072  0.3091
 1740W        W18588   9.122   8.246   3.283 -0.0281  0.0583  0.0918
 1741W        W18589   3.818   8.128   2.839 -0.2160  0.4018 -0.1203
 1742W        W18590  17.282   5.864   1.181  0.3891  0.2636  0.1861
 1743W        W18591   5.062  16.289   6.189 -0.0899 -0.2536  0.1100
 1744W        W18592   0.367   9.336   3.620 -0.2411 -0.0986 -0.0156
 1745W        W18593  14.986  12.446   1.848  0.1856  0.2230 -0.0219
 1746W        W18594  17.041   6.796  15.168 -0.0368 -0.4651  0.2095
 1747W        W18595  11.589  16.206   3.913  0.0337  0.1984  0.1174
 1748W        W18596  15.532  16.906  10.561  0.1523 -0.1433 -0.1314
 1749W        W18597   1.304  16.873  14.419 -0.1018  0.1298  0.1865
 1750W        W18598  11.254  12.904   4.678 -0.2032 -0.1853 -0.1557
 1751W        W18599   0.213  12.967   3.615  0.3378 -0.0061 -0.3306
 1752W        W18600   4.470   4.259   2.816  0.1833 -0.0523 -0.0385
 1753W        W18601   4.504   6.563   4.859 -0.1839 -0.2134  0.0185
 1754W        W18602   0.395  14.760   4.479 -0.1170 -0.2977  0.2038
 1755W        W18603   0.506   5.884  14.609  0.0086 -0.0500 -0.0084
 1756W        W18604  13.593   8.799   2.115  0.0264  0.1413  0.0028
 1757W        W18605  17.177  12.129   1.157 -0.0661 -0.3502  0.1574
 1758W        W18606  12.589  10.170   5.505  0.0615 -0.0240  0.3059
 1759W        W18607  16.677   5.467   3.105 -0.0001 -0.0413 -0.2170
 1760W        W18608   4.684   4.763  15.831  0.0946  0.0154 -0.0898
 1761W        W18609  15.045   9.720   4.186 -0.3277  0.0092  0.0064
 1762W        W18610   5.805   5.103  12.613 -0.0948  0.1591  0.0384
 1763W        W18611   6.563  12.434   6.183 -0.2786 -0.1834 -0.1390
 1764W        W18612  16.306  12.928   3.885  0.1469  0.1096 -0.2233
 1765W        W18613   8.263  12.227  14.352  0.1494  0.0004 -0.0977
 1766W        W18614  16.200   7.088   1.737  0.1070 -0.0996 -0.0438
 1767W        W18615  14.673   7.521  11.930  0.3313  0.1914  0.0523
 1768W        W18616  15.415  15.375   4.516  0.0235  0.0873  0.0675
 1769W        W18617  14.476   5.819  14.678  0.0576  0.0576 -0.1495
 1770W        W18618   9.670  11.098  13.423 -0.1713 -0.2597 -0.0505
 1771W        W18619  14.711   2.597   4.110 -0.0828 -0.1741 -0.1244
 1772W        W18620   4.762   5.598  15.637  0.0946 -0.1228 -0.0254
 1773W        W18621   6.012  12.727  16.628  0.2246  0.1382  0.2081
 1774W        W18622   8.562   1.469  10.794 -0.0714 -0.3720 -0.0114
 1775W        W18623   4.829   3.204  16.051 -0.4444  0.1368 -0.0915
 1776W        W18624  12.970  10.292  15.821  0.0296 -0.3680 -0.0044
 1777W        W18625   2.386  16.040  14.629 -0.2019 -0.3085  0.1685
 1778W        W18626  14.705   7.146   1.542 -0.0581  0.1097 -0.1521
 1779W        W18627  12.186  13.254  14.899  0.2112 -0.0107 -0.2515
 1780W        W18628   0.340  10.582  14.891 -0.2077 -0.2241  0.1085
 1781W        W18629   2.546   5.887  13.018  0.1846  0.1563 -0.0983
 1782W        W18630   3.293  15.430   4.281 -0.0062 -0.2359 -0.1526
 1783W        W18631  15.786   7.416  15.678 -0.2610  0.2533 -0.0343
 1784W        W18632  15.178   9.368   3.424  0.1064 -0.1487  0.0421
 1785W        W18633   6.221  16.552  14.930 -0.2188  0.0878  0.2277
 1786W        W18634   5.829  11.361   4.604  0.1592  0.1182 -0.1007
 1787W        W18635   1.624  17.798  12.602  0.2612  0.0936 -0.0817
 1788W        W18636   8.146  16.570  16.279 -0.0525  0.0456  0.3131
 1789W        W18637  12.930   4.355  13.959  0.3746  0.3525 -0.3509
 1790W        W18638  12.365   0.573   0.260  0.0282  0.1837 -0.0930
 1791W        W18639  10.389   1.478   0.781  0.3221 -0.1493  0.1555
 1792W        W18640   6.207   9.190   1.247  0.0578  0.0811  0.0277
 1793W        W18641   4.431   0.238  11.782 -0.1767  0.0710 -0.3462
 1794W        W18642  10.698  14.031  12.122 -0.3004  0.2243  0.1359
 1795W        W18643   8.762   3.487  15.275 -0.0245  0.0733 -0.2008
 1796W        W18644  15.468  13.570   4.587 -0.1218 -0.0198  0.1029
 1797W        W18645   6.345  15.893   3.933 -0.0846 -0.3072 -0.0173
 1798W        W18646   8.372  13.011  16.246  0.0924 -0.0488 -0.1630
 1799W        W18647  14.623  16.820  14.046 -0.0408  0.0236 -0.0288
 1800W        W18648   6.001  10.980  11.419 -0.1806  0.0670  0.2891
 1801W        W18649   6.244   2.914  13.868  0.0037  0.3115 -0.3045
 1802W        W18650  15.907  13.821  16.146 -0.0416 -0.0473  0.1377
 1803W        W18651  12.011  12.324  11.897 -0.1447 -0.1349  0.4938
 1804W        W18652   0.985   1.248  15.033  0.2220 -0.0074  0.2249
 1805W        W18653   9.088   6.864   0.328 -0.0109 -0.2109 -0.1446
 1806W        W18654  12.800  13.232   3.734 -0.1516 -0.0727 -0.1259
 1807W        W18655  16.606   6.597  10.337 -0.0867  0.0732 -0.1776
 1808W        W18656   4.738  13.195  16.095  0.2790 -0.0943 -0.1384
 1809W        W18657  14.264  14.416   4.023 -0.2685 -0.0306 -0.0531
 1810W        W18658   4.165  15.843  11.584  0.3092  0.0051  0.0561
 1811W        W18659  10.914   9.200  11.358 -0.1424 -0.2092  0.1432
 1812W        W18660  14.224   0.502   3.160  0.1517  0.3884  0.1465
 1813W        W18661   4.011  10.878  12.530 -0.0532  0.2982  0.0074
 1814W        W18662   2.656   5.454  14.969  0.2674 -0.1936  0.1538
 1815W        W18663   7.408   7.425   4.340  0.0681  0.1868  0.2763
 1816W        W18664   6.423   4.735  16.190 -0.0532  0.0338  0.1225
 1817W        W18665   2.963   3.049   5.600 -0.0706  0.1390 -0.0359
 1818W        W18666   0.961   5.080  12.296 -0.1049 -0.0712 -0.3248
 1819W        W18667  14.631   1.749   4.506 -0.1354 -0.1228 -0.3682
 1820W        W18668   8.953  12.028  15.051 -0.0455 -0.2970 -0.0889
 1821W        W18669  12.656  11.680  12.447  0.0871 -0.0345  0.2945
 1822W        W18670   8.702   8.428  15.694 -0.0804  0.3041  0.1734
 1823W        W18671  12.497  10.086  13.290  0.0702  0.0606  0.0653
 1824W        W18672   9.735  14.084   0.916 -0.1282  0.0236  0.0019
 1825W        W18673   3.025   4.646  13.694 -0.0230 -0.0606 -0.0395
 1826W        W18674   6.680   2.787  15.289 -0.1466  0.0813  0.1102
 1827W        W18675   0.566   6.599  13.892 -0.1675  0.0892  0.3551
 1828W        W18676   5.523  12.872   5.374 -0.0332 -0.1647 -0.1652
 1829W        W18677  14.441   0.343   3.578 -0.2974 -0.1989 -0.0462
 1830W        W18678   1.950  14.666  14.140 -0.4262 -0.1638 -0.0969
 1831W        W18679   5.926  15.197   4.074  0.0338  0.3670  0.0842
 1832W        W18680   2.632  10.139   5.274 -0.1096 -0.2919  0.0011
 1833W        W18681  15.503   5.061   0.434 -0.3815  0.0074 -0.0345
 1834W        W18682   1.929  13.179   4.316  0.0822 -0.0164 -0.0999
 1835W        W18683   1.969  14.935   1.210  0.1571 -0.0853  0.3982
 1836W        W18684  10.482  14.898   0.854  0.0207 -0.2020  0.2841
 1837W        W18685  17.717  13.647  15.255 -0.2916  0.4302  0.0126
 1838W        W18686   3.399   9.636  11.734 -0.1719  0.0914  0.2497
 1839W        W18687   4.909  16.008   0.096  0.2454 -0.0433 -0.1213
 1840W        W18688   8.347  17.298  16.551 -0.2276  0.0562  0.0683
 1841W        W18689   9.535  16.794   5.258 -0.0388  0.0057 -0.0716
 1842W        W18690   4.507  12.736  14.749 -0.0613 -0.5670  0.0011
 1843W        W18691   0.520   3.138   5.084  0.2898  0.1397  0.0083
 1844W        W18692   7.149  14.078  12.231  0.0535  0.0509  0.2947
 1845W        W18693  11.075   1.289  15.779  0.1800  0.3425 -0.0513
 1846W        W18694   3.936   9.161  13.928 -0.0237  0.0650 -0.1142
 1847W        W18695  12.890  11.736   4.293  0.2650 -0.2145  0.4754
 1848W        W18696   9.227   1.502  13.367 -0.1929  0.0965  0.1639
 1849W        W18697   0.283  11.480   4.607  0.1486  0.1290  0.2234
 1850W        W18698   0.251  14.477   1.286  0.4767  0.1680  0.1977
 1851W        W18699  11.118   2.974   1.680 -0.2216  0.1557 -0.0210
 1852W        W18700   3.983  17.813  16.160 -0.0362 -0.1722 -0.1161
 1853W        W18701   7.270  14.685  13.464  0.1203  0.1812 -0.0172
 1854W        W18702  13.606  12.377  13.117 -0.0835 -0.0260 -0.1598
 1855W        W18703  12.382   6.341   5.241 -0.0848 -0.0097 -0.1253
 1856W        W18704   2.851   6.182   1.797  0.4993 -0.0125 -0.1751
 1857W        W18705  15.300  16.441   1.377 -0.2986 -0.0972  0.0731
 1858W        W18706  14.634   0.608  15.129 -0.0843 -0.0627 -0.0275
 1859W        W18707  14.403  13.353  14.077 -0.2963 -0.3155  0.0563
 1860W        W18708  17.026   7.726   2.411  0.0364  0.1753  0.1363
 1861W        W18709  16.280   9.321  11.286  0.2499 -0.0837 -0.1834
 1862W        W18710   9.286   6.487   5.919 -0.0917  0.1442  0.0330
 1863W        W18711  17.099  17.393  12.731 -0.1019  0.1225 -0.1083
 1864W        W18712   7.294   8.281  15.608  0.1456 -0.1871 -0.0239
 1865W        W18713  16.350  12.363   5.698  0.1611  0.2590 -0.0075
 1866W        W18714   7.531  13.340   0.948 -0.3384  0.0340  0.4045
 1867W        W18715   6.593   9.056   4.519  0.2425  0.2642 -0.2380
 1868W        W18716  15.744   1.786  15.916 -0.0019 -0.0609 -0.3263
 1869W        W18717   4.003   3.838  12.410  0.0297 -0.3814 -0.1709
 1870W        W18718   8.569  13.875   0.051  0.0774 -0.0365  0.2925
 1871W        W18719   4.547  15.028  13.894 -0.4122 -0.2342  0.0548
 1872W        W18720  11.526  13.444   4.520 -0.0294  0.3403  0.1700
 1873W        W18721   6.360  10.617   3.523  0.0972 -0.2525  0.0512
 1874W        W18722   3.122   8.093   0.625 -0.0302  0.0847 -0.1700
 1875W        W18723   2.863  13.065  13.464  0.1177  0.1287 -0.0471
 1876W        W18724   6.818  14.544  14.883  0.2788  0.0968 -0.0512
 1877W        W18725   7.900   9.135  11.932 -0.0076  0.0746 -0.0564
 1878W        W18726   6.744   9.039  14.504 -0.0296 -0.0225 -0.2610
 1879W        W18727   3.254  16.136  15.078 -0.0410 -0.1396  0.2500
 1880W        W18728   7.003  14.105  15.755 -0.3327 -0.2449  0.0197
 1881W        W18729  11.369   7.887   4.280  0.0195 -0.0045  0.0808
 1882W        W18730   8.774   2.146  11.922 -0.0502 -0.0914  0.0262
 1883W        W18731   3.714  15.668   1.678  0.2493 -0.1510 -0.0466
 1884W        W18732   6.190   5.385  12.146  0.0771  0.0527 -0.1712
 1885W        W18733   0.371   8.423   5.563  0.1324 -0.0169 -0.0349
 1886W        W18734   5.552  14.445  14.692  0.4033 -0.0481 -0.1781
 1887W        W18735   2.965   5.260   1.037 -0.2547 -0.0952 -0.2703
 1888W        W18736   0.380   8.259   0.697 -0.0204  0.1665 -0.0052
 1889W        W18737  14.661  16.623   3.599 -0.1559 -0.2676  0.0763
 1890W        W18738   1.332  14.290  13.789 -0.1262  0.0784  0.1716
 1891W        W18739   2.539  16.540  15.902 -0.1485  0.3167  0.0710
 1892W        W18740  10.298   6.390  11.584  0.2075  0.0734  0.1453
 1893W        W18741  11.566  14.988   2.891 -0.1897 -0.2851 -0.2697
 1894W        W18742   9.663   2.510   4.198 -0.1022 -0.0952  0.0447
 1895W        W18743   6.369   5.195   1.792 -0.2933  0.0372  0.4713
 1896W        W18744  14.723  14.092   0.766  0.0859  0.3452 -0.2945
 1897W        W18745   1.957   5.386   0.728  0.2751  0.0482 -0.0625
 1898W        W18746  15.201   7.661   1.812 -0.0030 -0.1309 -0.2599
 1899W        W18747  16.386  15.898  14.402  0.1284  0.1760  0.0488
 1900W        W18748  15.335   5.886  14.191  0.4023  0.0256 -0.3102
 1901W        W18749   7.100  11.512  12.439  0.3236 -0.1403 -0.0109
 1902W        W18750  13.295   3.907   4.071 -0.1433  0.0537  0.1931
 1903W        W18751   6.846  13.751  13.079  0.1473 -0.1362  0.1877
 1904W        W18752   2.203   9.482  13.857 -0.1857 -0.1112 -0.2632
 1905W        W18753   2.176  10.700   1.951 -0.2072  0.0897  0.0336
 1906W        W18754   3.243   9.670   3.295 -0.2480 -0.0446 -0.1517
 1907W        W18755   0.861   7.255  12.772 -0.2583  0.2209  0.1801
 1908W        W18756  16.133   6.199   4.850  0.1579  0.0007  0.2546
 1909W        W18757   2.258   6.153  15.862  0.1007 -0.4054 -0.0402
 1910W        W18758   3.060   2.078  14.964 -0.1380  0.1762 -0.2490
 1911W        W18759   8.018   1.814   1.372 -0.1309 -0.1294 -0.5517
 1912W        W18760   1.409   0.757   5.768  0.2324  0.0671 -0.2306
 1913W        W18761   2.859   2.108  15.829  0.1253  0.4002  0.1618
 1914W        W18762  14.560   8.036  16.259  0.3161 -0.5414 -0.0801
 1915W        W18763   0.290  15.781   2.498 -0.2150  0.1525  0.0304
 1916W        W18764  10.459  16.178   5.131 -0.0862 -0.1986  0.2283
 1917W        W18765   8.380   9.727   3.822  0.1008  0.2421  0.2465
 1918W        W18766  10.747   3.360  12.848  0.1749 -0.4147  0.2565
 1919W        W18767   9.938   4.079  13.283 -0.2976  0.3147  0.4971
 1920W        W18768   9.280  11.175  12.954  0.2460 -0.0783  0.0983
 1921W        W18769  13.313   7.177  14.063 -0.1101 -0.1416  0.1246
 1922W        W18770  12.741   8.400   4.525  0.3685  0.0833 -0.1668
 1923W        W18771  15.672  15.054   4.927 -0.1262 -0.0219 -0.1927
 1924W        W18772   1.738  15.242   4.211  0.0947  0.0037 -0.0533
 1925W        W18773   0.659  14.961  16.628  0.0635 -0.0829 -0.0300
 1926W        W18774  15.283  15.310   0.474  0.0982  0.0591 -0.3002
 1927W        W18775   3.353   6.860  15.988 -0.0994 -0.1640 -0.1163
 1928W        W18776   0.309   3.893   3.557  0.2508 -0.1085 -0.1930
 1929W        W18777   7.283  13.303  10.324 -0.0773 -0.2016  0.1225
 1930W        W18778   6.639  11.572   2.087  0.3415  0.0665 -0.0591
 1931W        W18779  14.214   7.724  12.093  0.2539 -0.1234 -0.0708
 1932W        W18780  14.045  13.531  16.336 -0.0430  0.2533  0.1003
 1933W        W18781   2.152  14.530  12.241  0.1860 -0.1347  0.4579
 1934W        W18782  11.734   9.087  16.261 -0.2140  0.0362 -0.0311
 1935W        W18783   0.446   7.484   1.739 -0.0416  0.1045 -0.0413
 1936W        W18784   0.680   8.276  12.472 -0.0298 -0.0686  0.1365
 1937W        W18785  17.170   9.664  10.334  0.0171 -0.1163 -0.1259
 1938W        W18786  15.632  13.722   1.479 -0.1637 -0.1624  0.1951
 1939W        W18787   5.538   0.312  15.050 -0.0771 -0.0262 -0.2687
 1940W        W18788  14.074  16.106   6.163 -0.1161  0.2289  0.1659
 1941W        W18789   5.784   3.648   3.660  0.1809 -0.3669  0.1756
 1942W        W18790   5.122  16.746   2.341  0.1807  0.0250  0.1675
 1943W        W18791  13.385  14.344  14.002  0.0146 -0.2264  0.0599
 1944W        W18792   0.044   8.044   3.096  0.1948  0.0566 -0.4052
 1945W        W18793  12.375   7.005  14.568 -0.3127 -0.4434  0.2511
 1946W        W18794   0.073  15.001   1.235  0.2410  0.2594 -0.1254
 1947W        W18795   3.285   1.459   0.493 -0.2119  0.0960  0.0182
 1948W        W18796  13.753  11.005   1.808  0.0275  0.3140  0.0215
 1949W        W18797  12.064  16.343   2.722  0.5152  0.1719  0.0206
 1950W        W18798   6.683   3.475  12.174 -0.1391 -0.1585  0.1821
 1951W        W18799   8.905   2.293   3.996 -0.1273  0.1523  0.1949
 1952W        W18800  16.807   8.227   0.874  0.1116 -0.0201  0.1795
 1953W        W18801   4.158  16.872   4.392 -0.2465  0.0789  0.0429
 1954W        W18802   9.718   3.233  12.875  0.3153  0.2117 -0.0055
 1955W        W18803  13.448  10.020   4.249 -0.0295 -0.2637  0.2511
 1956W        W18804  16.912  10.660   4.929  0.0712 -0.0832  0.2441
 1957W        W18805   0.753   6.411   0.759  0.2159  0.1991 -0.1543
 1958W        W18806   8.408   1.616   4.730  0.2471 -0.0455 -0.1876
 1959W        W18807   9.474   9.957   0.548 -0.0638  0.2884 -0.0052
 1960W        W18808   4.467  13.227   2.923  0.2185 -0.1338 -0.0253
 1961W        W18809  17.400   3.145   3.006  0.1237 -0.0396  0.0604
 1962W        W18810   0.478   5.910   2.938  0.0360  0.1105 -0.0061
 1963W        W18811   7.356  11.445  14.228 -0.3632  0.0055 -0.1092
 1964W        W18812  10.048  13.827   1.822 -0.0921  0.1848 -0.1438
 1965W        W18813  11.009  12.553   4.416  0.6123 -0.2986  0.0799
 1966W        W18814   0.087  13.536  11.357  0.1462  0.0511 -0.1743
 1967W        W18815  16.507   2.125  14.671  0.4008  0.0369  0.0899
 1968W        W18816  14.457   4.743  10.569 -0.2563  0.0732  0.1536
 1969W        W18817   5.081  12.420  16.017 -0.0819  0.1547 -0.0151
 1970W        W18818   9.655   6.187  14.111  0.5091 -0.0580  0.1153
 1971W        W18819   8.151   8.518  14.444 -0.4687 -0.0147 -0.2402
 1972W        W18820   2.841   5.056   4.524 -0.0662 -0.2060  0.1106
 1973W        W18821   8.327   6.907   1.293 -0.1475 -0.1965 -0.1170
 1974W        W18822  15.852  10.897   4.304  0.0822 -0.0603  0.0136
 1975W        W18823   2.280   3.179  13.923  0.1240  0.2371  0.1569
 1976W        W18824  10.573   5.213   3.573 -0.1541 -0.1079 -0.1576
 1977W        W18825   3.054   0.959   2.703  0.0231  0.1475  0.1019
 1978W        W18826   6.264  14.280  16.164  0.2491 -0.1936  0.1674
 1979W        W18827  15.268   6.036   3.003  0.1459 -0.3329 -0.2797
 1980W        W18828  12.624   0.217   4.464 -0.1481 -0.0575  0.1367
 1981W        W18829  12.868   7.594   5.433  0.0427 -0.0412 -0.1102
 1982W        W18830   3.132  13.597   3.651  0.1056  0.1454 -0.1950
 1983W        W18831  17.568  16.586  12.345  0.4618 -0.0552 -0.3939
 1984W        W18832  16.280   3.522  13.604 -0.2856 -0.4417 -0.1435
 1985W        W18833   6.880   0.522   4.367 -0.0650  0.0340 -0.2124
 1986W        W18834   7.433   4.652  16.254 -0.0698 -0.1017 -0.2920
 1987W        W18835  14.617   4.714   4.787 -0.2348  0.2818  0.0107
 1988W        W18836  10.697  10.498  16.060 -0.1281 -0.0177  0.1507
 1989W        W18837   4.312   9.796  16.374  0.0671  0.2314 -0.1187
 1990W        W18838  14.739   1.989   2.730 -0.0297 -0.1661 -0.1011
 1991W        W18839  17.005   5.422  11.889 -0.3129  0.0615  0.1128
 1992W        W18840   6.773   5.026  12.851 -0.1583 -0.5336 -0.1231
 1993W        W18841  11.663   4.607  12.248  0.2638 -0.1170  0.1906
 1994W        W18842   2.293   4.688  11.558 -0.1411  0.1115  0.0712
 1995W        W18843  15.423   8.449  12.496 -0.1539  0.0790 -0.0147
 1996W        W18844  16.983  12.978  13.115  0.1184 -0.2945  0.0209
 1997W        W18845  17.369   2.761  13.993 -0.1747 -0.2859 -0.1064
 1998W        W18846   1.444   9.896   1.808  0.1688 -0.0710 -0.0625
 1999W        W18847  10.199   5.873  12.457  0.2103 -0.0048  0.1351
 2000W        W18848   5.389   1.900  14.283  0.2926 -0.0313  0.1549
 2001W        W18849  17.029  14.416  14.106 -0.1058  0.0684 -0.0899
 2002W        W18850   8.833   7.563   1.229  0.1687  0.1522  0.1348
 2003W        W18851  13.285   9.885  15.969  0.1662 -0.3646  0.1309
 2004W        W18852   2.177  14.915  16.410  0.0819  0.2125  0.2277
 2005W        W18853   4.790   1.019   0.038 -0.1381 -0.1692  0.0519
 2006W        W18854  14.910   0.527  13.412  0.3779  0.2615 -0.1231
 2007W        W18855   3.527   9.903   3.835 -0.1321  0.2328  0.0344
 2008W        W18856  14.161   3.145  13.991 -0.0457 -0.1749  0.0585
 2009W        W18857   4.601  15.783  14.378 -0.4355  0.1326  0.0742
 2010W        W18858   3.522   7.519   1.849  0.2039 -0.2309  0.1251
 2011W        W18859   7.366  12.204   0.173 -0.0907  0.0561 -0.3197
 2012W        W18860  16.298  13.546   3.769 -0.0009  0.0126 -0.1820
 2013W        W18861   5.237  16.809  13.861  0.2638  0.2926  0.1868
 2014W        W18862  11.693   2.499  14.647 -0.1124  0.0405 -0.1472
 2015W        W18863   3.496  17.359   4.758 -0.1790 -0.0488  0.0501
 2016W        W18864  17.368   4.376   3.080  0.3262 -0.2588 -0.2087
 2017W        W18865   2.361   3.882   3.281  0.2070  0.0255 -0.4319
 2018W        W18866  15.228  15.892   1.822 -0.1262 -0.1332  0.3411
 2019W        W18867   6.030   2.003  16.507 -0.1910 -0.0322 -0.0576
 2020W        W18868   8.567   5.089  10.961  0.0773  0.1360 -0.1179
 2021W        W18869   2.790  16.657   4.166  0.0548  0.0362  0.1330
 2022W        W18870  17.790  12.540   0.272 -0.0264  0.1239 -0.1536
 2023W        W18871  14.446  14.990   4.145 -0.3002  0.3013  0.3249
 2024W        W18872  16.946   8.550   3.486  0.0328 -0.1311 -0.1176
 2025W        W18873   2.926   8.103  16.126  0.2602  0.0516 -0.4910
 2026W        W18874  15.623  15.484   3.212 -0.0997 -0.0236 -0.1375
 2027W        W18875  11.716  16.443   5.016 -0.1201 -0.4606  0.0700
 2028W        W18876  14.175   3.293  11.506 -0.1340 -0.2292 -0.1787
 2029W        W18877   6.999  17.601  15.419  0.1139 -0.1889  0.1217
 2030W        W18878   5.378   5.548  16.627 -0.3921  0.1351 -0.2366
 2031W        W18879  12.775   3.972  16.020 -0.1220 -0.2443  0.1099
 2032W        W18880   9.952   1.351   0.561  0.1042 -0.0987  0.0977
 2033W        W18881  11.674   4.222  14.714 -0.0832 -0.1021 -0.1455
 2034W        W18882   1.080  14.058  11.995  0.2442 -0.2737  0.1134
 2035W        W18883  17.317  15.002   1.698 -0.1224 -0.0651 -0.2045
 2036W        W18884  17.449  17.822  13.555  0.0130  0.1666 -0.0032
 2037W        W18885   8.939   1.240   0.907  0.1427  0.1352  0.1382
 2038W        W18886   4.043   2.027   3.043  0.0040 -0.0139 -0.1968
 2039W        W18887  10.954   9.863  13.709 -0.1568  0.0934 -0.1948
 2040W        W18888  13.310   9.978  13.285 -0.0785  0.1322  0.0215
 2041W        W18889  10.804  13.129  14.550 -0.0734 -0.0360 -0.2954
 2042W        W18890   3.984   7.311   1.620  0.1620  0.0154  0.0095
 2043W        W18891  10.406  10.010  14.879 -0.0336 -0.0062  0.1370
 2044W        W18892  17.159   1.209   2.948  0.2686 -0.0012  0.3059
 2045W        W18893   5.261   1.659   3.526  0.0622  0.3476  0.2584
 2046W        W18894  16.000   4.808  13.694 -0.0208 -0.0199  0.0052
 2047W        W18895   1.723  10.869  11.041 -0.2424  0.2287  0.0334
 2048W        W18896   7.823  11.307   3.467  0.4821 -0.2661 -0.3242
 2049W        W18897  17.425  14.666   2.943 -0.1559  0.2487 -0.0242
 2050W        W18898   1.400  13.565   3.519 -0.1812 -0.1094 -0.1626
 2051W        W18899   6.152  11.771  11.555  0.0153  0.2966  0.1280
 2052W        W18900   4.227   5.442  14.632 -0.1744  0.0077 -0.0375
 2053W        W18901   4.741   6.422   3.175 -0.1617 -0.1300  0.1252
 2054W        W18902   6.754   9.122   1.472 -0.0666  0.0811 -0.0507
 2055W        W18903   7.577  17.268   4.980  0.2599  0.0902  0.0677
 2056W        W18904   1.018  16.862  11.019  0.1955 -0.1281  0.0606
 2057W        W18905   1.496  14.875  11.846  0.0996  0.0858  0.0518
 2058W        W18906  15.193  16.080   2.814 -0.0597  0.0412  0.0207
 2059W        W18907   7.453   1.676  11.701  0.0609  0.0420  0.1779
 2060W        W18908   8.841  16.297   5.824 -0.3677 -0.1659 -0.0632
 2061W        W18909  10.394   4.917   4.017 -0.2920  0.2471 -0.2484
 2062W        W18910   9.307   5.474  12.251  0.4285  0.0406 -0.1492
 2063W        W18911  10.931   1.623  15.446 -0.1858  0.1698 -0.0267
 2064W        W18912   0.395   3.440   5.482  0.2246 -0.0876  0.3685
 2065W        W18913   0.640   1.096  12.435 -0.0908  0.1552  0.1743
 2066W        W18914  11.565   2.411   1.885  0.1677  0.0448 -0.0433
 2067W        W18915  12.000   8.198   3.813  0.0043  0.0237  0.0428
 2068W        W18916  16.716  16.517  12.681 -0.0152  0.1985 -0.0696
 2069W        W18917   1.744  12.180  12.813 -0.1066 -0.4104  0.1134
 2070W        W18918   9.808   5.070   2.788 -0.2131 -0.1309 -0.3395
 2071W        W18919  16.021   6.592   2.939 -0.2491 -0.3118 -0.0756
 2072W        W18920  16.017   1.344  14.833 -0.2491 -0.0035 -0.2119
 2073W        W18921   0.573  14.398  12.783  0.0666 -0.2201  0.0370
 2074W        W18922   4.848  14.403  15.480  0.0228  0.1065 -0.4399
 2075W        W18923   3.772   5.500   5.367 -0.1572 -0.1650  0.0144
 2076W        W18924  10.568   9.170   2.669 -0.1876  0.0689 -0.2355
 2077W        W18925  16.815   7.629  12.801 -0.1398 -0.3072 -0.0288
 2078W        W18926  15.026   3.640   4.615  0.0504 -0.2041 -0.1305
 2079W        W18927  13.143  11.737   4.708 -0.3400  0.0868  0.1297
 2080W        W18928   3.402   9.229  14.043 -0.2834  0.4759 -0.3787
 2081W        W18929   6.335   3.466  15.159 -0.0841  0.1340  0.5174
 2082W        W18930  12.459  15.231  15.779  0.0502  0.3459  0.0581
 2083W        W18931   4.389  12.525   4.006  0.0102 -0.2238 -0.0946
 2084W        W18932  11.189   4.612   2.062 -0.0519  0.0110 -0.2624
 2085W        W18933   3.244  17.567   3.133  0.3938  0.0331  0.0138
 2086W        W18934  12.675  13.382  16.238 -0.0406  0.2621  0.2293
 2087W        W18935   9.156   9.046  15.464 -0.0224 -0.2021 -0.1825
 2088W        W18936  16.823  15.994  11.714  0.2556  0.0466 -0.0192
 2089W        W18937   1.089  16.463   3.657 -0.0494  0.0186 -0.0022
 2090W        W18938  15.768  16.659   2.075  0.0221 -0.1394 -0.2051
 2091W        W18939  10.972   7.548   3.996 -0.0999  0.0089  0.0755
 2092W        W18940  17.846  11.694  13.464 -0.1458  0.2294  0.0341
 2093W        W18941  16.953  12.086  11.834 -0.1388  0.1421  0.1142
 2094W        W18942   0.756   0.281  13.241 -0.0213  0.0121  0.1160
 2095W        W18943  15.451  12.304   0.611 -0.0257 -0.0018  0.1458
 2096W        W18944   0.817   1.966  13.438  0.0947  0.2393 -0.2561
 2097W        W18945   3.055   9.036   0.238 -0.2041 -0.0731 -0.0650
 2098W        W18946  12.505  15.540  12.421 -0.1358 -0.0054 -0.1069
 2099W        W18947  17.336   0.048  15.278 -0.3304  0.1233  0.0353
 2100W        W18948   8.335   5.312  15.180 -0.1388 -0.2956  0.2182
 2101W        W18949   3.034   3.804   0.498 -0.0606  0.2832  0.0792
 2102W        W18950   7.335   2.812  14.136 -0.2322  0.2653  0.0272
 2103W        W18951   2.422   5.155  16.540  0.2097  0.1570  0.0591
 2104W        W18952   7.472   2.136   3.899 -0.2337 -0.0638 -0.0856
 2105W        W18953   7.131   4.208   3.312  0.2166 -0.1267 -0.0205
 2106W        W18954   3.668  13.183   1.836  0.1899 -0.1800  0.3030
 2107W        W18955  11.035  14.800   1.560 -0.1433 -0.0162 -0.2641
 2108W        W18956  17.645  11.533  15.652  0.2157  0.0027 -0.1000
 2109W        W18957   9.588  12.852   0.277 -0.1171  0.3503 -0.0545
 2110W        W18958   9.111  11.042   1.058  0.2257 -0.0038  0.0102
 2111W        W18959   0.633   9.589  16.444  0.0123  0.4493  0.1217
 2112W        W18960   4.373   8.443  12.483 -0.1758  0.2271  0.2998
 2113W        W18961   2.428   1.326  13.062  0.1660 -0.0449  0.1029
 2114W        W18962   4.520   7.586  13.133 -0.0062  0.2679  0.0239
 2115W        W18963   3.846   8.548  15.021 -0.0918 -0.0717  0.2363
 2116W        W18964   2.235   8.088  16.614  0.1635 -0.2444  0.2939
 2117W        W18965   9.666   4.822   0.305 -0.2848  0.0023  0.3425
 2118W        W18966  10.075   8.832  15.449 -0.2023 -0.0861  0.2351
 2119W        W18967  15.526  13.784   2.416 -0.0085 -0.2160  0.2441
 2120W        W18968   5.891   1.475  13.512 -0.2777 -0.1237 -0.1560
 2121W        W18969  10.270   4.285   1.127 -0.0769 -0.0680  0.5288
 2122W        W18970   3.514   6.823   1.205  0.0322 -0.2700 -0.0348
 2123W        W18971  10.679  12.239   6.307 -0.1411 -0.2765  0.0795
 2124W        W18972  10.732   0.492  13.690 -0.0396  0.1098  0.0382
 2125W        W18973  17.340   7.644  12.956  0.4099  0.1631 -0.1425
 2126W        W18974  15.719   7.862   3.819  0.2940 -0.1211  0.0583
 2127W        W18975  16.763  16.749   4.560  0.1169 -0.0377 -0.0946
 2128W        W18976  11.709  17.051   3.552  0.0111  0.0101  0.1591
 2129W        W18977   1.384  10.789   1.241 -0.2429  0.0952 -0.1907
 2130W        W18978   3.992  13.213   2.737  0.0011  0.0919 -0.0941
 2131W        W18979   6.292  16.749   0.169 -0.0818 -0.2011  0.0603
 2132W        W18980  17.162  14.015  15.469  0.0966 -0.0768  0.1974
 2133W        W18981  14.859   8.856  13.864 -0.5619  0.1535  0.1169
 2134W        W18982  11.596  14.636   2.560  0.0285  0.3186  0.1774
 2135W        W18983   0.480  12.445   4.220  0.3083 -0.2422 -0.0968
 2136W        W18984   6.738   1.123  13.714  0.1032  0.1240  0.1256
 2137W        W18985  17.257   4.130   1.930  0.0920  0.1030  0.1821
 2138W        W18986   2.289  13.154  14.712 -0.1620  0.1194 -0.1425
 2139W        W18987  10.254  12.885   4.989 -0.1286 -0.0064  0.3576
 2140W        W18988   8.229   7.585  15.338  0.2365  0.0467 -0.1381
 2141W        W18989  14.229  13.304  15.666 -0.1974  0.1914 -0.1116
 2142W        W18990   0.968   5.336  16.291 -0.4518 -0.0386  0.0932
 2143W        W18991   4.355   2.799  15.491 -0.0438 -0.2944 -0.1179
 2144W        W18992  13.722   2.877   3.172 -0.1009  0.3185  0.0726
 2145W        W18993   0.120   3.253   4.689  0.0375  0.1243 -0.2248
 2146W        W18994   4.376  17.665  12.038 -0.2542  0.0429 -0.1619
 2147W        W18995   6.501  14.241  15.708 -0.0698  0.0509  0.1069
 2148W        W18996   3.769   4.324   3.257  0.0629  0.0633  0.0406
 2149W        W18997  10.890   4.898   2.691 -0.1246 -0.0111  0.0854
 2150W        W18998   4.577   9.530   1.536  0.0094  0.2145 -0.0637
 2151W        W18999  10.655  14.390   2.581 -0.2035 -0.1975 -0.2206
 2152W        W19000   3.128   0.268  13.814  0.0530  0.1243  0.0031
 2153W        W19001   2.322   1.417   4.111  0.0007  0.2217 -0.1701
 2154W        W19002  17.002  14.253  12.976 -0.0251 -0.0760  0.4939
 2155W        W19003   8.241  16.051  13.596 -0.0470 -0.3434 -0.0637
 2156W        W19004   3.835  13.376   0.112 -0.0828 -0.0225  0.2733
 2157W        W19005  11.407   1.533  16.067  0.0326  0.3165 -0.0833
 2158W        W19006   7.946   9.041  14.260  0.0213  0.0317  0.1085
 2159W        W19007   8.460  16.535   1.994  0.1708 -0.0321 -0.2078
 2160W        W19008  12.810   9.426  12.928 -0.0343  0.1907  0.2227
 2161W        W19009  11.407   4.733  16.282 -0.2013 -0.1185  0.0498
 2162W        W19010   2.870   6.949   4.399  0.0706 -0.0446  0.0514
 2163W        W19011  17.087  13.615  14.412 -0.3543  0.3343 -0.0449
 2164W        W19012   1.613   7.076  14.959  0.1229  0.2068 -0.0579
 2165W        W19013   5.523   6.609   4.856  0.0310 -0.1648 -0.1571
 2166W        W19014   2.716  10.453   2.838 -0.2239  0.1869  0.2384
 2167W        W19015   1.891   9.670  16.478 -0.1301 -0.3499  0.2665
 2168W        W19016   9.067   1.436  12.299 -0.0905  0.1044  0.3122
 2169W        W19017   1.938   5.309  14.994 -0.1714  0.1527 -0.1485
 2170W        W19018   3.233   4.096   2.656  0.0914  0.0911 -0.0651
 2171W        W19019   7.818   2.081   0.880 -0.1502 -0.2150  0.0567
 2172W        W19020   0.269  17.623   3.932 -0.1851  0.0879  0.0290
 2173W        W19021  17.065  10.894  15.026  0.3795 -0.0833  0.0219
 2174W        W19022   2.045  17.242   0.410  0.0478 -0.0290 -0.1020
 2175W        W19023   4.121   5.368   4.379  0.2654  0.0660  0.2763
 2176W        W19024  14.933   3.800  15.717 -0.0322  0.2231  0.2743
 2177W        W19025  12.611   6.906   2.523 -0.0457 -0.0006 -0.1579
 2178W        W19026   3.535  13.187   2.373  0.0216  0.2132 -0.2886
 2179W        W19027  10.283   0.388  15.877  0.2261  0.2452 -0.2228
 2180W        W19028  16.373  10.272  12.506  0.2003  0.1188 -0.1122
 2181W        W19029  17.617  14.174   4.411 -0.1118 -0.0129  0.2064
 2182W        W19030  14.546   1.931   0.887  0.0049  0.0788  0.2269
 2183W        W19031   2.364  16.428   4.742 -0.0234 -0.1625 -0.0779
 2184W        W19032  15.871   8.971  15.917 -0.0454  0.2458 -0.1260
 2185W        W19033   8.139   2.731   2.846  0.1297  0.1915 -0.1399
 2186W        W19034  12.894  16.632   2.613  0.1699  0.0954  0.3462
 2187W        W19035  11.466   3.461  11.824  0.2148 -0.0687  0.2159
 2188W        W19036   7.480   3.861   3.235 -0.0513  0.2481  0.2407
 2189W        W19037  14.406   9.350   1.260 -0.4724 -0.1573  0.2933
 2190W        W19038   4.597   5.619   3.382 -0.0411 -0.0216 -0.2982
 2191W        W19039   0.136  17.595  13.629 -0.0433  0.2818  0.0195
 2192W        W19040  14.869  13.530  13.596  0.0303  0.0129 -0.3114
 2193W        W19041  16.106  16.531  16.034 -0.1993  0.0624  0.1335
 2194W        W19042  12.992   6.537  15.172 -0.4850 -0.3368  0.0003
 2195W        W19043  15.140   2.657  10.774 -0.0753 -0.2754  0.1838
 2196W        W19044  15.685   5.217  16.482  0.1853  0.0247  0.0182
 2197W        W19045   2.911  17.724  13.544  0.1303  0.0467 -0.3070
 2198W        W19046   0.288   2.800   3.203  0.3250  0.0671  0.0613
 2199W        W19047  14.086  10.148  13.758  0.3237 -0.1389  0.2867
 2200W        W19048   2.808  17.208  12.702  0.1360 -0.1869 -0.2170
 2201W        W19049   8.061  16.706   4.366 -0.1635 -0.2179  0.1552
 2202W        W19050   3.048   4.209   4.291  0.3506  0.2172 -0.1845
 2203W        W19051  14.936   4.956  13.888  0.0099  0.2322  0.0454
 2204W        W19052  13.431   6.353  15.340 -0.0861  0.3368 -0.2116
 2205W        W19053   4.527  12.756  16.305  0.0351 -0.0167  0.0134
 2206W        W19054  15.844  17.186  15.378  0.1208 -0.0986  0.2938
 2207W        W19055   7.283   8.062  12.662 -0.2546  0.1563  0.1585
 2208W        W19056   4.502  16.928   5.785 -0.1331  0.1115  0.0206
 2209W        W19057  14.142  10.056   0.683 -0.3285  0.0447  0.1429
 2210W        W19058  13.557  11.101  12.649 -0.0994  0.1864 -0.1349
 2211W        W19059   2.813  12.812   1.428 -0.0710  0.1747  0.1167
 2212W        W19060  15.028  14.637   3.269  0.1185 -0.1640  0.2049
 2213W        W19061   7.682   1.424   5.437 -0.2145  0.0847  0.0560
 2214W        W19062  12.774   2.700  15.424  0.0683 -0.2186  0.0930
 2215W        W19063  10.168   6.964   4.167  0.0075 -0.0498 -0.0265
 2216W        W19064   4.678  15.936  12.891 -0.1668  0.2452 -0.1300
 2217W        W19065   9.937   1.271  15.125 -0.2379 -0.1903  0.1384
 2218W        W19066  11.659  17.312   0.980  0.2317 -0.3280  0.5421
 2219W        W19067   3.162  12.583   4.379  0.2178  0.2789 -0.0710
 2220W        W19068   0.360  13.885   4.501  0.0463  0.0639  0.0995
 2221W        W19069  10.999   5.045   2.238 -0.0256  0.2117  0.3167
 2222W        W19070   4.701  16.640   2.678 -0.0194  0.0760  0.1715
 2223W        W19071  16.798   6.784  12.287  0.0337 -0.2582  0.0019
 2224W        W19072  11.079   0.348  12.734 -0.0501  0.1156  0.1531
 2225W        W19073   3.829   7.631  12.119  0.0922 -0.0526 -0.0849
 2226W        W19074  13.544   7.913  13.779 -0.0999  0.3382  0.0614
 2227W        W19075  16.252   0.320  16.303 -0.1390  0.3018  0.0315
 2228W        W19076   9.699   9.303   3.752 -0.1083  0.0173  0.0196
 2229W        W19077   6.530  14.415  11.613  0.4401 -0.3212 -0.0343
 2230W        W19078   3.800  15.888  13.505 -0.0535  0.0192  0.3086
 2231W        W19079  17.115  16.000   0.527 -0.2214  0.1124  0.0784
 2232W        W19080   7.067  13.368  15.940  0.0509  0.1691 -0.2602
 2233W        W19081   7.944   2.279  12.232  0.3289  0.0833  0.0965
 2234W        W19082  12.610   7.864  12.482 -0.1315 -0.1387  0.4325
 2235W        W19083  12.528  15.899  13.315 -0.1854 -0.1822 -0.0341
 2236W        W19084  14.246   5.052  11.521  0.0192  0.0456  0.3021
 2237W        W19085  17.622   1.887   3.020 -0.0561 -0.1039  0.1048
 2238W        W19086  13.019   5.539   0.709 -0.1484 -0.0738  0.1584
 2239W        W19087  14.963   1.585   2.871  0.3309 -0.0593  0.4717
 2240W        W19088   7.856  15.054   0.228  0.2591  0.3273 -0.2391
 2241W        W19089   7.516  10.861   3.252 -0.2633 -0.4224 -0.1786
 2242W        W19090   4.899  13.362   4.409 -0.2371 -0.1278  0.4288
 2243W        W19091   4.344   6.972   5.114  0.2714 -0.1862  0.0712
 2244W        W19092  17.517  10.991   4.117 -0.1886  0.2463  0.0709
 2245W        W19093   6.898  11.755   0.731 -0.0367  0.0042 -0.0475
 2246W        W19094  16.546  10.768   1.603 -0.0379 -0.0481 -0.0745
 2247W        W19095   5.177  16.716  12.376 -0.3766 -0.1544 -0.3529
 2248W        W19096  11.206   3.369  12.572  0.2355 -0.1570 -0.1321
 2249W        W19097   0.565   0.777  13.363 -0.0996  0.0533  0.2409
 2250W        W19098  15.404  13.413   5.046  0.1213 -0.0788  0.1501
 2251W        W19099   0.676  11.999  15.014 -0.2699  0.4812 -0.1048
 2252W        W19100  11.582   7.199   2.244  0.1737 -0.2815 -0.4493
 2253W        W19101  12.547   3.867   5.433 -0.2715 -0.0229 -0.0822
 2254W        W19102  14.316   9.226  13.829 -0.0143 -0.2027  0.2919
 2255W        W19103  15.623  17.433   3.887  0.1306 -0.1091  0.1196
 2256W        W19104  15.174   0.916   2.165 -0.0847  0.0559  0.1363
 2257W        W19105   2.507   3.944   5.272 -0.0853  0.1077 -0.3218
 2258W        W19106  13.006  16.458  14.922  0.0881 -0.1253 -0.1803
 2259W        W19107   0.066   5.082  13.200  0.2457 -0.1730 -0.1369
 2260W        W19108  14.597   8.916   2.893 -0.1153 -0.0289  0.3137
 2261W        W19109  14.473   4.861  14.364  0.0738 -0.0168 -0.2130
 2262W        W19110   4.734   7.387  12.595 -0.1856 -0.2223  0.1761
 2263W        W19111   2.513   4.242   2.933  0.2592  0.1527 -0.1584
 2264W        W19112  14.019   8.049   1.207 -0.0779  0.1815 -0.0623
 2265W        W19113   2.414  12.748   0.548  0.0699  0.2688 -0.2308
 2266W        W19114  10.534  17.631   3.229 -0.0042 -0.0152 -0.0687
 2267W        W19115   7.432  15.632  14.515 -0.0233 -0.3238 -0.4339
 2268W        W19116  17.419   1.228   4.825 -0.1023 -0.1419  0.1559
 2269W        W19117   2.633  10.276  12.052 -0.4371  0.0711  0.0109
 2270W        W19118   9.882  17.392   4.430  0.0207  0.1469  0.0556
 2271W        W19119   5.050  12.043   1.864 -0.3902  0.1058  0.0639
 2272W        W19120  17.376  12.471   4.531  0.1900  0.1643 -0.0702
 2273W        W19121  12.482   9.831  14.234  0.2011  0.0707 -0.2883
 2274W        W19122   9.029  10.008   0.415  0.1390  0.0048 -0.2792
 2275W        W19123   8.024  10.276  12.863  0.1456 -0.1492  0.1574
 2276W        W19124  16.737  14.890  16.335 -0.0284 -0.0152  0.1584
 2277W        W19125   8.389  12.639  15.979 -0.0121 -0.0013  0.1063
 2278W        W19126  17.572   1.690  14.873 -0.3352  0.4137 -0.4155
 2279W        W19127   0.703   4.531  14.717  0.0149  0.4969  0.0013
 2280W        W19128   2.272   5.591  14.705  0.1113  0.0089  0.2085
 2281W        W19129  12.702  12.156  15.300  0.1279  0.2082  0.0800
 2282W        W19130   9.737   0.361  11.757 -0.1558 -0.2139  0.2007
 2283W        W19131  11.779  11.057   3.582 -0.0899 -0.0811 -0.3403
 2284W        W19132   4.803   5.838   3.807  0.0939  0.0416 -0.0492
 2285W        W19133  11.043  16.618  16.226 -0.1613 -0.1542  0.3567
 2286W        W19134   8.560   5.888  16.587  0.0399  0.1832  0.0279
 2287W        W19135  11.066  17.011  15.829 -0.1603  0.0434 -0.1269
 2288W        W19136   3.405   2.467   4.258  0.1537  0.0512 -0.0458
 2289W        W19137  14.319   3.271  12.590  0.2755 -0.2571  0.0372
 2290W        W19138  13.085   8.637  12.626  0.3013  0.0152  0.0579
 2291W        W19139   1.360   7.121  12.612 -0.0790  0.3293 -0.3711
 2292W        W19140   7.705   7.591  13.179 -0.2184 -0.0095 -0.1655
 2293W        W19141  12.089   9.026   5.125 -0.1164 -0.0312  0.1992
 2294W        W19142  10.376  15.017  14.935  0.1221  0.2849  0.1716
 2295W        W19143   1.084   1.748  14.839  0.1332  0.1047  0.1325
 2296W        W19144  10.266   1.760   2.739  0.1186 -0.1092  0.2862
 2297W        W19145  14.809  17.809  15.451  0.0388 -0.1691  0.2462
 2298W        W19146  16.755  15.264   1.819 -0.2666 -0.2583 -0.1334
 2299W        W19147  10.412   3.948   1.440  0.0805 -0.0327 -0.1031
 2300W        W19148  13.872   7.788   4.409 -0.1148  0.0961 -0.3222
 2301W        W19149  12.496   7.867   2.232  0.1576 -0.0869  0.1658
 2302W        W19150   1.843   6.194   0.169  0.0084 -0.0731 -0.2733
 2303W        W19151  11.259   7.088   2.899 -0.1096  0.1828 -0.0675
 2304W        W19152   9.869  15.953  10.389 -0.1947 -0.0590  0.1331
 2305W        W19153   5.702  17.044   3.248 -0.0929 -0.2830 -0.0724
 2306W        W19154   1.669   2.953  11.478 -0.1842  0.2603  0.2489
 2307W        W19155  12.665  11.830   3.326  0.1070 -0.2811 -0.0966
 2308W        W19156   6.578   6.125  12.510 -0.1353 -0.0936  0.0697
 2309W        W19157   9.488   4.582  15.971  0.0036 -0.1906 -0.1897
 2310W        W19158  11.090   3.361  12.099  0.1254  0.2276 -0.0179
 2311W        W19159  15.249  15.513   5.483 -0.1631 -0.0070  0.6090
 2312W        W19160  17.452   4.935  14.720  0.3474  0.2061 -0.1630
 2313W        W19161   2.955  17.440   4.770 -0.0411 -0.6288 -0.2608
 2314W        W19162   1.179  16.600   2.178 -0.0644 -0.1714 -0.1084
 2315W        W19163  12.536  10.615  13.833  0.2113 -0.1839 -0.0718
 2316W        W19164   2.669   1.623  12.602 -0.0450 -0.1740 -0.2710
 2317W        W19165   0.269   4.089  13.866  0.0331 -0.0925 -0.0168
 2318W        W19166  16.016   9.502   3.043  0.1210  0.0058 -0.2638
 2319W        W19167   9.713   2.825   5.628  0.4388 -0.2146 -0.0637
 2320W        W19168  10.260   7.802   5.177 -0.0060  0.0424 -0.0599
 2321W        W19169   2.736   1.167  11.637  0.0365  0.1221  0.2229
 2322W        W19170   3.007  13.970   4.649 -0.2841 -0.0999  0.2443
 2323W        W19171  14.683   2.269  14.170  0.4222 -0.0903  0.0873
 2324W        W19172   0.924   3.438   5.160 -0.1391 -0.0286 -0.0394
 2325W        W19173   4.434  10.871   0.924  0.0658  0.0699 -0.0506
 2326W        W19174  13.356  13.346  14.761 -0.2374 -0.5047  0.1444
 2327W        W19175   7.329  12.447   1.105  0.1285 -0.1734 -0.0722
 2328W        W19176  10.602  14.644  16.358 -0.0031  0.0247  0.0213
 2329W        W19177  10.609   7.880   3.872  0.0115 -0.0076 -0.1745
 2330W        W19178  14.522  12.221  16.195 -0.0901 -0.0023  0.1541
 2331W        W19179   1.018   5.934   3.182  0.1075 -0.0260 -0.0530
 2332W        W19180   0.680   6.685  15.302  0.0674  0.3833  0.3165
 2333W        W19181   5.646   0.182  14.571  0.3330  0.1314 -0.0663
 2334W        W19182  15.794  13.633  13.602 -0.1617  0.4132  0.0182
 2335W        W19183  14.766  15.942  15.658  0.1849  0.2920 -0.1307
 2336W        W19184  11.295  16.944  15.323  0.3028  0.1738 -0.1461
 2337W        W19185   1.361   7.318   2.612 -0.0279  0.0136  0.1680
 2338W        W19186   4.583   9.614  15.465 -0.0992  0.1430 -0.2500
 2339W        W19187  12.543   7.903   3.096  0.0525 -0.1887 -0.1333
 2340W        W19188   0.357  15.742   0.312 -0.3838 -0.1583 -0.1478
 2341W        W19189  11.441   6.698  14.486 -0.0933  0.1566  0.1790
 2342W        W19190  12.421   3.118   1.343  0.1301  0.2753 -0.2732
 2343W        W19191   6.247  11.160  14.437  0.0133 -0.3223 -0.1692
 2344W        W19192   2.747   5.888   3.927  0.0218  0.2126 -0.0508
 2345W        W19193  17.733  14.785   4.383 -0.2857 -0.0490 -0.0846
 2346W        W19194  10.225   5.557   4.567 -0.0854 -0.1274 -0.4215
 2347W        W19195   4.051   5.221  15.057 -0.2273  0.1471 -0.0702
 2348W        W19196  12.888   0.459  12.134 -0.2115 -0.1055  0.3409
 2349W        W19197  12.745   3.970   2.779 -0.2642 -0.2610  0.0181
 2350W        W19198   3.934  16.638  12.122 -0.1230  0.0665 -0.2731
 2351W        W19199   5.703  17.426   2.230  0.1328 -0.1766 -0.2203
 2352W        W19200  12.434   9.414   0.942  0.4501  0.0610  0.0275
 2353W        W19201   3.486   9.112   4.539  0.3346  0.2667  0.0813
 2354W        W19202   3.674   9.976  12.213  0.1433  0.0406  0.1765
 2355W        W19203   9.680  11.566  15.059  0.1624 -0.1152  0.4424
 2356W        W19204  13.897   2.381   0.473 -0.0521  0.0099  0.3539
 2357W        W19205   9.831   9.351  16.069  0.0138 -0.0975 -0.2443
 2358W        W19206  13.547   6.271  14.380 -0.0495  0.4593  0.0475
 2359W        W19207  16.091   4.677   3.401 -0.0053 -0.2187  0.0194
 2360W        W19208   0.577  17.137  12.821  0.0562 -0.3409 -0.0320
 2361W        W19209  10.426   6.640  14.091 -0.4248 -0.0153 -0.0234
 2362W        W19210  16.370  13.419   2.943  0.1700 -0.1247 -0.1010
 2363W        W19211  16.798   4.325  13.094 -0.1034  0.5081  0.5119
 2364W        W19212  10.019  12.873  12.320  0.2011  0.1311  0.1922
 2365W        W19213   6.554  14.122   1.340 -0.0475 -0.5599 -0.1394
 2366W        W19214   0.935   9.538  13.595  0.5010 -0.0028 -0.3546
 2367W        W19215   7.247  11.776  15.281 -0.0086 -0.0935 -0.1476
 2368W        W19216  15.962  13.721   4.644  0.2872 -0.1381  0.2543
 2369W        W19217  14.638   0.449   4.228  0.3000  0.0238  0.2221
 2370W        W19218  14.809   8.856   1.334  0.0322 -0.0952 -0.0350
 2371W        W19219   9.751   7.015   0.164 -0.0993 -0.0432 -0.0133
 2372W        W19220  15.609  10.009  14.735  0.0540 -0.1194  0.3028
 2373W        W19221  12.459   6.635   1.611  0.0314 -0.1418  0.0820
 2374W        W19222  16.031  14.397  10.673 -0.0611  0.0310  0.0102
 2375W        W19223   5.159   4.848  16.242  0.1196  0.1254  0.0568
 2376W        W19224  12.853  16.689  16.409 -0.1271  0.1644  0.2899
 2377W        W19225  11.519   7.619   5.244 -0.0011  0.2409  0.1473
 2378W        W19226   7.051   5.065   4.195  0.1523  0.1801 -0.3111
 2379W        W19227   5.986   4.382  12.098  0.2930  0.4339 -0.1418
 2380W        W19228  16.536   9.825   0.550 -0.3858  0.7809 -0.0887
 2381W        W19229  16.371  12.727   5.206 -0.0029  0.2047  0.0778
 2382W        W19230  13.572   7.843  15.317  0.1368 -0.0232  0.2217
 2383W        W19231   4.533  17.485   0.467 -0.0126  0.0311 -0.0493
 2384W        W19232   7.576  15.731  11.634 -0.0748  0.0533  0.1874
 2385W        W19233   7.872  16.589   1.341 -0.3876  0.0939  0.4488
 2386W        W19234   3.244   8.365   1.577 -0.1317  0.2519 -0.0356
 2387W        W19235   7.589  13.428   3.215 -0.1171 -0.0494  0.2895
 2388W        W19236   1.759   3.684   3.210  0.2080 -0.1234 -0.3062
 2389W        W19237   5.335  14.614  11.401  0.3534 -0.2399  0.0808
 2390W        W19238  16.484  10.360   0.301 -0.0652  0.3073  0.0705
 2391W        W19239  11.675   9.979  15.857  0.1568 -0.0319 -0.1049
 2392W        W19240  13.686  17.778  12.106  0.2093 -0.0184 -0.0312
 2393W        W19241  13.098   2.397   3.149  0.1011  0.0307 -0.1810
 2394W        W19242   0.719  11.647  14.106  0.3221 -0.0509 -0.0188
 2395W        W19243  13.151  15.169   2.101 -0.2194  0.0083  0.0428
 2396W        W19244  13.095  14.821  16.473 -0.0791 -0.2186  0.0833
 2397W        W19245   6.804   4.773  11.947 -0.1005  0.2615 -0.0394
 2398W        W19246   3.860  12.507  16.608  0.1311 -0.1757 -0.0219
 2399W        W19247   5.952  16.917   5.213  0.0000  0.0997 -0.0735
 2400W        W19248  15.234   8.033   2.273  0.5233  0.0356 -0.4712
 2401W        W19249   8.679  13.666  16.039  0.1488  0.0518  0.0361
 2402W        W19250  16.492   4.213   4.898  0.1435 -0.0701  0.0193
 2403W        W19251   5.850  14.939  16.568  0.0803  0.2762  0.0881
 2404W        W19252  17.552  13.846  11.506  0.1817 -0.0151 -0.0924
 2405W        W19253   9.458   3.486   5.043 -0.0161  0.1030  0.1320
 2406W        W19254   1.412   4.960   3.854 -0.3150 -0.0669  0.0298
 2407W        W19255   5.945   4.812  15.127  0.2828  0.1136 -0.0195
 2408W        W19256   7.151  12.839  12.587  0.0738  0.2480  0.1574
 2409W        W19257  11.967  15.079   2.585 -0.1340  0.0175  0.0454
 2410W        W19258   5.290   6.017   2.098  0.1409 -0.0225 -0.2954
 2411W        W19259  16.761  15.196   2.670  0.0601  0.0768  0.1538
 2412W        W19260   2.663  14.131  13.678 -0.2337 -0.1241  0.1395
 2413W        W19261   9.355   3.663  16.181  0.0133  0.0397  0.0060
 2414W        W19262  16.636   0.663  16.270  0.2010 -0.0976 -0.0141
 2415W        W19263  14.361   1.099   3.563 -0.1636  0.0009  0.0232
 2416W        W19264  13.807  11.539  11.812 -0.0683  0.0132 -0.4096
 2417W        W19265   4.263   8.365  13.643  0.2835  0.0716 -0.4540
 2418W        W19266   2.826  14.566   4.420 -0.0740 -0.1517 -0.2026
 2419W        W19267  12.564  14.068  13.607 -0.1307 -0.0124 -0.1246
 2420W        W19268  11.866   6.556  12.647 -0.1614 -0.3749  0.1331
 2421W        W19269   8.338   6.947  11.714 -0.1970  0.3898 -0.1988
 2422W        W19270   3.330   1.869   5.525  0.3482  0.0801  0.0651
 2423W        W19271   1.518   9.850  16.195  0.0361 -0.2430 -0.0499
 2424W        W19272   5.865  16.337  10.757 -0.0739 -0.3068 -0.0810
 2425W        W19273   1.910   6.994   4.588 -0.2453  0.0404 -0.0224
 2426W        W19274   5.675   1.270  15.930  0.2091 -0.2457  0.1940
 2427W        W19275   5.827  17.812  12.290  0.3839 -0.1046 -0.0005
 2428W        W19276   1.935  16.080  12.829 -0.2456  0.2688  0.0751
 2429W        W19277   2.955   7.252   4.014  0.2413 -0.0145 -0.0328
 2430W        W19278   5.745   3.503   5.580 -0.1210  0.2687  0.4159
 2431W        W19279  14.777  10.121   4.345  0.0370  0.2145 -0.4093
 2432W        W19280   2.318  16.416   0.559 -0.0546  0.0238 -0.0487
 2433W        W19281  17.317   4.001  15.928  0.0465 -0.3397 -0.0092
 2434W        W19282   3.333  11.302   5.501  0.1119  0.0981 -0.1924
 2435W        W19283  17.168  11.250  15.362 -0.1420  0.0251 -0.1464
 2436W        W19284   3.952  12.461  15.580 -0.0544 -0.4011  0.2513
 2437W        W19285  17.598   8.204  13.708  0.0124  0.0708 -0.0828
 2438W        W19286   2.997  11.866  14.934  0.0397 -0.0866 -0.0822
 2439W        W19287   6.928   9.148  11.760  0.1135  0.0215  0.1620
 2440W        W19288   2.242  13.322   0.010 -0.1768 -0.1116  0.1171
 2441W        W19289   8.365  15.351   2.050  0.1490  0.1641  0.0950
 2442W        W19290   7.035   1.808   0.082  0.0476  0.1325 -0.1795
 2443W        W19291   3.770   3.960  11.609 -0.3419  0.3074 -0.0740
 2444W        W19292   5.120   3.594  13.352  0.0397 -0.0771  0.2367
 2445W        W19293  16.572  15.061  13.636  0.1891  0.1302  0.0572
 2446W        W19294   9.348  16.856  11.893  0.1863  0.0760  0.1936
 2447W        W19295   8.721  11.735  14.173  0.1162  0.0483  0.0731
 2448W        W19296  17.113   8.441   1.216  0.0890 -0.1717 -0.1150
 2449W        W19297  13.230   8.654   1.213  0.0737 -0.2415  0.0854
 2450W        W19298   4.362   0.054  15.199  0.0848 -0.0010 -0.0526
 2451W        W19299  14.915  13.611   3.248  0.2763 -0.1196 -0.4432
 2452W        W19300   0.693  17.095  11.740  0.0084  0.3852  0.1161
 2453W        W19301  11.222  15.731  16.206  0.1666 -0.0372  0.0672
 2454W        W19302   7.342   5.482   5.564  0.3334 -0.0762  0.1873
 2455W        W19303   1.345  13.799   4.999 -0.1164  0.0954  0.1247
 2456W        W19304  12.329   1.561   1.229 -0.2376  0.1860  0.1856
 2457W        W19305   5.311   7.555  11.270 -0.0631  0.1228 -0.1886
 2458W        W19306  14.308   3.331  16.100 -0.4767 -0.3355 -0.2862
 2459W        W19307   1.848   1.208   2.586 -0.0866  0.1686 -0.0265
 2460W        W19308  14.289   7.155  12.105  0.3122 -0.0115 -0.1024
 2461W        W19309   3.669   3.502   4.353  0.0151  0.0210 -0.1227
 2462W        W19310   3.728  15.104  12.438 -0.0761  0.1096  0.0825
 2463W        W19311   4.819   8.766  10.432  0.0599 -0.2005  0.2248
 2464W        W19312  11.210  14.192  12.282 -0.0458  0.1672 -0.2717
 2465W        W19313  11.265   8.130  15.572 -0.1510  0.3020  0.4526
 2466W        W19314   1.247   2.898  12.026 -0.2797 -0.0522 -0.1254
 2467W        W19315  14.987   0.342  13.916  0.0300  0.3540 -0.0816
 2468W        W19316   1.749   1.219   1.298  0.0590 -0.0696 -0.0254
 2469W        W19317   1.037   3.254   0.351  0.5123 -0.2448  0.1972
 2470W        W19318  12.259   2.951   5.246  0.0833 -0.2072  0.0689
 2471W        W19319   8.102  12.090  15.384 -0.0372 -0.0771  0.1542
 2472W        W19320  13.186  16.298  15.359 -0.1442 -0.1966  0.0350
 2473W        W19321  13.608   5.272  11.665 -0.1845  0.1990 -0.0713
 2474W        W19322   7.947   5.214   5.676  0.0524  0.2969 -0.0564
 2475W        W19323  16.393   9.422   3.390  0.1008 -0.0398  0.0767
 2476W        W19324   5.061   1.107  14.848  0.1114  0.2066 -0.3019
 2477W        W19325  14.552   8.132  14.569  0.2038 -0.2949  0.2625
 2478W        W19326   0.628  11.350  12.736  0.0008 -0.2830 -0.2924
 2479W        W19327  15.999  14.641   1.398  0.2124  0.0464 -0.0672
 2480W        W19328  16.891  15.858  13.078  0.1154 -0.2256  0.2925
 2481W        W19329   5.489  15.113   1.318 -0.2621 -0.0519  0.2172
 2482W        W19330   0.873   5.085   2.269 -0.1162 -0.0472  0.1532
 2483W        W19331  11.730   6.544  13.939  0.1444 -0.0352 -0.0972
 2484W        W19332   7.035   3.713   3.139 -0.0370 -0.1840  0.0948
 2485W        W19333   2.781   0.652   3.421 -0.1768  0.0898 -0.0582
 2486W        W19334   9.113   0.893   4.051  0.1151  0.3940 -0.0175
 2487W        W19335  13.273   9.886  12.170 -0.2478  0.2712  0.0089
 2488W        W19336  12.627   7.053  15.656  0.0621 -0.0751  0.2246
 2489W        W19337  13.721  10.794   4.024  0.0147  0.1353 -0.1807
 2490W        W19338  10.037   8.328   0.742  0.2377  0.0557  0.0826
 2491W        W19339  11.679  15.935   1.495  0.2748  0.1273  0.0457
 2492W        W19340   7.866  12.163  16.407  0.3543  0.2302  0.1527
 2493W        W19341  16.387   2.242   3.999 -0.0027 -0.0574  0.0760
 2494W        W19342   8.418   0.412  14.676  0.0666 -0.0620  0.1764
 2495W        W19343   1.026  12.930   4.696 -0.0461  0.0075  0.1665
 2496W        W19344  16.691   8.034  15.276  0.1149  0.3034  0.0687
 2497W        W19345  10.542   3.428   2.270 -0.3423  0.1287 -0.0984
 2498W        W19346   3.702  13.340  11.622 -0.1502  0.1227  0.0977
 2499W        W19347   7.697   5.534  13.752 -0.1620 -0.2447  0.0352
 2500W        W19348   3.079   0.628   1.086  0.1017  0.1499 -0.1056
 2501W        W19349   7.572  13.792   1.837 -0.0263  0.1127  0.2365
 2502W        W19350  15.517  10.751   4.753 -0.0116  0.2036  0.0020
 2503W        W19351   9.715  11.011  13.911  0.2516 -0.0006 -0.1461
 2504W        W19352  11.072   8.980  11.883  0.0474  0.1871  0.1160
 2505W        W19353  12.262   0.200   0.590 -0.1712  0.2570  0.0804
 2506W        W19354  10.743   0.104  13.090 -0.2737 -0.1968 -0.2619
 2507W        W19355   0.640   3.862   3.125 -0.2366  0.2584  0.0669
 2508W        W19356   3.764   5.688   4.491  0.0396  0.0566  0.0612
 2509W        W19357  17.589   2.931   4.845 -0.0553 -0.0598  0.2765
 2510W        W19358   1.932   1.018  16.571  0.2429 -0.3400  0.3604
 2511W        W19359   8.559   0.947   0.959 -0.0249 -0.0023 -0.0111
 2512W        W19360   6.049  10.197   3.679  0.1041  0.3265 -0.0721
 2513W        W19361   8.406   0.103  15.610 -0.0544  0.0734  0.3693
 2514W        W19362   5.705  10.021   4.573  0.3352  0.0132 -0.1490
 2515W        W19363   5.045  10.820  12.760 -0.1241 -0.0015  0.1029
 2516W        W19364  16.120  17.550  11.567 -0.0960 -0.0867 -0.3492
 2517W        W19365   1.961  16.957   5.442 -0.1036  0.0363 -0.3484
 2518W        W19366   8.890   4.482   5.151  0.1979  0.1420  0.2535
 2519W        W19367   7.433   6.788  11.335 -0.1560  0.2156  0.1767
 2520W        W19368   5.765   7.649  11.702 -0.1667 -0.0889 -0.3950
 2521W        W19369   0.168   2.101  11.845  0.1092 -0.0664  0.0392
 2522W        W19370   4.929   7.893  10.910  0.0486  0.1469 -0.2440
 2523W        W19371   8.867   3.218  13.787 -0.0774  0.0154  0.3383
 2524W        W19372  12.510   3.927  14.626  0.2484  0.2482  0.1607
 2525W        W19373  13.171   2.757   2.301  0.0053 -0.0267 -0.1167
 2526W        W19374  10.494  15.590   4.574 -0.1926  0.1311  0.3973
 2527W        W19375  12.310   8.054  11.755  0.0513  0.1008 -0.0145
 2528W        W19376   9.498   3.114  14.830  0.0964 -0.0149  0.2810
 2529W        W19377   0.472  11.682   3.562  0.1583  0.1679 -0.2367
 2530W        W19378   0.283  16.791  15.066 -0.2997  0.1652  0.0304
 2531W        W19379   4.240   5.719  11.661 -0.0778  0.1991  0.0497
 2532W        W19380  15.426   3.994  16.099 -0.3044 -0.1972  0.1205
 2533W        W19381   6.662   4.849   2.893 -0.1654  0.3129  0.0511
 2534W        W19382  10.728   4.078  15.863 -0.0692 -0.1642  0.2972
 2535W        W19383   4.609   6.613   4.103  0.1377 -0.1665  0.0637
 2536W        W19384  12.727   0.638  14.181  0.0046 -0.2274  0.1806
 2537W        W19385   1.809   7.003   1.275 -0.1602 -0.0259 -0.0486
 2538W        W19386   1.549  17.559  13.224 -0.1133  0.0197 -0.5015
 2539W        W19387   0.842   7.543   0.903 -0.2573 -0.0781 -0.0947
 2540W        W19388   1.893  13.075   2.492  0.0109  0.0934  0.0634
 2541W        W19389   6.637   4.514   2.343 -0.2007  0.2572 -0.3685
 2542W        W19390   8.464   2.889   5.422 -0.0587  0.0364 -0.1513
 2543W        W19391  10.332   3.831  13.059 -0.2998  0.0991  0.2169
 2544W        W19392   0.291  14.684  16.223  0.0964  0.0108 -0.0490
 2545W        W19393  11.858   0.765  16.536 -0.0803 -0.0139  0.0542
 2546W        W19394  11.496  10.828  13.641  0.0658 -0.0449 -0.0064
 2547W        W19395  14.341   4.910  12.052 -0.1827 -0.1081  0.1098
 2548W        W19396  15.944   2.279   5.578  0.0830  0.1110  0.4540
 2549W        W19397   2.094   2.101   4.768  0.0026  0.0908 -0.2238
 2550W        W19398   9.602   7.785   1.586 -0.0439  0.2305 -0.1809
 2551W        W19399  12.349  10.720  15.206 -0.1596 -0.1950  0.1093
 2552W        W19400  11.770  13.925   3.643 -0.1517 -0.1126  0.3117
 2553W        W19401   4.495  16.066   4.547 -0.4058  0.0391  0.0382
 2554W        W19402  17.615  10.172   3.345 -0.5232 -0.1254  0.0549
 2555W        W19403  15.670   5.366   2.026  0.1212  0.1476  0.1466
 2556W        W19404   6.579   7.469  12.828 -0.2893  0.0168 -0.0328
 2557W        W19405   4.575  10.330  14.437  0.0988  0.0280  0.0584
 2558W        W19406   6.272   8.907   0.345  0.0888  0.1851  0.4051
 2559W        W19407   8.801  15.160  16.567 -0.1474  0.1824 -0.3319
 2560W        W19408  11.473   9.558  12.474 -0.1591  0.3094  0.3828
 2561W        W19409   6.243   6.716   1.476 -0.2364  0.0401 -0.2625
 2562W        W19410  12.482   2.365   1.658  0.2653  0.0007  0.3041
 2563W        W19411   2.776   4.012  13.678  0.1725  0.1825 -0.3539
 2564W        W19412  10.003  15.516  13.628 -0.1119 -0.0478 -0.1663
 2565W        W19413  16.872   0.213  15.547  0.1102  0.0328  0.1233
 2566W        W19414  13.682  15.212   4.485 -0.2239 -0.3829  0.0852
 2567W        W19415  12.962   4.587   0.874  0.1008 -0.2276  0.2101
 2568W        W19416   2.467   7.275   5.333  0.2149 -0.1662  0.1090
 2569W        W19417   1.513  14.661   0.661 -0.2093 -0.0222  0.0959
 2570W        W19418  12.484   8.851   2.234  0.1565 -0.0561  0.0121
 2571W        W19419  14.166  13.005   4.284  0.3401 -0.0462  0.2141
 2572W        W19420   5.174  12.511  15.439 -0.1484  0.0266  0.0100
 2573W        W19421  15.606   2.456  13.820 -0.0306 -0.1259 -0.1194
 2574W        W19422   8.495   0.559  15.242 -0.0150  0.1132  0.1222
 2575W        W19423  13.570   8.416  12.112  0.1361  0.0930  0.1114
 2576W        W19424   6.352   6.957   2.758 -0.2137 -0.0874 -0.2261
 2577W        W19425   0.375   4.395   1.061  0.2263 -0.2727 -0.1697
 2578W        W19426   6.075   3.426  14.391  0.0412  0.0498  0.1192
 2579W        W19427   1.206  15.270  11.574 -0.0317 -0.0263  0.0448
 2580W        W19428  16.436  17.083   1.049  0.0540  0.2852  0.0045
 2581W        W19429  12.465  11.782  14.443  0.1709  0.0500  0.0219
 2582W        W19430  12.806  16.011  15.418 -0.1897  0.1839 -0.2414
 2583W        W19431   5.808  16.219   2.307  0.4113 -0.0427  0.0236
 2584W        W19432  17.551  15.206  13.574  0.0832  0.0618 -0.2896
 2585W        W19433  15.548  11.430  14.679  0.1449 -0.0027  0.0626
 2586W        W19434  13.526   0.401   1.371  0.3273  0.0764 -0.0435
 2587W        W19435  14.807   9.806  12.566  0.1387  0.1314 -0.1433
 2588W        W19436   4.654   1.710  12.929  0.1170  0.0053 -0.1708
 2589W        W19437   0.681  12.374  13.597  0.0985 -0.0915  0.0903
 2590W        W19438  11.607  16.960   2.074 -0.1293  0.0289 -0.1630
 2591W        W19439  10.573   2.714  12.905  0.1875  0.0115 -0.1245
 2592W        W19440   1.978   9.107   5.202 -0.0229  0.0126  0.1031
 2593W        W19441   9.284   9.300  10.546 -0.1401  0.1071  0.2675
 2594W        W19442   9.896  14.622  12.093  0.2684 -0.0200 -0.2451
 2595W        W19443  11.645  15.378   3.229  0.1930  0.0946 -0.1092
 2596W        W19444   8.876   7.205   4.089 -0.0742  0.2360  0.1193
 2597W        W19445  14.565  11.176  16.374  0.2025 -0.1039  0.2924
 2598W        W19446   2.480   8.934  15.651  0.0068 -0.0841  0.0667
 2599W        W19447  13.980   4.072   4.450  0.2312  0.0222 -0.4049
 2600W        W19448  15.948  15.690   4.775  0.0918 -0.0252  0.1519
 2601W        W19449  15.547   2.019   4.096 -0.0156  0.2265  0.0368
 2602W        W19450  15.247  10.488  13.526 -0.0006  0.2450  0.1852
 2603W        W19451   7.500  15.775  16.309  0.0025  0.5260  0.1158
 2604W        W19452   7.295   4.304   4.488  0.2400  0.3490 -0.0343
 2605W        W19453  12.392   3.490  13.887 -0.0152 -0.0238  0.1803
 2606W        W19454   6.912   0.126   2.229 -0.1086  0.1725  0.0239
 2607W        W19455  13.388   0.511  11.977  0.1602  0.2427 -0.0762
 2608W        W19456  16.743  15.304  14.173 -0.1417 -0.2824  0.1358
 2609W        W19457   6.690   6.704   0.513  0.1431  0.0418  0.3364
 2610W        W19458  11.437   7.451   1.785 -0.0873  0.0547 -0.2197
 2611W        W19459   7.170  16.766  11.920 -0.3662 -0.1950 -0.3511
 2612W        W19460   9.824   9.832   2.499  0.0202  0.1753 -0.1836
 2613W        W19461   9.808  16.190  15.328 -0.0187 -0.1012 -0.0087
 2614W        W19462   3.624  16.476   3.532  0.1671 -0.0773 -0.0994
 2615W        W19463   1.035  13.289  13.415 -0.1293  0.2250  0.0760
 2616W        W19464   6.481  13.942  12.810  0.2506  0.0720  0.0590
 2617W        W19465  15.279  11.441   3.977 -0.2508  0.2834 -0.4213
 2618W        W19466   4.889  13.007   2.732  0.0590  0.2088  0.1464
 2619W        W19467   4.516  14.123  16.478 -0.0725 -0.1569 -0.0926
 2620W        W19468   2.914  13.805   0.248  0.1245  0.0013  0.2056
 2621W        W19469  10.129   7.211   2.135 -0.4170  0.0915 -0.0505
 2622W        W19470   4.786  14.943   0.773  0.0913  0.2907  0.3590
 2623W        W19471   8.396   6.762   6.370  0.0273  0.3471 -0.0925
 2624W        W19472  16.922  15.302  16.061 -0.0150 -0.2436 -0.0631
 2625W        W19473   2.103  17.486   0.930 -0.0114 -0.0515 -0.4658
 2626W        W19474  17.167  12.846  13.720 -0.4236  0.1326 -0.0783
 2627W        W19475  10.528   9.819  13.921 -0.0970 -0.0216  0.0439
 2628W        W19476  15.871  10.671  13.713  0.1032 -0.0843 -0.0822
 2629W        W19477  14.831   5.776   3.269  0.0302  0.0233 -0.2242
 2630W        W19478   9.045   3.415  13.341  0.0708 -0.1007 -0.0338
 2631W        W19479  15.120  17.212   4.708  0.3440  0.3055 -0.1129
 2632W        W19480   9.535   3.444  12.437 -0.0761  0.2497 -0.1823
 2633W        W19481  13.911  12.857  14.033  0.0277 -0.3478  0.1933
 2634W        W19482   3.144  15.012   0.718 -0.1211  0.1659 -0.0375
 2635W        W19483  10.926   9.089   2.186  0.1226 -0.2720  0.0700
 2636W        W19484   1.454   7.200  15.411  0.0472  0.2297  0.2635
 2637W        W19485   2.816   9.678   4.571  0.1285 -0.1130  0.0293
 2638W        W19486  14.137  15.820   0.882  0.0952  0.1522  0.1223
 2639W        W19487  14.923  13.158   3.027 -0.4033  0.0061 -0.2473
 2640W        W19488  11.608  16.760   4.039  0.2633  0.0467  0.1584
 2641W        W19489   0.018  15.388  15.016 -0.1104 -0.1278  0.2220
 2642W        W19490  16.743  17.446   1.652  0.1994 -0.3017  0.0358
 2643W        W19491  16.797   1.466   2.630 -0.0673  0.0645  0.2051
 2644W        W19492   1.692  15.055   3.670 -0.0483  0.1281  0.1665
 2645W        W19493  12.193  12.954   1.987 -0.2967  0.2030 -0.0530
 2646W        W19494  12.469  17.765   4.837 -0.0402  0.0548 -0.2406
 2647W        W19495  17.441  13.590  14.768  0.3467  0.0601  0.0230
 2648W        W19496  15.198  15.795  12.009 -0.1624  0.1281  0.0883
 2649W        W19497   7.526   2.436   0.194 -0.0363  0.1219 -0.2776
 2650W        W19498   3.048   6.684  11.221 -0.0676  0.2926 -0.3650
 2651W        W19499   8.224  12.792   1.136 -0.2876  0.2452 -0.2023
 2652W        W19500  11.099   2.562   6.313  0.1085  0.1881 -0.0565
 2653W        W19501  17.766   1.818   0.496  0.1496 -0.3741 -0.0520
 2654W        W19502  17.191  15.998   2.124  0.1470 -0.2727 -0.0962
 2655W        W19503  12.213  13.620  16.221  0.1709  0.1046 -0.2474
 2656W        W19504   1.019  15.158  15.789 -0.2091  0.0743 -0.1543
 2657W        W19505   2.061  17.181  10.672 -0.1010  0.1053 -0.0045
 2658W        W19506  16.020   7.758   0.339 -0.0467  0.0508 -0.0410
 2659W        W19507   2.081   2.006   0.846  0.4157  0.3311 -0.0375
 2660W        W19508   9.187   0.197   3.634 -0.2400 -0.0141 -0.1568
 2661W        W19509  16.219  12.927   3.383 -0.0353 -0.0472 -0.2845
 2662W        W19510   3.697   8.353  10.700  0.0446  0.3229  0.0474
 2663W        W19511  16.868   5.844   1.832  0.2002 -0.0120 -0.0676
 2664W        W19512   2.211   5.052   3.469  0.4307 -0.1277 -0.2139
 2665W        W19513  12.314   6.334  11.345 -0.0221  0.3323  0.0017
 2666W        W19514  14.936   0.528   5.100  0.1338 -0.0607 -0.2808
 2667W        W19515  16.890  15.099   0.242  0.0401 -0.1744  0.0142
 2668W        W19516   8.444   4.947   3.267  0.3352 -0.0262 -0.0489
 2669W        W19517   4.666  13.230  15.571 -0.1878 -0.1189  0.3027
 2670W        W19518   0.164   9.174  14.693  0.0406  0.1393 -0.3209
 2671W        W19519   8.889  10.872  12.812  0.1702 -0.0448  0.2798
 2672W        W19520  13.862   9.132  15.064  0.1109 -0.1509  0.0218
 2673W        W19521  10.190  12.725  15.631  0.2315 -0.0975 -0.0113
 2674W        W19522   2.769  12.702   4.699 -0.1969 -0.0336 -0.0935
 2675W        W19523  15.314   8.961   0.500 -0.1760 -0.1693  0.1865
 2676W        W19524  16.936  13.195  14.018  0.2221 -0.1112  0.1266
 2677W        W19525  16.706  15.132  15.403  0.0729 -0.1651 -0.1405
 2678W        W19526   8.805  17.689  15.845  0.1012 -0.3480 -0.2637
 2679W        W19527   9.921   8.911   3.509 -0.1236  0.1105 -0.2312
 2680W        W19528  10.394   5.002   6.204  0.2378  0.3266  0.4256
 2681W        W19529   4.559   3.008  16.507  0.1430  0.2107  0.0262
 2682W        W19530  17.307   2.636  15.015 -0.1061 -0.2821 -0.0308
 2683W        W19531  10.319  11.281   0.149 -0.0207 -0.0651  0.3048
 2684W        W19532   8.213   1.202   0.731  0.0538  0.1149  0.1329
 2685W        W19533  13.560   9.650   5.458 -0.1895  0.3970  0.1148
 2686W        W19534   3.320  14.431   4.682  0.1424 -0.2575  0.2175
 2687W        W19535   3.725  14.177   0.399  0.0897  0.0456 -0.0121
 2688W        W19536  16.597   8.921   0.826  0.2112 -0.0455  0.2504
 2689W        W19537  16.204  11.459  14.571 -0.1738  0.0154  0.1798
 2690W        W19538   7.956   4.168  15.520  0.2153 -0.0671  0.1921
 2691W        W19539   8.505  16.106  15.011  0.2506 -0.2027  0.2126
 2692W        W19540   9.644   3.775   1.388  0.4624 -0.1150 -0.1540
 2693W        W19541  15.418  13.438   4.111 -0.0382  0.2432 -0.2667
 2694W        W19542   6.368   5.591  11.744 -0.1402  0.0603  0.0653
 2695W        W19543   0.326  13.383  12.279 -0.0733  0.1129 -0.0853
 2696W        W19544  11.344  12.822  12.890  0.1660  0.0254 -0.1065
 2697W        W19545   8.719   0.315  14.277 -0.2505  0.1670 -0.1119
 2698W        W19546   3.673  11.327  13.373 -0.1019 -0.0841 -0.0798
 2699W        W19547  16.842   1.746  11.868 -0.1183 -0.2271 -0.2109
 2700W        W19548   5.464   6.379   4.412  0.0105  0.0850  0.1800
 2701W        W19549  15.912   8.691  11.504  0.2288  0.0949  0.0583
 2702W        W19550  11.105  13.544   4.904  0.0818  0.1480  0.1952
 2703W        W19551   3.202   3.880   0.954 -0.2285  0.1564  0.0350
 2704W        W19552  11.758   9.753   3.054 -0.0974 -0.0632 -0.2832
 2705W        W19553  10.215   7.500   1.318 -0.0885  0.2637  0.1125
 2706W        W19554  11.599  12.241   0.857  0.1518 -0.0417  0.1542
 2707W        W19555  10.268  13.914   0.814 -0.1494 -0.2006  0.1319
 2708W        W19556   8.851  11.667  11.645 -0.2430 -0.2404 -0.1204
 2709W        W19557   2.285   4.293   5.033 -0.1979  0.3434 -0.1692
 2710W        W19558  15.272  12.829   2.771  0.0138  0.0704  0.0952
 2711W        W19559   8.112   7.187  16.282 -0.2911 -0.3411 -0.0991
 2712W        W19560  12.598   4.021   5.907 -0.1495  0.0115  0.0918
 2713W        W19561   6.343  16.311   4.250 -0.1274 -0.1197 -0.0476
 2714W        W19562   3.135   5.334  11.482 -0.1422 -0.2956  0.0469
 2715W        W19563  16.908   4.838   4.769 -0.1377 -0.1210  0.3470
 2716W        W19564  15.147  17.408   3.006  0.0386 -0.0553  0.0113
 2717W        W19565   2.344  14.602   4.758 -0.0070  0.1496  0.1765
 2718W        W19566   1.578  10.833   4.852  0.2320  0.3031  0.4918
 2719W        W19567  10.796   8.357   2.730  0.0252  0.1488 -0.1638
 2720W        W19568   2.513   4.327   1.085  0.2425 -0.1753 -0.1129
 2721W        W19569   6.776   5.279   3.231  0.2671  0.0843 -0.1590
 2722W        W19570   6.324   0.547   2.648 -0.1490  0.1179 -0.4116
 2723W        W19571  12.969   7.803   0.614 -0.4098 -0.1852 -0.3400
 2724W        W19572   9.520  10.871   0.670 -0.3681 -0.0986  0.1039
 2725W        W19573  13.353  11.641   2.140  0.4944 -0.0840  0.0720
 2726W        W19574   3.096   3.818  14.660  0.0802 -0.0624  0.1701
 2727W        W19575   4.937  14.700   3.776 -0.1300  0.2241 -0.2018
 2728W        W19576   3.386   7.764  13.021  0.2495  0.0988 -0.1469
 2729W        W19577  17.182   6.481  15.782  0.1310  0.1107  0.2962
 2730W        W19578  11.305   1.022   0.739 -0.1920 -0.4304 -0.0207
 2731W        W19579   8.873   2.933  15.594 -0.1338  0.0864 -0.1372
 2732W        W19580   6.081  10.012  13.377  0.3778  0.3360  0.0037
 2733W        W19581  17.346   3.622  14.914 -0.2126 -0.0448 -0.0367
 2734W        W19582  16.411  16.256  13.099 -0.0421  0.1985  0.2038
 2735W        W19583   3.281   4.283  14.146 -0.3058 -0.1581 -0.0778
 2736W        W19584  16.360   8.906   3.646  0.1297 -0.1608  0.2843
 2737W        W19585   8.292   7.562  15.870  0.0059 -0.5301 -0.0942
 2738W        W19586  15.487   8.789  13.289 -0.1854 -0.1571  0.0308
 2739W        W19587   5.863  11.697  15.124  0.0204 -0.0524  0.2742
 2740W        W19588   9.262  17.466   5.207  0.0963  0.3475  0.3126
 2741W        W19589   6.153   7.827   0.839  0.2923 -0.3759 -0.1686
 2742W        W19590  11.438   6.808  12.573 -0.0701 -0.1140  0.1910
 2743W        W19591   0.016  14.250  12.562  0.2323 -0.0937 -0.2114
 2744W        W19592   7.555  14.306  13.203 -0.0554  0.1081  0.0642
 2745W        W19593  12.709  17.092   3.557 -0.5875  0.2253  0.0150
 2746W        W19594  10.616  11.838   5.458  0.1507  0.1365  0.1265
 2747W        W19595  17.273  17.393   4.229 -0.1564 -0.1868  0.2064
 2748W        W19596  11.474   8.650   3.205  0.1168  0.3818 -0.4019
 2749W        W19597  16.947   4.537  15.239 -0.1584 -0.1382  0.0479
 2750W        W19598   7.270   9.973  16.019 -0.0619 -0.3019  0.1486
 2751W        W19599   4.771  13.549  14.813  0.2924 -0.1815 -0.0682
 2752W        W19600  11.982  12.404   0.590  0.1973 -0.1812 -0.0772
 2753W        W19601  11.810   7.884  15.902  0.0193  0.2794 -0.2333
 2754W        W19602   6.651   2.649   4.700  0.2378 -0.1925  0.1824
 2755W        W19603  10.277  16.187   5.675 -0.3010  0.0417  0.0343
 2756W        W19604   8.444   9.457  16.532  0.0040 -0.2729 -0.1250
 2757W        W19605  10.040   4.553   2.760  0.0480 -0.0176  0.1357
 2758W        W19606  16.132  14.714  16.088 -0.1751 -0.0002 -0.0520
 2759W        W19607   7.830   9.885  13.868  0.4205  0.0438  0.1381
 2760W        W19608  11.878   8.323  16.239 -0.3493  0.2522 -0.1822
 2761W        W19609   7.128  13.778   2.254 -0.3228 -0.2780 -0.1943
 2762W        W19610   3.387  11.380   0.433 -0.0647 -0.0636 -0.1178
 2763W        W19611   4.889   4.458   1.980  0.2253 -0.0652 -0.1765
 2764W        W19612   1.943  13.788   0.075 -0.0379  0.1026 -0.1065
 2765W        W19613  12.897  11.022   1.573  0.3690  0.1060  0.0957
 2766W        W19614  17.189   7.199   4.791 -0.2795 -0.0447  0.1333
 2767W        W19615  10.281  12.193   5.461 -0.0574 -0.2418 -0.3547
 2768W        W19616   0.225  12.267  15.067  0.2994  0.1757  0.2334
 2769W        W19617   9.562  14.811  13.134 -0.1026 -0.1042  0.0067
 2770W        W19618  15.693   7.392   3.333 -0.4087  0.2148  0.0830
 2771W        W19619  16.904  14.871   3.994  0.2372 -0.0101 -0.1229
 2772W        W19620  13.461  13.931  13.321 -0.3639 -0.2781 -0.1641
 2773W        W19621   0.123   1.182  16.523  0.0064  0.1875  0.1085
 2774W        W19622  12.504   9.296   4.897  0.2890  0.2186  0.2407
 2775W        W19623   5.425   1.236  13.574 -0.2103  0.1340  0.0399
 2776W        W19624   3.208   7.754   4.259  0.0942 -0.1309 -0.0906
 2777W        W19625  14.307   6.363  14.158  0.1839 -0.1713  0.0516
 2778W        W19626  16.492   0.413   2.148 -0.1876  0.1282 -0.1796
 2779W        W19627  14.901  16.957  13.083 -0.1490 -0.0688  0.3525
 2780W        W19628   1.072   5.900  11.110 -0.0632  0.2031 -0.1468
 2781W        W19629   4.906  10.438   3.542  0.3336 -0.3946 -0.0570
 2782W        W19630   6.800   7.895  12.646  0.0891  0.0194 -0.1713
 2783W        W19631   1.461   5.383   2.479 -0.0739 -0.0408  0.1740
 2784W        W19632   0.650   1.541  14.720  0.1354 -0.1331  0.3604
 2785W        W19633   9.508  17.204   2.184 -0.1401  0.1672  0.0079
 2786W        W19634  10.390  10.887   0.956 -0.0193 -0.2287 -0.1391
 2787W        W19635   0.819   1.340   5.354  0.0769  0.0243 -0.1015
 2788W        W19636   3.184  14.259   0.394  0.0829 -0.0567 -0.2584
 2789W        W19637  13.195  17.073  12.929 -0.3701  0.0256  0.0299
 2790W        W19638  17.500  13.922   1.720 -0.0828 -0.1401  0.3484
 2791W        W19639   6.235   6.887  14.497  0.3591 -0.0371 -0.2110
 2792W        W19640   9.960   2.411   1.227  0.1852  0.0658 -0.1570
 2793W        W19641   6.619  13.928   4.332 -0.1700  0.1561  0.3912
 2794W        W19642  11.108  13.548  14.974 -0.1050  0.0397  0.1330
 2795W        W19643  10.616   2.917   0.808 -0.0634 -0.1745 -0.1277
 2796W        W19644   8.677  11.963  13.509 -0.3019  0.0714  0.2150
 2797W        W19645  13.124   3.313  12.867 -0.4994 -0.0087 -0.0236
 2798W        W19646  11.080  12.774   3.361 -0.0629 -0.0257  0.3205
 2799W        W19647  15.012   5.648   1.999 -0.1590 -0.0833 -0.3070
 2800W        W19648  11.472  14.950  13.520 -0.0547  0.0860 -0.0913
 2801W        W19649  12.165   8.681  14.131  0.1419 -0.2611 -0.2562
 2802W        W19650  16.192   5.652   1.955 -0.0689 -0.1325  0.1404
 2803W        W19651   9.567  15.540  16.457 -0.1248 -0.1615  0.4151
 2804W        W19652  14.430   8.704   4.406  0.2492 -0.3885  0.0333
 2805W        W19653   1.831  12.142  16.572  0.0600  0.2362  0.0611
 2806W        W19654  17.104   6.729   1.271 -0.1375  0.1613 -0.4509
 2807W        W19655   8.749  17.629  13.374  0.0077  0.1827  0.0621
 2808W        W19656   1.461  13.671  14.043 -0.4526  0.2401 -0.2532
 2809W        W19657  17.039   9.005  14.738 -0.0124  0.2569  0.0155
 2810W        W19658  13.184  13.559   5.905 -0.2264 -0.0921  0.0884
 2811W        W19659  11.566  11.732  15.514  0.1753  0.1073  0.1226
 2812W        W19660   6.983  15.993   5.311 -0.1176 -0.1881 -0.0091
 2813W        W19661  12.146   6.405  15.778 -0.0040 -0.4105  0.1801
 2814W        W19662   4.365   7.291   1.927  0.0783  0.1391  0.1643
 2815W        W19663  13.637   7.208  13.286 -0.1782  0.1650 -0.0538
 2816W        W19664  11.467  14.532   1.194 -0.0894 -0.1002  0.0558
 2817W        W19665  17.455   6.724   4.814  0.0018 -0.1793  0.4234
 2818W        W19666  15.726  14.956  15.314 -0.1296 -0.4331 -0.4330
 2819W        W19667  10.904   1.083  14.255 -0.2996  0.3018 -0.2104
 2820W        W19668   4.396  13.873  13.968 -0.0121  0.1817  0.1280
 2821W        W19669  11.134   0.708   6.166  0.2036  0.2241 -0.1104
 2822W        W19670   4.415   3.755   2.211  0.0482 -0.1199 -0.1739
 2823W        W19671  13.542   9.738   3.237  0.0049  0.2915 -0.2215
 2824W        W19672  15.599  17.340   2.676 -0.1213 -0.0367  0.0236
 2825W        W19673  15.369   3.316   4.037 -0.0351  0.0288 -0.0355
 2826W        W19674  15.769  13.883   4.231  0.2000 -0.0463 -0.0592
 2827W        W19675  12.893   4.042  14.968 -0.1119  0.2173  0.0533
 2828W        W19676  15.402   8.870  15.105  0.2232  0.0958 -0.1617
 2829W        W19677  16.218   6.425  16.100 -0.4079  0.0896  0.0595
 2830W        W19678  14.162   5.618  14.256 -0.0488  0.2425  0.0061
 2831W        W19679  10.128  10.068  15.296  0.1423  0.0125 -0.0069
 2832W        W19680   7.832   6.588  12.590 -0.0688 -0.0847  0.1225
 2833W        W19681   2.896  16.890  10.578  0.3648  0.1293  0.3302
 2834W        W19682  12.556  11.570   2.891 -0.0975 -0.1277  0.3723
 2835W        W19683  15.531   0.961   4.370  0.1372  0.0289 -0.0199
 2836W        W19684  17.211  15.653  12.597  0.1385  0.1900 -0.0949
 2837W        W19685   7.924   9.590  11.614  0.0540  0.3870 -0.0113
 2838W        W19686   1.667  12.249  15.077  0.0835 -0.0720 -0.0482
 2839W        W19687   8.415  17.758   0.839 -0.1121  0.4459 -0.1756
 2840W        W19688  11.953   2.738   2.758 -0.3666 -0.0767  0.0109
 2841W        W19689  16.099   3.138  14.974 -0.0581 -0.0811 -0.3041
 2842W        W19690  16.563   0.921   4.192 -0.1147  0.0752  0.2314
 2843W        W19691   5.371  13.808  15.437 -0.4030  0.1108 -0.0762
 2844W        W19692  17.113   4.435   0.047  0.1346  0.0510 -0.0438
 2845W        W19693  12.466  15.362   3.489 -0.2316 -0.0680 -0.2372
 2846W        W19694  10.299  17.766  15.953  0.0146  0.3161  0.3785
 2847W        W19695   3.856  14.732  13.337 -0.0223  0.4146  0.0187
 2848W        W19696  12.425   9.650  15.369 -0.0757 -0.2730  0.0903
 2849W        W19697   8.187  14.550   4.879  0.0408  0.2479 -0.1704
 2850W        W19698   7.829   8.171   0.278 -0.1337 -0.1152  0.0209
 2851W        W19699  15.997   7.659  16.112 -0.0713 -0.1258 -0.1453
 2852W        W19700  16.695  13.005  13.540  0.1934  0.1125  0.1963
 2853W        W19701   8.134   4.809   1.934 -0.0455 -0.1151  0.4344
 2854W        W19702   8.187  12.652   2.424  0.1743  0.0151  0.5505
 2855W        W19703   4.620   0.135   4.993 -0.1439  0.1472 -0.4544
 2856W        W19704  11.858  10.974   4.318  0.1281  0.0770  0.1436
 2857W        W19705  12.195   4.459   1.902 -0.0419  0.2116  0.3261
 2858W        W19706  12.913   2.681   3.573  0.1104 -0.0647  0.1068
 2859W        W19707  11.360   7.234  15.583 -0.0237 -0.0989  0.0473
 2860W        W19708   4.006   9.920   2.736 -0.2423 -0.3609 -0.1067
 2861W        W19709  16.821  17.361   2.160 -0.0985 -0.1143 -0.0576
 2862W        W19710   0.731   8.187  14.964 -0.1695 -0.3549 -0.1368
 2863W        W19711   0.783   7.232   2.054  0.1141  0.1272  0.1079
 2864W        W19712   7.804   8.213   2.940  0.0615 -0.1849 -0.1094
 2865W        W19713  11.400  16.407   1.647  0.1132  0.1470 -0.2112
 2866W        W19714   1.436   5.330   4.160 -0.4040  0.0160 -0.0596
 2867W        W19715  12.563   3.740   1.993  0.0609  0.1183  0.2757
 2868W        W19716   5.432  10.533  13.529  0.0929  0.0637 -0.1746
 2869W        W19717  15.315  14.157  13.137  0.1692 -0.1027 -0.1488
 2870W        W19718  17.432   5.092   2.934  0.1829  0.2291  0.0822
 2871W        W19719   6.533  14.090  13.302  0.2100 -0.2441 -0.1440
 2872W        W19720  12.640  10.981   0.195 -0.1482 -0.0432  0.1393
 2873W        W19721   4.660   5.190   0.513  0.0327  0.1019  0.0893
 2874W        W19722   8.590   1.470   4.256  0.1225  0.0945 -0.1604
 2875W        W19723  16.916   5.033  12.437 -0.1932 -0.2305  0.0008
 2876W        W19724  12.561   4.562  12.564  0.1196 -0.0707  0.1016
 2877W        W19725   6.452   3.898  12.081 -0.1919 -0.3876  0.0268
 2878W        W19726   9.765   7.538   2.980  0.1531 -0.1709 -0.0969
 2879W        W19727  12.396   0.568  12.066 -0.0767 -0.3999  0.0424
 2880W        W19728   2.573   8.219   0.768  0.4176 -0.0934 -0.1412
 2881W        W19729   4.911   1.396  14.204  0.2298  0.1200 -0.0556
 2882W        W19730   5.353  15.029  15.691  0.2049  0.0023 -0.1197
 2883W        W19731   7.671  14.403  14.035 -0.1493 -0.1690  0.0463
 2884W        W19732   8.270   8.184   0.072  0.0729  0.2026 -0.0646
 2885W        W19733   0.120  11.785   2.754  0.2217  0.0234 -0.0480
 2886W        W19734   7.065  15.532  12.687 -0.2455  0.0321 -0.0778
 2887W        W19735  13.326   7.404  13.659 -0.1602 -0.1113  0.3428
 2888W        W19736   7.775  12.660   3.629  0.0159  0.1018  0.1096
 2889W        W19737   8.038   5.911   4.506 -0.0573 -0.1684  0.0313
 2890W        W19738   5.430   2.559   5.343 -0.2074 -0.1041 -0.1857
 2891W        W19739   5.143   3.685  12.468 -0.0616 -0.0854 -0.1402
 2892W        W19740   8.104   2.284  11.295  0.0806 -0.0616  0.2916
 2893W        W19741   1.414   3.149   4.911  0.1769 -0.1590  0.3642
 2894W        W19742   6.918   3.448   4.100 -0.0332  0.1380 -0.0862
 2895W        W19743   3.889   2.018   4.925  0.0765 -0.1268 -0.2512
 2896W        W19744  12.646  17.410  11.338 -0.1171 -0.1488 -0.0272
 2897W        W19745   4.770   9.242  13.771 -0.1740  0.2263 -0.1461
 2898W        W19746  15.529   3.654   0.820 -0.1624 -0.0429  0.0035
 2899W        W19747   4.872   0.502   0.074  0.2092 -0.0662  0.0064
 2900W        W19748   1.841  14.441  15.058  0.1388 -0.1715 -0.2113
 2901W        W19749   3.166   1.767  14.514  0.3396  0.4180 -0.0221
 2902W        W19750  13.312   7.642   4.672  0.3003 -0.3027 -0.0974
 2903W        W19751  11.031   8.294  12.697  0.1542 -0.1805 -0.2406
 2904W        W19752   8.188   1.743  15.228  0.0875 -0.0037 -0.2700
 2905W        W19753   1.480   8.300  13.308  0.1139 -0.0609  0.1104
 2906W        W19754  13.461   0.408  13.666 -0.0772 -0.1533 -0.0442
 2907W        W19755   2.490  12.858  16.626 -0.4094 -0.1745  0.2832
 2908W        W19756  15.867   3.750  12.700 -0.0963  0.2315  0.1145
 2909W        W19757  14.864  10.540  12.924 -0.1470  0.1499 -0.0974
 2910W        W19758   6.188   4.854  11.280 -0.0968  0.0982 -0.1180
 2911W        W19759   1.295   9.514  12.810 -0.1028  0.2011 -0.0739
 2912W        W19760  13.569  16.694  12.870  0.1970 -0.1828 -0.0568
 2913W        W19761  17.200  12.191  11.409 -0.0093  0.1456 -0.3196
 2914W        W19762   9.836  13.670   0.596 -0.4424  0.1354  0.4240
 2915W        W19763   4.436  17.541  14.194  0.0336 -0.0033  0.0303
 2916W        W19764   1.950   8.626  12.066 -0.0895 -0.1572 -0.1213
 2917W        W19765  12.772   6.926   1.200 -0.1630  0.4050  0.2941
 2918W        W19766  15.699   8.932   0.765 -0.4163  0.2863  0.4248
 2919W        W19767   9.066   3.242   2.701  0.1379  0.1260  0.2592
 2920W        W19768   8.297   0.012   2.086 -0.0383  0.1649  0.0500
 2921W        W19769   5.879  10.738   2.757 -0.2522 -0.0541 -0.2942
 2922W        W19770  16.378   0.803   2.409 -0.3988 -0.1115 -0.0042
 2923W        W19771   8.434   8.634   1.034  0.2008 -0.2612 -0.0997
 2924W        W19772  10.498   9.162   0.135 -0.1769 -0.1030  0.0407
 2925W        W19773  16.271   4.144  16.232  0.1779 -0.2497 -0.3079
 2926W        W19774   9.019   1.667  14.261  0.0802 -0.1897 -0.0599
 2927W        W19775   7.063  11.066   1.473  0.1272  0.1945  0.1603
 2928W        W19776   6.725   2.740  15.778 -0.0254  0.0457 -0.0598
 2929W        W19777  16.382   5.187   3.939 -0.0092 -0.3131 -0.1261
 2930W        W19778  13.772   4.523   4.710  0.0432 -0.1098  0.0946
 2931W        W19779   7.561  13.621  14.667 -0.2266  0.1157  0.1984
 2932W        W19780   7.174  14.742  16.390  0.1477  0.3569  0.1008
 2933W        W19781  12.552  17.691   0.178  0.1772  0.0196 -0.3032
 2934W        W19782   8.912  10.183   3.232  0.0968 -0.0758  0.1277
 2935W        W19783  11.241  15.853   0.082 -0.1457  0.1738 -0.3921
 2936W        W19784  15.561   0.171  11.987  0.1298 -0.0570 -0.1030
 2937W        W19785   1.606  15.209  12.317 -0.3121 -0.4427 -0.0450
 2938W        W19786  14.183  11.271  15.248  0.2349 -0.0285 -0.1457
 2939W        W19787  12.606  10.450  14.821  0.2232  0.1496 -0.1629
 2940W        W19788   3.419   9.050  11.065 -0.0843  0.0143  0.4082
 2941W        W19789  15.281   8.493  14.731  0.1828  0.2018 -0.3369
 2942W        W19790   4.959  10.198  12.174 -0.1924 -0.3897 -0.0185
 2943W        W19791   2.764   6.425   0.517 -0.0447 -0.0223  0.1718
 2944W        W19792   6.633  11.974   4.843  0.0990 -0.0761 -0.4799
 2945W        W19793  14.116  11.636   0.680  0.1881  0.1291  0.1545
 2946W        W19794  17.108   6.208  15.266 -0.1987 -0.0181 -0.1694
 2947W        W19795  16.180   3.713  13.099  0.1768 -0.0010  0.0077
 2948W        W19796  17.159   2.122   2.092 -0.6237 -0.3727  0.1725
 2949W        W19797   0.937   5.593   2.030  0.0196  0.1256 -0.0066
 2950W        W19798  16.257   9.452  12.455  0.0911 -0.1189 -0.0972
 2951W        W19799   2.793  12.908  13.967  0.0091  0.2233 -0.2795
 2952W        W19800   5.376   4.451   0.771 -0.0259  0.0753  0.4943
 2953W        W19801  10.198  17.772  16.497  0.1408 -0.1572 -0.1130
 2954W        W19802   7.353   7.070  15.267 -0.0882 -0.2880 -0.3758
 2955W        W19803   5.599  17.019   1.182  0.0706 -0.2075 -0.0087
 2956W        W19804  11.692   3.856  15.154 -0.1040  0.0605  0.1385
 2957W        W19805   4.555  12.068   4.248  0.0012  0.2380  0.5450
 2958W        W19806  15.686  17.828  12.432  0.0792 -0.0964  0.0041
 2959W        W19807   6.812  13.135   0.410  0.2365  0.1187 -0.1881
 2960W        W19808   4.284   3.460   0.164 -0.1905 -0.0869 -0.2417
 2961W        W19809   1.737   0.629  12.761  0.1858 -0.2473  0.4419
 2962W        W19810   0.989   7.840  14.600  0.1845  0.1000  0.1166
 2963W        W19811   2.181  12.181   5.504  0.2994  0.0678  0.1826
 2964W        W19812  12.970   4.261   3.872 -0.1778  0.3650  0.0692
 2965W        W19813   0.933   5.821  14.890  0.2353 -0.1412  0.0843
 2966W        W19814   2.285  12.519   3.923  0.4128  0.2962 -0.1428
 2967W        W19815   1.414   7.100   4.572  0.0264  0.1679 -0.5080
 2968W        W19816   7.505   4.788  12.549  0.0794  0.1557 -0.1523
 2969W        W19817   0.592  11.707   2.518 -0.0246 -0.2194  0.0541
 2970W        W19818  15.516   1.953  14.834  0.1647 -0.0734  0.4368
 2971W        W19819  10.836  11.882  11.792 -0.2303  0.0208 -0.0769
 2972W        W19820  14.673   0.677  14.288 -0.4824  0.2367 -0.3885
 2973W        W19821   7.882   8.724   2.785 -0.1313  0.2264 -0.0581
 2974W        W19822   5.247  11.290   4.012 -0.0068  0.2037  0.1945
 2975W        W19823   9.793   5.179  12.040  0.1427  0.3152  0.1721
 2976W        W19824  14.501  11.651   5.057  0.0410  0.2541 -0.0714
 2977W        W19825   2.357  14.103   2.677  0.2451  0.1802 -0.1872
 2978W        W19826  17.814   4.176   3.234 -0.1108 -0.1548  0.1127
 2979W        W19827   6.023  15.302   0.665 -0.0131 -0.0858  0.1548
 2980W        W19828  12.161   3.100   0.174 -0.1153  0.0907  0.2236
 2981W        W19829   1.948   9.315   3.611  0.2856 -0.2763  0.3115
 2982W        W19830  16.678   6.000  12.368 -0.0727 -0.1427 -0.2585
 2983W        W19831  10.280  16.435   4.125  0.1185  0.0390  0.1840
 2984W        W19832   2.122  14.068  10.661 -0.1770  0.1088 -0.1306
 2985W        W19833   3.090  15.007  16.199 -0.0144  0.0368  0.1150
 2986W        W19834   5.382  16.541   3.845  0.1920  0.0136 -0.0342
 2987W        W19835   7.259   8.803   1.959 -0.1099  0.0934 -0.2884
 2988W        W19836   4.553   3.509  11.640  0.0543 -0.1995  0.0266
 2989W        W19837  11.665   2.079  13.021  0.2784 -0.0798 -0.1166
 2990W        W19838  17.683   1.821  10.593  0.0041 -0.0410  0.4335
 2991W        W19839   1.344   1.587   2.728 -0.0282  0.0082 -0.1824
 2992W        W19840   6.998  16.796   2.875 -0.1323 -0.0918 -0.0767
 2993W        W19841  11.004   7.040  12.620 -0.0369  0.3148 -0.3405
 2994W        W19842   9.799   0.878  15.428 -0.3436  0.2356 -0.1241
 2995W        W19843   2.040   8.489   2.048  0.1530  0.0601  0.2319
 2996W        W19844   8.205   9.001  14.675  0.2266 -0.1651  0.0570
 2997W        W19845   5.261  10.437  12.481  0.3393  0.4300 -0.0728
 2998W        W19846   0.663   3.493  15.272 -0.1224 -0.0875  0.0470
 2999W        W19847   3.895   9.057   5.199  0.0035  0.0997 -0.3419
 3000W        W19848  17.776   8.018  10.739  0.3391 -0.1301  0.0115
 3001W        W19849   9.842  14.551   3.370 -0.0411 -0.1815 -0.1855
 3002W        W19850  14.400  16.237   1.554  0.0487 -0.1359  0.3353
 3003W        W19851   8.438  11.007  14.986 -0.2899  0.1072  0.0768
 3004W        W19852   3.002   3.205   3.279  0.1731  0.4739 -0.2341
 3005W        W19853  16.770  16.556   0.139 -0.1644  0.0425 -0.1700
 3006W        W19854   4.594   0.035   2.101 -0.1815  0.0735  0.1523
 3007W        W19855   0.235  16.177   4.760  0.0951  0.1601  0.0812
 3008W        W19856  15.401  10.178  11.518  0.1324 -0.0525  0.0861
 3009W        W19857  10.958  12.461  11.962 -0.0282 -0.0772 -0.3008
 3010W        W19858   9.050   0.846  13.363 -0.1914  0.1817 -0.0005
 3011W        W19859  15.606  10.383  12.514 -0.1221 -0.3615 -0.3807
 3012W        W19860   6.445   1.202  14.684  0.3836  0.0879 -0.0702
 3013W        W19861  16.990  17.018  12.201 -0.0721 -0.0811 -0.0863
 3014W        W19862   8.038   5.999  12.066  0.3598 -0.0745 -0.1071
 3015W        W19863   0.463  14.877   0.913  0.2091  0.0947 -0.0521
 3016W        W19864  10.141  14.281   5.232  0.0853 -0.2546  0.2536
 3017W        W19865   0.108   0.119   0.324 -0.1120 -0.2084  0.2480
 3018W        W19866   8.004   2.648   0.014  0.2707  0.4556 -0.0578
 3019W        W19867  17.837  13.641   1.974  0.0212  0.2400 -0.3589
 3020W        W19868  12.014  14.212  12.313  0.2025 -0.1711 -0.2637
 3021W        W19869   1.163  17.667   3.753  0.0017  0.0670 -0.2083
 3022W        W19870   2.407   9.813  11.664 -0.1592  0.5218  0.1862
 3023W        W19871   0.493   6.839   0.518 -0.4683  0.1107 -0.1990
 3024W        W19872   8.106   7.771   2.921 -0.0600 -0.0255  0.1792
 3025W        W19873   6.011   8.738  14.052 -0.2323 -0.0072  0.0052
 3026W        W19874   2.176   2.951   3.731  0.0457  0.0138  0.3112
 3027W        W19875  10.297   1.502  14.812 -0.0248 -0.0595 -0.1126
 3028W        W19876  10.984  12.846  12.562 -0.0497  0.0528  0.0366
 3029W        W19877   4.850  13.691   1.256 -0.0072  0.0440  0.1165
 3030W        W19878   8.776  12.595  15.165  0.1020 -0.0151 -0.2421
 3031W        W19879  14.388   6.766   3.088  0.0291 -0.1582 -0.0813
 3032W        W19880   0.205   8.388  11.782 -0.0639 -0.0730 -0.1230
 3033W        W19881   3.422   0.313  12.618 -0.0722 -0.0387 -0.2968
 3034W        W19882   4.916  15.418  12.576 -0.1679 -0.1332 -0.0445
 3035W        W19883  16.017   5.997  13.027  0.0047 -0.1805  0.0529
 3036W        W19884   9.824   9.015   0.274 -0.1805 -0.0711  0.0880
 3037W        W19885  13.124  16.548   0.615 -0.0325 -0.1411  0.1382
 3038W        W19886  13.553   9.488  15.849  0.5092  0.0572  0.2138
 3039W        W19887   1.409   2.912   1.737 -0.1463  0.0707  0.4216
 3040W        W19888   4.077  17.705   2.030 -0.0494  0.2967 -0.0223
 3041W        W19889   4.364   3.666   4.877 -0.3873  0.0023  0.0027
 3042W        W19890   8.330  17.615  15.144  0.2847 -0.0771 -0.1107
 3043W        W19891   4.563  10.957  12.627 -0.0536 -0.1092  0.0121
 3044W        W19892  12.136  11.818   4.640 -0.0325  0.0342 -0.3592
 3045W        W19893   4.142   2.869   2.432 -0.2618  0.0377  0.0839
 3046W        W19894  15.160   3.939  13.982  0.3071  0.1037  0.1592
 3047W        W19895  10.702  15.148   3.696 -0.0914 -0.0064  0.0191
 3048W        W19896   4.238   4.879   4.527 -0.0905 -0.0099 -0.0728
 3049W        W19897   3.874  15.462  16.595 -0.1076 -0.0494 -0.1436
 3050W        W19898   2.499   5.925   0.386  0.3291  0.2486  0.3966
 3051W        W19899  12.753  13.919   5.280 -0.0166 -0.2671 -0.1021
 3052W        W19900   1.653  11.743  15.101 -0.1556  0.1339 -0.0942
 3053W        W19901  17.006   7.967  16.115 -0.0693 -0.2841  0.0325
 3054W        W19902  10.015   5.474   1.575 -0.0476  0.1148  0.1980
 3055W        W19903   6.922  11.444  13.807 -0.0317  0.2975  0.1564
 3056W        W19904  14.495  10.189  12.844  0.0314  0.1463 -0.2192
 3057W        W19905   2.042   3.492  13.589 -0.4297  0.2573  0.1577
 3058W        W19906   8.461  13.614   2.170  0.1893 -0.3749  0.1892
 3059W        W19907  11.485  10.954  13.166 -0.0655 -0.0319 -0.1527
 3060W        W19908  15.456   7.760   4.219 -0.1562  0.2274  0.0765
 3061W        W19909   4.485   1.478  13.300 -0.1160  0.0639  0.0960
 3062W        W19910   5.783  12.379  12.992  0.0329 -0.2287  0.0395
 3063W        W19911   6.386   0.340  10.685  0.1179 -0.3608 -0.1274
 3064W        W19912   4.406  11.257  12.241  0.0580 -0.0457 -0.2462
 3065W        W19913   3.786   4.849   3.320 -0.0955 -0.2122  0.2792
 3066W        W19914   3.134   6.792   3.876  0.2321  0.0462  0.0211
 3067W        W19915   0.815  13.956   4.755 -0.0227  0.1062  0.0132
 3068W        W19916  13.637  12.196   1.453 -0.2322  0.0999  0.1970
 3069W        W19917   8.278   3.797   1.675 -0.1671 -0.1298 -0.0889
 3070W        W19918   9.083   6.904   3.725 -0.1195 -0.1161  0.2285
 3071W        W19919   8.280  10.120   3.453  0.3364 -0.0035 -0.1490
 3072W        W19920  12.907   4.560   5.347  0.1356 -0.1355  0.1217
 3073W        W19921   3.866   4.266  14.973 -0.0271 -0.0794 -0.1342
 3074W        W19922  10.281  10.606   2.629 -0.0525 -0.1086  0.4840
 3075W        W19923   1.354   5.575  15.653 -0.0104 -0.1296  0.3578
 3076W        W19924   5.882   9.637   0.773  0.2099 -0.1184 -0.1987
 3077W        W19925   6.012  11.124   3.311  0.0407  0.2098 -0.0128
 3078W        W19926  10.209  11.609  13.111  0.3015  0.2810  0.1784
 3079W        W19927  14.425  12.893  13.944 -0.1993 -0.0658  0.3339
 3080W        W19928   1.159   4.157  11.053  0.0236  0.0577 -0.0933
 3081W        W19929   9.850   3.514  16.276 -0.1974 -0.2621 -0.2050
 3082W        W19930   8.039   2.216   2.992  0.2164 -0.0421  0.1577
 3083W        W19931   6.870   1.105  11.057  0.2751 -0.0721  0.0892
 3084W        W19932  16.960   2.498  14.117  0.1393 -0.0303 -0.0196
 3085W        W19933  14.423   5.635  13.194 -0.2302  0.0092  0.1279
 3086W        W19934  16.622   2.695   5.170  0.2204 -0.1801 -0.2488
 3087W        W19935  14.719   6.371   1.927 -0.1166 -0.1594  0.1288
 3088W        W19936  15.150   5.238  13.540 -0.3264 -0.2251  0.1309
 3089W        W19937   9.015  15.633   4.443 -0.0558  0.0032 -0.2727
 3090W        W19938   7.887  13.539  12.375  0.2155  0.1752 -0.1463
 3091W        W19939   9.730   5.971   1.787 -0.0874  0.0478 -0.1202
 3092W        W19940   6.333  15.283  15.811  0.0058  0.1862  0.1650
 3093W        W19941   5.708  17.009   4.323  0.1583  0.2396  0.1715
 3094W        W19942   8.610   9.510  16.063 -0.1599 -0.4554  0.3724
 3095W        W19943   5.482   7.857   4.153 -0.0374 -0.1091 -0.3301
 3096W        W19944   7.745  11.791  15.092  0.2174  0.2706  0.2030
 3097W        W19945  17.574   7.541  12.473  0.1900 -0.0454  0.0047
 3098W        W19946   7.066   5.684   1.563 -0.0605 -0.3658  0.0224
 3099W        W19947   0.517   9.053  12.913 -0.0939  0.2046 -0.0605
 3100W        W19948  13.615   2.129  11.506  0.1401 -0.1367  0.0646
 3101W        W19949   7.360  13.638  12.295 -0.2888  0.0673  0.1170
 3102W        W19950   9.487   3.428  15.345  0.0630  0.3300 -0.1759
 3103W        W19951   7.713  14.407   5.192 -0.1437  0.0910 -0.0091
 3104W        W19952  14.136   6.184  11.912  0.0746 -0.0153  0.3048
 3105W        W19953   8.237   1.809   2.797 -0.1922 -0.2806  0.1410
 3106W        W19954   2.187  10.853  13.962 -0.1458 -0.3047 -0.2117
 3107W        W19955  14.445  16.235   3.888 -0.0238 -0.0414 -0.0385
 3108W        W19956   6.284   2.742   2.766  0.1434  0.3325  0.2293
 3109W        W19957   8.267   1.023   3.912  0.3709 -0.3296 -0.1000
 3110W        W19958  10.237   1.798  14.349  0.0063  0.1638  0.1752
 3111W        W19959   0.648   7.079   0.037 -0.1327  0.1153  0.1654
 3112W        W19960   1.615   9.291  14.465 -0.1933 -0.2634 -0.1033
 3113W        W19961  16.397   2.042   0.629  0.2061 -0.0750  0.1244
 3114W        W19962   5.749  15.738  14.246 -0.2401  0.2160 -0.1908
 3115W        W19963   8.761   1.236  11.706 -0.2328 -0.2640  0.3248
 3116W        W19964   3.123   1.311  12.558 -0.1582  0.2146  0.0086
 3117W        W19965   5.061  14.247   5.646  0.1178  0.1022 -0.1212
 3118W        W19966  15.641  10.490   1.410 -0.0746  0.3036  0.0517
 3119W        W19967  13.799   6.480  13.949  0.2093  0.3375 -0.1133
 3120W        W19968   9.043  13.503   3.924  0.0353 -0.1900 -0.0781
 3121W        W19969  10.678  13.846   1.176 -0.0682  0.2909 -0.0609
 3122W        W19970  15.401  12.417   2.456 -0.3648 -0.0310  0.3169
 3123W        W19971   9.744  11.352   2.410 -0.0103 -0.0999 -0.2933
 3124W        W19972  14.827  14.663  14.541 -0.0542  0.0149 -0.1115
 3125W        W19973   8.247   3.563   1.005  0.1113  0.0195 -0.3009
 3126W        W19974   0.087  17.547   1.965 -0.0169 -0.1255  0.0499
 3127W        W19975   3.829  13.353  14.622 -0.1829  0.3428  0.2799
 3128W        W19976   4.878  17.577   2.393  0.1502  0.2774 -0.1802
 3129W        W19977   3.991   7.912  10.621 -0.0044 -0.1951  0.1651
 3130W        W19978  16.408  16.383   4.621  0.2247 -0.0723  0.1092
 3131W        W19979   4.937  10.840  15.427  0.1869 -0.4658 -0.2454
 3132W        W19980   0.526   2.699   5.355  0.1222 -0.1117  0.0042
 3133W        W19981   0.653   2.335   1.986  0.2518  0.0450  0.3642
 3134W        W19982   9.459  10.578   6.264 -0.1076  0.1230 -0.1135
 3135W        W19983  16.752  13.450  13.161 -0.0063 -0.0445  0.2601
 3136W        W19984   0.302   8.906  13.336  0.2695  0.1977  0.0474
 3137W        W19985   5.886   1.581   1.427 -0.0681  0.0575  0.2113
 3138W        W19986  17.742   6.091  12.853  0.3329  0.1203  0.0742
 3139W        W19987  12.478  11.768   5.958 -0.3787 -0.0933 -0.0403
 3140W        W19988   1.652  15.103  15.905  0.1271 -0.1165 -0.1649
 3141W        W19989   7.581   6.719  14.760  0.1046 -0.1659  0.2846
 3142W        W19990  12.210   0.457   2.898 -0.2190 -0.1619 -0.0086
 3143W        W19991   9.629  15.147   1.186 -0.4686  0.1206  0.1453
 3144W        W19992  15.096   8.395  13.507 -0.0762  0.1211  0.3324
 3145W        W19993   1.808  13.393  14.388  0.2684  0.3382  0.0282
 3146W        W19994   4.834   1.877   2.615 -0.1780  0.2635 -0.2299
 3147W        W19995   2.744   6.760   0.093 -0.0853  0.3097  0.1707
 3148W        W19996  16.132   4.594  15.420 -0.0124  0.0089 -0.0806
 3149W        W19997  15.467   6.406  11.972  0.2851 -0.0062  0.1238
 3150W        W19998   2.537   2.750   0.682  0.1600 -0.1819  0.0442
 3151W        W19999  16.029   5.895   2.502  0.3007  0.0023 -0.0940
 3152W        W20000   4.303   8.679   1.948 -0.0715  0.0686  0.0483
 3153W        W20001  13.170  16.416   0.070 -0.0829 -0.0345 -0.1695
 3154W        W20002   4.789   4.057   4.206  0.0950 -0.0095  0.1849
 3155W        W20003   2.889  17.278  14.443  0.1564  0.1039 -0.2219
 3156W        W20004   9.943  13.009   5.362  0.0960  0.1720  0.6061
 3157W        W20005  16.513   9.876   4.030  0.2256 -0.1032 -0.0240
 3158W        W20006   5.482  17.282  12.640  0.3720  0.4157 -0.0437
 3159W        W20007   0.752   3.010   3.290 -0.0035 -0.0763 -0.0181
 3160W        W20008   3.723   1.199  11.750  0.2432  0.0096 -0.0327
 3161W        W20009  16.256  12.968   1.419  0.0385  0.2040 -0.0207
 3162W        W20010   7.841  14.512   4.537  0.0134 -0.1225  0.0919
 3163W        W20011  11.116   0.672   3.812 -0.2604 -0.2300 -0.0307
 3164W        W20012  15.189  10.900   2.600  0.1288  0.0141  0.1876
 3165W        W20013  15.816  11.622   3.935 -0.1262  0.1687 -0.1040
 3166W        W20014   4.831  12.340   3.755 -0.2120  0.1181  0.1554
 3167W        W20015  16.734   4.426   2.080 -0.1976 -0.0676  0.0475
 3168W        W20016  11.337  17.035  10.678 -0.1593  0.0544 -0.1338
 3169W        W20017   0.705  13.412  14.489  0.1035  0.0592  0.1747
 3170W        W20018   8.821   8.623  11.203 -0.2612 -0.0245  0.1545
 3171W        W20019   4.728  13.673  16.458 -0.0401 -0.3085 -0.0076
 3172W        W20020   7.717  15.393   2.821 -0.2540 -0.1610  0.2901
 3173W        W20021   2.500   1.521  14.706 -0.0212  0.1238  0.4024
 3174W        W20022   3.485  11.406  13.838  0.4978  0.0121 -0.0937
 3175W        W20023  11.783   8.420   1.149  0.0407  0.2400 -0.0904
 3176W        W20024   4.892   6.104   0.678 -0.5009 -0.1894  0.1635
 3177W        W20025   5.104   1.186  15.374 -0.1677 -0.0262  0.0896
 3178W        W20026  14.006  14.074  14.782  0.0233 -0.0241 -0.4086
 3179W        W20027  15.404   1.233  12.900 -0.0490 -0.4439  0.1971
 3180W        W20028  13.812  12.008   5.505 -0.1191 -0.0205  0.3363
 3181W        W20029  16.929   7.755  14.726 -0.0994  0.1291 -0.0423
 3182W        W20030   0.314  16.451   4.090  0.3475 -0.2710  0.2184
 3183W        W20031  14.110  11.041   3.834  0.3108  0.3258 -0.0312
 3184W        W20032   0.039  10.207  12.613  0.1842  0.2984 -0.0879
 3185W        W20033  11.120   6.055  11.533  0.1046  0.2438 -0.2432
 3186W        W20034  15.464   0.236  14.943 -0.5548 -0.2765 -0.0500
 3187W        W20035  15.359  11.052  11.873 -0.0252  0.1055  0.1730
 3188W        W20036   3.376  10.862  11.869  0.3771  0.1488  0.0837
 3189W        W20037  17.073  17.816  16.137  0.0243  0.0870  0.1824
 3190W        W20038  11.120   9.940   4.257 -0.1376  0.0660 -0.1887
 3191W        W20039   9.481   5.723  12.634 -0.1504 -0.1618 -0.1784
 3192W        W20040  11.618  17.160  13.347  0.1903 -0.3286  0.2536
 3193W        W20041  10.215  13.368   0.850 -0.2136 -0.1479 -0.0220
 3194W        W20042  14.414   6.710   4.485  0.0007  0.1871  0.2485
 3195W        W20043   9.157  15.922   4.088 -0.1626  0.1640  0.0028
 3196W        W20044   0.256   3.442   0.932 -0.1026 -0.0731  0.1939
 3197W        W20045   5.311   1.166   1.855  0.0266  0.1574  0.0410
 3198W        W20046   3.074  14.269  13.302 -0.0772 -0.2831 -0.2394
 3199W        W20047   2.168   2.588   2.649 -0.0841 -0.0072 -0.4891
 3200W        W20048   3.701   2.584  14.486 -0.1741 -0.0518  0.0105
 3201W        W20049  17.075   5.142  13.500  0.0950  0.0701  0.0961
 3202W        W20050   2.960  15.259  12.122 -0.0695  0.4633  0.0754
 3203W        W20051  14.871   1.692   4.030  0.0776  0.2053 -0.1615
 3204W        W20052   4.442   3.272   5.184 -0.0608 -0.2927 -0.3295
 3205W        W20053   1.870  12.976  13.491 -0.2116 -0.3411 -0.1568
 3206W        W20054   8.567   0.737  12.752  0.1937  0.1729  0.0164
 3207W        W20055  17.602   5.571   0.759  0.1558  0.0997 -0.1269
 3208W        W20056   7.031  15.756   2.382  0.1726 -0.1677 -0.1226
 3209W        W20057   1.902   5.219   0.044  0.1492 -0.0259  0.1219
 3210W        W20058   6.879  15.879  12.283  0.2267 -0.2156 -0.2225
 3211W        W20059   6.096  11.378   1.731 -0.1679  0.1480 -0.1383
 3212W        W20060  11.908  12.445   3.019  0.2640 -0.0573  0.0510
 3213W        W20061   2.722   5.931   4.528  0.0285  0.0015 -0.2302
 3214W        W20062   1.067   3.983  14.137  0.1826  0.0668  0.3060
 3215W        W20063  14.390  12.388  12.121 -0.2226 -0.2278 -0.0457
 3216W        W20064  10.814  13.997  13.530 -0.2293  0.2112  0.3416
 3217W        W20065   1.609  17.327   4.499 -0.0050  0.0996 -0.2159
 3218W        W20066  16.656   8.418  11.863  0.1126 -0.3180 -0.0220
 3219W        W20067   2.697   5.043  13.345 -0.0062  0.0976 -0.0357
 3220W        W20068  14.435  15.347   4.520 -0.2659  0.1628 -0.1469
 3221W        W20069   7.658   7.822   4.280  0.2344 -0.2150 -0.0250
 3222W        W20070  14.072  15.910   2.137  0.0323  0.2286  0.3060
 3223W        W20071   6.008   5.464   5.416 -0.0074 -0.0855 -0.0116
 3224W        W20072  11.913   3.935  15.980 -0.0470 -0.0869  0.0993
 3225W        W20073   4.388   2.589   1.508  0.1234  0.0067  0.0047
 3226W        W20074   9.227  11.528   1.156 -0.0138 -0.0249  0.1662
 3227W        W20075   7.370   4.325  12.897 -0.0030  0.1085 -0.0237
 3228W        W20076   9.277   1.472   2.605  0.1321 -0.0269  0.3984
 3229W        W20077   1.893   1.960   3.397  0.1118  0.1074 -0.4202
 3230W        W20078   9.709   9.460  16.537 -0.0513  0.1154 -0.4642
 3231W        W20079   1.868   6.011   0.630 -0.2353  0.2596  0.3281
 3232W        W20080   2.862   6.496   5.723  0.3029  0.3075 -0.2363
 3233W        W20081  10.998   3.764  16.152  0.3139  0.0901 -0.1103
 3234W        W20082  13.112  12.509   4.304 -0.1818 -0.0396  0.0437
 3235W        W20083   4.123   8.827  16.484  0.0213 -0.0781  0.0780
 3236W        W20084   9.996   7.218  13.828 -0.2024 -0.0046 -0.0449
 3237W        W20085   7.886   5.423  12.087  0.1024  0.0846  0.2412
 3238W        W20086   5.210   5.761   0.837  0.1103  0.1460 -0.1455
 3239W        W20087   2.322  11.197   2.434 -0.1311  0.0017  0.0919
 3240W        W20088  11.909  12.240  13.962  0.1033  0.1292 -0.0008
 3241W        W20089  10.487   4.719   3.436 -0.1801 -0.0641 -0.0224
 3242W        W20090   2.290  16.853   3.163  0.0694  0.1625  0.2581
 3243W        W20091   6.022  13.128  14.158 -0.0406  0.2163  0.3843
 3244W        W20092  10.340   9.751   1.510 -0.2069  0.0424 -0.0161
 3245W        W20093  10.667  15.557   1.020  0.0362 -0.0240 -0.1866
 3246W        W20094   9.519   8.525   4.429 -0.0208 -0.2910 -0.0778
 3247W        W20095   3.375   8.267   5.584  0.1141  0.0074 -0.2408
 3248W        W20096   4.853   5.934  16.056 -0.5073 -0.0071 -0.1046
 3249W        W20097   8.784   1.318   1.543 -0.3916 -0.0623 -0.0431
 3250W        W20098   3.499   9.454   4.141 -0.1060 -0.0037  0.1101
 3251W        W20099   7.403  16.247  15.920 -0.1639 -0.0647 -0.0998
 3252W        W20100  13.976  17.259  13.439  0.4039  0.0410  0.1514
 3253W        W20101   9.450   5.246  13.857 -0.1418  0.1538  0.2280
 3254W        W20102  15.163  11.478   1.435 -0.1460  0.1919  0.0316
 3255W        W20103   9.571   9.535   4.708 -0.1021 -0.1365  0.0470
 3256W        W20104   7.011   1.677  12.496 -0.2446 -0.1420  0.2437
 3257W        W20105   4.854  12.417  11.655  0.1266 -0.1494  0.0646
 3258W        W20106  13.092  17.164   2.304  0.2418 -0.1887  0.0282
 3259W        W20107  17.804  12.693  15.600  0.0805 -0.4015  0.3427
 3260W        W20108   3.861   3.567  16.411 -0.1818 -0.1175  0.2981
 3261W        W20109   2.595   0.594  10.734  0.3016  0.0770 -0.0602
 3262W        W20110   3.783  14.009  12.269 -0.1515 -0.1850 -0.1378
 3263W        W20111   6.246   6.078  11.570  0.3427  0.0979 -0.0360
 3264W        W20112   0.540  13.382   3.598 -0.3266  0.4847 -0.0391
 3265W        W20113  15.081  10.974   3.752 -0.2760 -0.0093  0.3029
 3266W        W20114  12.123  12.707  14.718 -0.3068  0.0841  0.2012
 3267W        W20115   3.477   0.976   4.791  0.1764  0.2596  0.1916
 3268W        W20116   8.664   9.229   2.111  0.0760  0.0230  0.0908
 3269W        W20117   9.708   0.721  11.351  0.1370  0.2272  0.0932
 3270W        W20118   4.733   3.565  13.664 -0.1729  0.1495 -0.0498
 3271W        W20119   6.237   4.283   3.290  0.0026  0.0640 -0.1155
 3272W        W20120   9.015   9.452   2.537  0.2681 -0.0675  0.0815
 3273W        W20121  14.237  11.137   1.674  0.0800 -0.2079  0.2081
 3274W        W20122   1.280  11.349   1.364  0.0134  0.3616  0.1361
 3275W        W20123  11.353  13.083   1.142  0.1830 -0.1226 -0.2229
 3276W        W20124  13.830  12.684   3.824 -0.3001 -0.0505  0.0132
 3277W        W20125   3.935  14.223   6.279  0.0060  0.1315 -0.0233
 3278W        W20126   0.907  10.575   1.375  0.0780  0.1485  0.2468
 3279W        W20127   0.446  17.798   1.712 -0.1836 -0.1682  0.0210
 3280W        W20128   8.632   5.777  13.392  0.1884  0.1199 -0.1783
 3281W        W20129  12.146  11.053   3.162 -0.2503 -0.1244  0.0699
 3282W        W20130  16.610  11.091   3.197  0.2964  0.0314 -0.1511
 3283W        W20131  15.048  10.439   3.753  0.0995  0.1913  0.1038
 3284W        W20132   6.093   9.362   3.090  0.1876 -0.0330  0.0489
 3285W        W20133   7.386   3.390   3.336 -0.2885 -0.2889 -0.1011
 3286W        W20134   6.150   8.790   3.575  0.1979  0.0250 -0.2274
 3287W        W20135   4.625   5.123   2.601 -0.1463  0.0241 -0.3094
 3288W        W20136  14.263  11.449  12.006  0.0647  0.2777  0.3027
 3289W        W20137   2.390   6.225  12.681 -0.3286  0.0313  0.0961
 3290W        W20138   5.305  11.855   0.668 -0.0841 -0.0713  0.2156
 3291W        W20139  12.839  15.104  16.171  0.0386 -0.0668  0.0757
 3292W        W20140  10.640   3.162  11.947 -0.2306 -0.4961  0.2883
 3293W        W20141  12.716   6.647   3.895 -0.0882  0.1950  0.1196
 3294W        W20142   2.595  10.595  16.446 -0.0052 -0.1909 -0.1764
 3295W        W20143  14.470  16.234  12.913 -0.0313  0.2072 -0.0281
 3296W        W20144  11.703   4.793   0.236 -0.1072 -0.1453  0.1408
 3297W        W20145   1.760  17.022   2.418  0.0287  0.1918  0.1373
 3298W        W20146   0.314   4.799  14.225 -0.2194  0.2460 -0.2962
 3299W        W20147  14.654   4.524  13.404  0.2215 -0.0191  0.0907
 3300W        W20148   0.931  14.795   5.728 -0.0400 -0.0080 -0.0784
 3301W        W20149   4.004   5.906   3.197  0.1688  0.0760 -0.0729
 3302W        W20150  14.282   8.552  15.778 -0.2179  0.1647  0.0694
 3303W        W20151   7.990   1.556  11.809  0.0134 -0.0971  0.0204
 3304W        W20152   7.713   9.079  11.433  0.0448  0.0112 -0.0079
 3305W        W20153  16.871   2.706   3.610 -0.0755 -0.0801  0.0860
 3306W        W20154  12.781   9.631   0.351  0.4344  0.0186  0.0183
 3307W        W20155   2.292   8.449  14.354 -0.0056 -0.2215 -0.0662
 3308W        W20156  16.076  15.307   5.167  0.1507  0.2579 -0.3975
 3309W        W20157   3.512   1.366   1.540 -0.1457  0.0368  0.2261
 3310W        W20158   7.407  11.972   0.842 -0.4043  0.4567 -0.2725
 3311W        W20159  17.106   3.609  13.523  0.0032 -0.1582  0.0731
 3312W        W20160  15.269   3.959   2.392  0.0628 -0.3313  0.1228
 3313W        W20161  10.974  13.757  13.084  0.0382  0.1915 -0.0321
 3314W        W20162   0.216   5.681  14.941  0.2415  0.2122  0.0105
 3315W        W20163   2.914   3.948   3.055 -0.1945 -0.0909  0.4239
 3316W        W20164  11.206  16.169  15.977  0.0223 -0.0429 -0.5293
 3317W        W20165   2.835  13.052  14.444 -0.1530  0.2231  0.0762
 3318W        W20166   9.417  17.484   4.400  0.0493  0.3835  0.0445
 3319W        W20167   7.690  16.076  13.285  0.0641 -0.2118  0.1125
 3320W        W20168   9.748  17.462   3.986 -0.1168 -0.4510  0.0538
 3321W        W20169  17.631  11.712   1.143  0.0559  0.0635 -0.1311
 3322W        W20170   8.806  12.076   3.074 -0.0525 -0.0662 -0.0749
 3323W        W20171   8.398   6.950  13.173 -0.1814 -0.1044  0.0247
 3324W        W20172   3.447   3.130   5.001 -0.1385  0.1466  0.2067
 3325W        W20173  10.372   8.139  15.682  0.0303 -0.0058 -0.1373
 3326W        W20174  11.924  12.360   4.847  0.1162 -0.1849 -0.1271
 3327W        W20175   6.849  13.704  12.566  0.0355  0.1739 -0.2032
 3328W        W20176   1.754  16.965  11.550 -0.0235  0.1186 -0.1203
 3329W        W20177  14.225  14.916  13.960  0.4537  0.0353  0.2041
 3330W        W20178  15.428   7.263  14.119 -0.1907 -0.1484  0.1440
 3331W        W20179   5.085   1.697  13.754  0.0232 -0.1787  0.0429
 3332W        W20180   0.151   6.876   0.899 -0.0411 -0.0370 -0.3139
 3333W        W20181   9.635   2.052  11.985 -0.0466 -0.1646 -0.2937
 3334W        W20182   4.683   6.165   0.204  0.0379 -0.1916 -0.1291
 3335W        W20183  16.183   9.516   2.540 -0.0193 -0.0637 -0.0896
 3336W        W20184   5.190   1.385   0.068  0.3646  0.0806  0.0297
 3337W        W20185  17.245  10.999   2.194 -0.0888  0.0836 -0.1221
 3338W        W20186   9.006   3.098  11.564  0.3197  0.2598 -0.3487
 3339W        W20187   3.937  11.944   2.709 -0.0472 -0.0968 -0.0118
 3340W        W20188   8.453   2.396  16.249 -0.0596  0.0739  0.1797
 3341W        W20189   2.917   7.738   2.678  0.0933 -0.0276  0.5043
 3342W        W20190   3.570  16.972   3.742 -0.1290 -0.2649  0.3019
 3343W        W20191   3.004   8.297  15.678 -0.2547  0.1576 -0.1459
 3344W        W20192  10.823  15.741  13.986 -0.0663 -0.0334 -0.0849
 3345W        W20193   9.449   9.817  10.451 -0.1166  0.1618 -0.1661
 3346W        W20194   6.314  16.759  12.472  0.1239  0.1922  0.1921
 3347W        W20195   2.787   7.216   0.415 -0.1579 -0.2585 -0.0007
 3348W        W20196   2.323  12.241  14.930  0.2533 -0.0180 -0.0324
 3349W        W20197  11.350  16.790   1.142  0.1113 -0.0617 -0.0510
 3350W        W20198  13.326  12.349   3.827  0.1160 -0.2722  0.6127
 3351W        W20199  16.791  13.543   6.087  0.4155 -0.0541  0.2179
 3352W        W20200  10.896   0.962   4.206  0.0227  0.1008 -0.1125
 3353W        W20201  14.823  16.838   4.608 -0.1281 -0.2123 -0.2804
 3354W        W20202  13.548   2.746  16.132  0.5072 -0.2350 -0.0086
 3355W        W20203  10.059   3.477   5.069 -0.0238 -0.0107  0.1706
 3356W        W20204  10.914   6.679  11.086 -0.0970  0.1064 -0.0898
 3357W        W20205   0.115  10.636   5.059  0.1117  0.0848 -0.1513
 3358W        W20206  13.317   8.124  12.828 -0.1397 -0.2338 -0.0135
 3359W        W20207  10.814  16.268   4.334  0.1907  0.0113 -0.4374
 3360W        W20208   4.936   5.916  15.208 -0.0982 -0.2561 -0.1265
 3361W        W20209  13.326  15.470  12.556 -0.0785  0.1285  0.2312
 3362W        W20210   1.893   5.461   2.255  0.1568  0.0753 -0.0565
 3363W        W20211   5.135   3.347   1.289  0.0150 -0.2181  0.0390
 3364W        W20212  16.697  14.434  16.569  0.0302 -0.2246  0.1477
 3365W        W20213   4.832   8.989   4.831 -0.1401 -0.1634 -0.1634
 3366W        W20214  11.133   9.723  11.630  0.0827 -0.3291 -0.0488
 3367W        W20215  11.734  11.033  15.927  0.2677  0.0517 -0.0304
 3368W        W20216   2.438   7.439  12.252  0.1991 -0.1611  0.0834
 3369W        W20217  11.659   1.413   6.251  0.2084 -0.3278 -0.1406
 3370W        W20218   1.237  13.646  15.528  0.0946  0.1861  0.2122
 3371W        W20219  17.707  12.817   0.888  0.0468 -0.2032 -0.1463
 3372W        W20220   2.768   5.685   2.833  0.0674 -0.0250 -0.0026
 3373W        W20221  11.744  12.076   1.978  0.0884 -0.1580 -0.1157
 3374W        W20222  17.741   0.563  12.444 -0.0794  0.1147  0.2490
 3375W        W20223   1.852  10.559  13.702  0.0516  0.0219 -0.3537
 3376W        W20224   1.248   1.391   4.009 -0.1238  0.0733 -0.0600
 3377W        W20225  10.824   5.038   3.208  0.1889  0.2126  0.1814
 3378W        W20226   3.782  10.016  14.510  0.2680 -0.0819  0.1949
 3379W        W20227   1.266   0.520   0.218 -0.1846 -0.2571  0.1780
 3380W        W20228   9.892   7.995   4.784 -0.0900 -0.3380  0.0108
 3381W        W20229  17.062  17.646  15.667  0.0245 -0.1735 -0.0979
 3382W        W20230   2.745  15.943   3.177 -0.1187  0.1317  0.1348
 3383W        W20231   9.125   8.997  14.467  0.1817  0.0590  0.0867
 3384W        W20232   5.430  13.163  14.828 -0.1014 -0.1781  0.0338
 3385W        W20233  16.855  13.634  10.519  0.2595  0.0024 -0.2216
 3386W        W20234   1.155   1.981  11.881 -0.2408 -0.1147 -0.0332
 3387W        W20235   0.155   6.181  12.176  0.3593 -0.1360 -0.0148
 3388W        W20236   4.503   7.038  11.645  0.1448 -0.0759  0.0823
 3389W        W20237   1.892   7.585  12.125 -0.1297  0.1841 -0.3873
 3390W        W20238   7.555  10.957   1.260  0.1687  0.0433  0.1511
 3391W        W20239   1.322   7.952   3.754  0.0436  0.0533  0.0316
 3392W        W20240   5.834   1.783   2.762  0.0399 -0.0866 -0.4298
 3393W        W20241   6.167  17.305   4.433  0.0905 -0.2527  0.0425
 3394W        W20242  11.301   4.506  14.737  0.0694 -0.1949  0.0459
 3395W        W20243   1.898   8.927  14.325  0.1974 -0.0850  0.3213
 3396W        W20244  10.492  14.336   6.160  0.1199 -0.2341  0.4485
 3397W        W20245  13.668   1.960   2.553  0.1045 -0.2003  0.0140
 3398W        W20246   0.326   2.965   2.031  0.1065 -0.3369  0.2380
 3399W        W20247   2.055  11.264  12.884 -0.2067 -0.1584  0.0040
 3400W        W20248  17.478   7.010   1.214 -0.0987  0.1101 -0.0602
 3401W        W20249  15.553  17.417   5.241  0.0698  0.1754  0.2034
 3402W        W20250   1.591   7.136  14.386 -0.1746 -0.0697 -0.0698
 3403W        W20251   7.960  11.432  13.655  0.0597  0.2756  0.0219
 3404W        W20252  17.004   3.050  14.940  0.2358 -0.1425  0.2454
 3405W        W20253   4.394  13.153   2.419 -0.0063 -0.0909 -0.1870
 3406W        W20254  16.016  17.551   5.495 -0.3517  0.2787 -0.1363
 3407W        W20255  13.827  16.766   4.960  0.1267 -0.4174 -0.0634
 3408W        W20256   3.531  13.095  12.141  0.2122 -0.1467 -0.0580
 3409W        W20257   3.205   1.016  15.221  0.0928  0.0958  0.0000
 3410W        W20258  12.491   7.289   5.303  0.0525 -0.0505 -0.1574
 3411W        W20259  12.810   5.600   0.200 -0.0171  0.1650  0.2086
 3412W        W20260  14.406   8.498  16.305  0.1376  0.1465  0.2051
 3413W        W20261   7.659  12.081   3.422 -0.0793  0.1253 -0.2090
 3414W        W20262   4.213  15.022  12.298 -0.1470 -0.1430 -0.1699
 3415W        W20263  15.844   5.639  13.410 -0.3731 -0.1996 -0.0261
 3416W        W20264  10.776   3.175   5.487 -0.1308  0.4936  0.2921
 3417W        W20265   3.800   3.534   1.430  0.0990 -0.0640 -0.0738
 3418W        W20266  15.425  12.512   3.502 -0.2636  0.0988  0.0631
 3419W        W20267  10.823  12.651  13.958  0.1171  0.2204 -0.2244
 3420W        W20268  13.374  12.619  15.275  0.1795 -0.1558  0.1162
 3421W        W20269   9.219  13.151   0.152 -0.1403 -0.1430  0.1565
 3422W        W20270   8.690  15.210  11.520 -0.1687  0.0900  0.1888
 3423W        W20271  16.922   5.881   3.613  0.3093 -0.3187  0.2495
 3424W        W20272  16.364  10.253  13.191 -0.1839  0.1451  0.0321
 3425W        W20273   4.200   3.039   1.518  0.0648  0.2501 -0.0201
 3426W        W20274  17.684  11.617   4.894 -0.0074 -0.0911  0.0618
 3427W        W20275   4.924   9.945   2.307 -0.0461 -0.5557  0.1128
 3428W        W20276   6.993  12.120   1.299  0.1128  0.0297  0.2103
 3429W        W20277  16.695  17.500  15.273  0.0566  0.0291 -0.0550
 3430W        W20278  17.708  16.502  11.820  0.4110  0.0296 -0.1159
 3431W        W20279  15.081  17.235   5.786 -0.1345  0.4233  0.0963
 3432W        W20280   1.605  13.921  13.596 -0.1530  0.1769  0.0355
 3433W        W20281   1.178   9.806   4.486  0.0443 -0.1334 -0.2629
 3434W        W20282   0.764  12.696   5.151 -0.0641  0.0663  0.0993
 3435W        W20283   2.361   6.381   0.170 -0.1601  0.0960  0.1603
 3436W        W20284  15.143   2.985   2.951  0.2867  0.0160 -0.0697
 3437W        W20285   7.925   0.463  14.480 -0.4036  0.1216 -0.3865
 3438W        W20286  11.149  13.814   4.231  0.1243 -0.0553  0.0805
 3439W        W20287   7.568   7.095   0.079 -0.0768  0.0129 -0.3414
 3440W        W20288   0.224   4.560   4.191  0.2994  0.1670  0.5767
 3441W        W20289   8.978   5.425   2.771 -0.0819  0.1269 -0.1297
 3442W        W20290  14.170  13.603   5.021  0.0181 -0.0720 -0.1280
 3443W        W20291   3.999   0.375  11.811  0.3485  0.0208 -0.4408
 3444W        W20292  12.531  16.510  11.752  0.1029  0.0379 -0.0412
 3445W        W20293   5.310  15.457   4.700  0.0072 -0.1905 -0.1129
 3446W        W20294   7.709   6.306   1.396  0.2710  0.0982 -0.1457
 3447W        W20295   6.981   1.979  13.319  0.2535 -0.1266  0.1964
 3448W        W20296  11.322   1.593   1.645  0.3906 -0.0182 -0.0473
 3449W        W20297   2.716   6.859  12.088 -0.0154 -0.2103  0.2450
 3450W        W20298   3.363   8.234  16.027 -0.2952  0.1919 -0.1080
 3451W        W20299  10.912   5.402  14.763 -0.1036 -0.3081  0.0293
 3452W        W20300  16.498  16.857   5.558  0.1541  0.1165  0.2670
 3453W        W20301   6.171   5.783  15.331 -0.1717 -0.2670  0.1800
 3454W        W20302   5.630   4.168   4.452 -0.0447  0.1622 -0.1847
 3455W        W20303   6.994   4.517  12.600  0.0937  0.0484 -0.2252
 3456W        W20304   0.590   4.242  10.683  0.2645  0.2466 -0.0194
 3457W        W20305   6.087   5.979   4.429 -0.2358  0.2132  0.2534
 3458W        W20306   6.898   0.157   3.210 -0.1150 -0.2775  0.0695
 3459W        W20307  14.215   2.222  15.348  0.1299  0.1356  0.0277
 3460W        W20308   8.592   2.454   3.128  0.0038  0.0341 -0.0297
 3461W        W20309  13.763  13.590   2.627  0.0930  0.1663  0.0091
 3462W        W20310  14.312  11.433   0.243 -0.0722 -0.1331  0.0121
 3463W        W20311  16.574   3.217   5.135  0.0765  0.1125  0.0905
 3464W        W20312   4.979  10.957   4.280  0.1694  0.1401  0.2427
 3465W        W20313  17.275   5.521   0.333  0.2677 -0.0419 -0.0838
 3466W        W20314  14.572   5.824  14.172  0.4367 -0.1286  0.2733
 3467W        W20315   8.637   3.842  13.267 -0.0325  0.1434 -0.0152
 3468W        W20316   0.486   3.004   0.052  0.1358 -0.0860  0.1075
 3469W        W20317  13.243   1.217   3.653  0.0763  0.2691 -0.2790
 3470W        W20318   9.273   5.877   1.896 -0.2047 -0.0011  0.0704
 3471W        W20319   1.455  12.220   0.263 -0.0605  0.0909  0.2139
 3472W        W20320   7.098   8.436  13.448  0.0272  0.1128  0.0649
 3473W        W20321   6.383  14.439  12.083  0.2098  0.0253 -0.2492
 3474W        W20322   4.456  11.128  10.573 -0.2029  0.2382  0.4434
 3475W        W20323   4.010   3.982   1.519 -0.2153 -0.0579  0.1991
 3476W        W20324  15.975  17.127  14.887  0.0609  0.0458  0.1620
 3477W        W20325  15.409   4.310  14.205  0.0825 -0.2576 -0.0308
 3478W        W20326  13.598   5.876  14.716 -0.2331  0.2747 -0.1393
 3479W        W20327  12.205   8.103  13.848 -0.0477 -0.3515  0.1312
 3480W        W20328  14.356   6.380   4.834  0.0301  0.1015 -0.2373
 3481W        W20329   3.429  16.715  13.712  0.5027  0.0607 -0.1445
 3482W        W20330   8.043   5.807   3.167  0.0058  0.1195 -0.0637
 3483W        W20331  17.638   0.136  13.021 -0.2012 -0.2219 -0.1931
 3484W        W20332  17.322   5.896   5.473 -0.1222  0.1443  0.2916
 3485W        W20333   8.935   2.265  15.820 -0.0252 -0.0382 -0.0947
 3486W        W20334   9.440   3.375   3.592 -0.1590  0.0799 -0.0262
 3487W        W20335  11.931   5.306   2.435 -0.1189 -0.2967  0.1656
 3488W        W20336  16.397   5.751  14.035  0.1221 -0.2158 -0.2035
 3489W        W20337  11.721   0.627  13.475 -0.0884  0.0775  0.0992
 3490W        W20338   7.261  15.819   4.283 -0.4565 -0.2359  0.0222
 3491W        W20339   0.108   2.188   3.862  0.1147 -0.1651  0.2741
 3492W        W20340  14.192   4.157   1.400  0.1537 -0.0924 -0.0859
 3493W        W20341   6.805   0.244  12.617 -0.0198  0.0139  0.0138
 3494W        W20342  10.552   2.283  11.541  0.1498 -0.1166  0.3969
 3495W        W20343   6.495  12.858   2.478 -0.2219 -0.0909 -0.0517
 3496W        W20344  14.726   7.467  15.001  0.0417  0.1588 -0.2627
 3497W        W20345   5.800   9.619   5.490  0.2418 -0.0756  0.0087
 3498W        W20346  15.106  10.511  14.021 -0.0735  0.2466 -0.0605
 3499W        W20347  15.142  11.729   5.596  0.1178 -0.1846  0.1921
 3500W        W20348  14.433  14.215  15.475  0.2534  0.1713 -0.0746
 3501W        W20349   5.980   9.054  12.875  0.0476 -0.0159 -0.1131
 3502W        W20350  11.873   3.302  11.602  0.0719  0.3851  0.0828
 3503W        W20351   7.708   5.609   3.554 -0.1345  0.0014 -0.1337
 3504W        W20352  11.953   1.823  11.719 -0.2067 -0.0922 -0.0482
 3505W        W20353   0.863   4.758  14.224 -0.2760  0.0561  0.0116
 3506W        W20354  14.774  15.088  10.383  0.1212 -0.0911  0.0492
 3507W        W20355  16.167   4.537  14.567 -0.1535  0.0609  0.1908
 3508W        W20356  10.309   9.604  15.122 -0.0947 -0.0684 -0.2441
 3509W        W20357   3.808   9.793   3.376  0.0891  0.0223  0.2102
 3510W        W20358  12.941   3.706   5.141 -0.0415 -0.0811  0.1882
 3511W        W20359   4.838  13.873   4.585 -0.0207  0.2248  0.1202
 3512W        W20360  15.558   7.482   4.616 -0.0019 -0.2142  0.1145
 3513W        W20361   3.255   4.925   3.084 -0.1210 -0.1690 -0.3132
 3514W        W20362   8.324   6.533   2.752  0.0461  0.2038 -0.0401
 3515W        W20363  15.516  16.277  14.971  0.3577 -0.1428  0.0615
 3516W        W20364  17.770  12.813  14.172 -0.2598  0.0968 -0.0432
 3517W        W20365  11.530  16.853  12.783  0.0997 -0.0044 -0.1397
 3518W        W20366  13.769   5.783   4.347  0.1315 -0.0446  0.2443
 3519W        W20367   1.797   2.006   5.783 -0.1091 -0.0069  0.1178
 3520W        W20368   0.790  16.945  16.208  0.1300 -0.0038 -0.0662
 3521W        W20369  15.363   2.494  12.529  0.1245  0.0235 -0.1247
 3522W        W20370   6.286  10.504   4.032  0.0388 -0.3557  0.2413
 3523W        W20371   5.941   2.686   2.303  0.0625  0.1603 -0.2503
 3524W        W20372   0.886   8.390   0.634 -0.1833 -0.0685 -0.0567
 3525W        W20373  13.227   7.858  10.756 -0.2595 -0.6998  0.1455
 3526W        W20374  16.516   5.237  12.644  0.1640  0.1454 -0.0442
 3527W        W20375   3.904  13.887   3.956  0.3742 -0.2846 -0.2611
 3528W        W20376  10.127   1.841   0.598 -0.1130 -0.1343  0.0679
 3529W        W20377  11.078  16.381   5.173  0.1878  0.0887 -0.3277
 3530W        W20378   9.109  11.496   0.120 -0.2695  0.1764  0.0020
 3531W        W20379  17.802  15.430   0.098 -0.0240 -0.2491  0.1249
 3532W        W20380  11.225  15.792  12.972  0.1781 -0.0743  0.1636
 3533W        W20381   4.850   2.386  12.942 -0.0092  0.3042 -0.0034
 3534W        W20382  15.964   3.110  11.888  0.1281 -0.0607  0.0369
 3535W        W20383  16.590  13.201  14.385  0.0147 -0.3858  0.1438
 3536W        W20384  12.966   6.299  12.096  0.1329  0.0600 -0.1492
 3537W        W20385   6.168  16.509  13.939  0.0948  0.1244 -0.5787
 3538W        W20386  13.325  16.925  13.452 -0.2383  0.2398 -0.2251
 3539W        W20387   3.879   4.261   1.070 -0.0048  0.2087  0.2365
 3540W        W20388  10.520  16.171  13.331  0.1005 -0.1866 -0.4424
 3541W        W20389   7.039   4.422  11.129 -0.0618 -0.2895 -0.1444
 3542W        W20390  14.334   6.551  11.305  0.1106  0.0255 -0.1332
 3543W        W20391   1.714   6.488   1.352 -0.1566 -0.0649 -0.0241
 3544W        W20392  14.711   1.303   3.233  0.0251  0.0830 -0.0254
 3545W        W20393   3.837   6.299   0.539  0.1178 -0.3803  0.1367
 3546W        W20394   2.325   3.933  16.291 -0.0088 -0.0835 -0.1131
 3547W        W20395  13.825  16.619   4.498 -0.2238 -0.0607  0.4164
 3548W        W20396  14.013  14.601  13.466 -0.2025 -0.1618 -0.3081
 3549W        W20397   3.610   1.453  12.675  0.1340 -0.1203 -0.0001
 3550W        W20398   4.665   5.151   4.321  0.0904  0.1358 -0.1812
 3551W        W20399  15.252  17.778   3.552  0.2079  0.2837 -0.2031
 3552W        W20400   9.294  14.149   4.178  0.1122  0.0947 -0.0742
 3553W        W20401   0.258   3.989   4.063  0.1800  0.0593  0.1176
 3554W        W20402  16.207   6.139  15.117  0.0485 -0.0028  0.1523
 3555W        W20403   0.329   3.655   1.516 -0.1779  0.0247  0.0987
 3556W        W20404  15.934  13.865  10.820  0.0998  0.1636 -0.0153
 3557W        W20405  17.433  17.007   1.324 -0.2256  0.1929  0.4119
 3558W        W20406  13.338   4.106  13.824 -0.3988  0.0255  0.1004
 3559W        W20407   9.778   6.832   1.890 -0.0552 -0.0432  0.3642
 3560W        W20408   0.999  17.332  14.620  0.2812  0.4414  0.1584
 3561W        W20409   1.181  10.046  14.646 -0.0376 -0.0190  0.3381
 3562W        W20410  11.943   6.713   0.598 -0.0952 -0.2291 -0.2075
 3563W        W20411   9.044  14.141   0.129  0.2005 -0.1303 -0.1119
 3564W        W20412   4.770   1.170   1.926 -0.3280  0.3536  0.0304
 3565W        W20413   5.589  14.207  10.672 -0.1490  0.0448 -0.2074
 3566W        W20414  12.825   4.359  15.306  0.1517 -0.2213  0.0117
 3567W        W20415   1.554   7.706  13.907 -0.3840  0.1547  0.2596
 3568W        W20416  10.687  13.353  11.803 -0.0659  0.1563 -0.0766
 3569W        W20417  11.417   4.103   6.283 -0.4340  0.0505 -0.1215
 3570W        W20418   5.305  16.297   3.343 -0.0073  0.1794  0.0350
 3571W        W20419  14.918   5.919  12.735 -0.3110 -0.2672 -0.0127
 3572W        W20420   9.981  12.160   0.142 -0.0402 -0.3305 -0.2514
 3573W        W20421   6.007   0.234   5.670  0.2282  0.1512  0.0108
 3574W        W20422  10.451   2.823  15.716 -0.0844 -0.0608  0.4719
 3575W        W20423  11.753  11.393  12.349 -0.1624 -0.0702 -0.1913
 3576W        W20424   4.581   7.798  16.241 -0.1873 -0.0047  0.0669
 3577W        W20425   1.157  10.888  15.038 -0.2302 -0.0981  0.0533
 3578W        W20426  14.942  17.806  14.430  0.0582 -0.0971 -0.0797
 3579W        W20427   1.002   6.856  13.665  0.0647  0.1106 -0.1003
 3580W        W20428   8.945   3.729   4.296  0.0025 -0.0836 -0.2891
 3581W        W20429   8.539   0.439  16.626 -0.0147  0.0162  0.1556
 3582W        W20430   7.718   1.476   4.742 -0.0542 -0.0853 -0.0780
 3583W        W20431  10.271   0.653   2.158 -0.3607  0.2497 -0.0867
 3584W        W20432   0.081   1.629  14.407 -0.0455  0.2108 -0.0341
 3585W        W20433  12.183  13.529   2.913 -0.2852 -0.1469  0.0207
 3586W        W20434   5.172   2.149   3.558 -0.1754 -0.2134 -0.2945
 3587W        W20435   6.806   9.815  14.261  0.0878 -0.1960 -0.0390
 3588W        W20436   8.659  17.614   1.693 -0.3436 -0.0314  0.0347
 3589W        W20437  13.518  13.519   3.709 -0.3110  0.1863  0.1342
 3590W        W20438   6.835   3.517  16.492  0.1979 -0.1648  0.1760
 3591W        W20439  10.106   7.791   1.838 -0.0990 -0.1981  0.2676
 3592W        W20440   4.443   2.024  13.252 -0.0994  0.4358  0.4898
 3593W        W20441   9.553  15.157  13.914  0.1453  0.1712 -0.0036
 3594W        W20442  17.753   1.529   3.752 -0.1760  0.0998 -0.0946
 3595W        W20443  16.846   2.830  16.472 -0.0376  0.1205 -0.1825
 3596W        W20444  11.599  15.513  14.248  0.1828 -0.1411  0.1295
 3597W        W20445   6.036   7.779  12.100  0.0615  0.1921  0.2167
 3598W        W20446  10.461  10.271   1.451 -0.0439 -0.2236 -0.1878
 3599W        W20447   7.650   3.841  10.739  0.3246  0.1296 -0.0811
 3600W        W20448  14.002   5.602  14.765 -0.1413  0.3619 -0.0300
 3601W        W20449  15.651   2.695  16.393  0.0909  0.0836 -0.0127
 3602W        W20450  12.528   7.322  15.259  0.1098  0.1774 -0.1540
 3603W        W20451  11.797  17.757   1.208 -0.0498  0.1297  0.1867
 3604W        W20452   2.666   5.243   3.713 -0.0908  0.2644 -0.1781
 3605W        W20453  16.702   1.575   0.476 -0.0284  0.2957 -0.1960
 3606W        W20454  10.718  14.944   0.115 -0.1870 -0.0434  0.2040
 3607W        W20455   9.850  15.823  16.156 -0.1657 -0.2118  0.4242
 3608W        W20456   2.681   2.038  13.642  0.5287 -0.0499 -0.0863
 3609W        W20457   5.684   0.987   3.930 -0.0017  0.1800  0.1676
 3610W        W20458  10.420  10.907  15.372  0.3153 -0.2080  0.0185
 3611W        W20459   6.757   9.825   2.676 -0.1135 -0.1406 -0.1985
 3612W        W20460   5.325  13.022  15.359 -0.1032  0.0513 -0.0904
 3613W        W20461  15.134   7.831   4.609  0.0974 -0.0464  0.1566
 3614W        W20462  17.747   2.035  14.019 -0.1391  0.0673 -0.0313
 3615W        W20463  10.423   4.704   0.389  0.0192  0.1084  0.2153
 3616W        W20464   4.389   5.589   1.736  0.2330  0.0640  0.1199
 3617W        W20465   5.951  13.953  12.674  0.1090 -0.1089  0.1620
 3618W        W20466   9.903   6.878  15.039  0.0858  0.0473  0.0705
 3619W        W20467   1.879   0.899  15.626 -0.0090 -0.1414 -0.1242
 3620W        W20468   9.401   6.532  12.356  0.3164 -0.0307 -0.1701
 3621W        W20469   0.715   2.482  13.568 -0.1592  0.1067 -0.1711
 3622W        W20470   2.938  10.594  11.742 -0.1401 -0.2235  0.3022
 3623W        W20471  13.553  16.897  14.187  0.4628  0.0750  0.0215
 3624W        W20472   9.260   4.093   3.518 -0.1489  0.2075 -0.1608
 3625W        W20473   8.134   0.021  13.765 -0.3100  0.4712  0.0661
 3626W        W20474   6.416   3.775  16.316 -0.1194  0.0240  0.1329
 3627W        W20475  15.476   0.433  13.153  0.1073 -0.1249 -0.0462
 3628W        W20476   3.681   9.691   0.685  0.1885  0.2937 -0.0899
 3629W        W20477  15.234   8.190   1.748  0.1246  0.0725  0.1292
 3630W        W20478  14.459  11.016  13.778 -0.3136 -0.1792 -0.1662
 3631W        W20479  16.273  16.099  13.981  0.1213 -0.1587 -0.1451
 3632W        W20480   9.735   2.014  14.207 -0.2421 -0.1649  0.0307
 3633W        W20481  16.117   9.278  16.525  0.1617  0.0824 -0.0783
 3634W        W20482  14.380   9.517   2.988 -0.0418 -0.1256  0.3037
 3635W        W20483   6.290  12.380   4.742 -0.0754 -0.1290 -0.2165
 3636W        W20484   0.052   0.085  14.481  0.0943  0.0081  0.0530
 3637W        W20485   4.961  13.313   2.328  0.0548 -0.1064 -0.0163
 3638W        W20486   0.248  10.292  13.704  0.1834  0.1785  0.1035
 3639W        W20487  14.947  12.069   0.029  0.0366 -0.3158 -0.0197
 3640W        W20488   3.965   8.400  13.281  0.0949 -0.1263 -0.0821
 3641W        W20489  13.068   0.212   2.729  0.0581 -0.0854 -0.4336
 3642W        W20490  17.643   0.686  16.363  0.0944 -0.2791  0.5200
 3643W        W20491   8.347   5.393   4.491 -0.1986  0.1828  0.0456
 3644W        W20492  16.071  13.998   1.391 -0.4121  0.3058 -0.2749
 3645W        W20493  15.330   7.790  11.550  0.2210 -0.0034 -0.1591
 3646W        W20494  13.718  11.776   1.765 -0.3786 -0.1241  0.0237
 3647W        W20495  13.097   0.856  15.626 -0.0748 -0.1449  0.3199
 3648W        W20496   9.049   0.400   4.071  0.0652  0.0201  0.1710
 3649W        W20497   8.663   4.692   1.815  0.0213 -0.0087 -0.2375
 3650W        W20498   7.464   6.128  13.320  0.0224 -0.0717 -0.0568
 3651W        W20499  11.005   2.595   2.667 -0.1200 -0.1769 -0.2865
 3652W        W20500   5.638   3.205  14.620  0.1542  0.0731  0.0356
 3653W        W20501  15.809   2.818  14.731  0.3224  0.0217 -0.1947
 3654W        W20502   2.391   4.791   2.048 -0.2075  0.2049  0.4576
 3655W        W20503  17.678   3.240   1.041 -0.0986  0.1255  0.0127
 3656W        W20504   6.125   5.535  12.637 -0.0732 -0.0031  0.1588
 3657W        W20505  10.646   0.884   3.743 -0.1364 -0.2419 -0.0806
 3658W        W20506   6.872   7.111  16.355  0.1891  0.1680 -0.1189
 3659W        W20507  16.459   9.937   1.165 -0.1193 -0.0487  0.0556
 3660W        W20508  11.826  12.689  13.054 -0.0859  0.0953  0.1377
 3661W        W20509  17.809   7.436   4.190  0.5312  0.1825 -0.1222
 3662W        W20510   3.255  15.959  14.233 -0.1318  0.2021 -0.1730
 3663W        W20511   0.988  12.248   5.000 -0.1707  0.0073 -0.0714
 3664W        W20512  16.712  17.570  11.000  0.1303  0.2006 -0.1525
 3665W        W20513   8.302   4.505   1.069 -0.0506 -0.1940  0.2212
 3666W        W20514  12.537   2.451   0.821 -0.0872  0.0199 -0.1116
 3667W        W20515   4.697   4.870   4.947  0.1922  0.3860 -0.2599
 3668W        W20516  13.425   5.330   5.707  0.0370  0.0022  0.1580
 3669W        W20517   2.190   2.645   4.918  0.2368  0.0090 -0.1051
 3670W        W20518   8.634   4.970  15.449 -0.0699  0.2129 -0.0444
 3671W        W20519  17.508  17.256   2.050  0.4004  0.0120 -0.0741
 3672W        W20520   7.653  13.190   1.838 -0.0669 -0.1009 -0.0543
 3673W        W20521  16.071   6.851  16.359  0.1070 -0.1951 -0.0710
 3674W        W20522  10.905  15.248   1.322  0.0088  0.4178  0.1072
 3675W        W20523   0.734  14.904  12.335 -0.2554 -0.2335  0.1722
 3676W        W20524  17.567  17.591   1.593  0.1292  0.2286  0.1283
 3677W        W20525   6.183   1.655   0.235 -0.0425  0.0522 -0.0244
 3678W        W20526  14.780   7.224  11.559 -0.1133  0.1443 -0.0044
 3679W        W20527   5.505   4.644   3.353  0.0206  0.0881  0.1076
 3680W        W20528  15.679   2.619   0.682 -0.1711  0.1450  0.1440
 3681W        W20529   7.429   5.148   0.326 -0.3182 -0.1446  0.2714
 3682W        W20530   9.647   7.160   0.662 -0.0523  0.2506  0.2963
 3683W        W20531  10.111   6.887  14.392 -0.1651 -0.0307  0.2436
 3684W        W20532  13.178   1.802  12.387  0.1926  0.1251 -0.0673
 3685W        W20533  15.204   4.873  11.761 -0.1422 -0.0720 -0.0261
 3686W        W20534   4.343   9.750  11.571  0.0257  0.0455  0.1922
 3687W        W20535   6.297  12.259  14.071 -0.2572 -0.0986 -0.2248
 3688W        W20536  12.943   1.251  11.840 -0.2505  0.0230  0.1246
 3689W        W20537   5.201   4.386   4.289 -0.2137 -0.2116 -0.0572
 3690W        W20538   6.264  16.236   0.313  0.3384 -0.0829  0.2361
 3691W        W20539  17.456  17.380  11.702 -0.0216 -0.1802 -0.1044
 3692W        W20540   2.702  13.432   2.844  0.0806 -0.1321 -0.2142
 3693W        W20541   3.221   1.195   4.367 -0.1768  0.0763  0.0014
 3694W        W20542  17.560  11.306   3.079  0.0207 -0.2102 -0.1195
 3695W        W20543  17.454   5.590   2.186 -0.0418 -0.2879 -0.1064
 3696W        W20544   9.432   1.380  12.683 -0.0102 -0.1994  0.0380
 3697W        W20545  15.906   8.036  14.785 -0.2807  0.0482  0.2365
 3698W        W20546   1.378   5.443   3.666 -0.0830 -0.5532  0.1301
 3699W        W20547   5.872   7.849   3.744 -0.4077  0.0345  0.0473
 3700W        W20548   8.339   4.699  12.109  0.0306 -0.1267  0.1138
 3701W        W20549  14.652  15.978  13.323  0.1073 -0.0776 -0.0184
 3702W        W20550   4.182   0.086   1.194 -0.0963 -0.1558 -0.0218
 3703W        W20551   6.279  14.699  16.512 -0.2570  0.1880 -0.1635
 3704W        W20552  12.545  15.921   5.927 -0.0442 -0.1517  0.2115
 3705W        W20553  13.929  16.362  15.344  0.1503 -0.0025  0.1004
 3706W        W20554  11.163   9.750   3.822  0.0836 -0.0776  0.1254
 3707W        W20555   4.012  16.822  13.740 -0.1938 -0.1418 -0.0875
 3708W        W20556   1.119  17.853  13.406  0.0303 -0.1148 -0.1141
 3709W        W20557  14.763   3.167  16.278 -0.0307 -0.4378 -0.0780
 3710W        W20558   2.996   0.639   3.867 -0.0985  0.1574 -0.1813
 3711W        W20559  13.336   8.884  13.598  0.2432  0.0930 -0.3818
 3712W        W20560  11.442   9.001   2.110 -0.1267  0.4662 -0.0257
 3713W        W20561  13.551   1.504   2.756 -0.0737 -0.0014  0.0004
 3714W        W20562   2.296   5.682   2.566  0.1610 -0.2478  0.4185
 3715W        W20563   5.016   0.979   2.746  0.1485 -0.6218  0.0670
 3716W        W20564  15.653   9.936   4.552 -0.3515  0.0078 -0.0282
 3717W        W20565   3.196   2.413  16.586  0.0181 -0.0170  0.3411
 3718W        W20566   4.737   5.402  12.637 -0.0381 -0.0965 -0.2235
 3719W        W20567   3.369  12.345   3.182 -0.0016 -0.0286 -0.2019
 3720W        W20568   6.992  17.185  15.064 -0.0116 -0.1016  0.0691
 3721W        W20569   1.578  14.260   4.220 -0.3746 -0.2357 -0.0960
 3722W        W20570  13.278   1.682  13.711  0.7118 -0.2605 -0.4671
 3723W        W20571   3.600   5.557   0.288 -0.3082 -0.2086  0.0847
 3724W        W20572   7.080   0.232  16.149 -0.2215 -0.1713 -0.0015
 3725W        W20573   8.605  10.809  15.906 -0.0528  0.1332 -0.5193
 3726W        W20574   0.325  14.580  12.360 -0.1962  0.1504 -0.3235
 3727W        W20575  13.807  12.770  13.453  0.1422 -0.1041 -0.1357
 3728W        W20576   1.418  16.966  13.308  0.0329 -0.1109  0.1902
 3729W        W20577   1.459  16.752   5.376  0.0934 -0.2894 -0.1125
 3730W        W20578   4.825  10.724  12.261 -0.1853  0.1206 -0.0279
 3731W        W20579  15.469   8.186   0.254 -0.1004  0.1141 -0.1661
 3732W        W20580  15.963  12.108   3.079 -0.2014 -0.3605  0.1248
 3733W        W20581   0.732   8.303  14.343 -0.4281  0.0611 -0.1271
 3734W        W20582  14.714   1.973   1.449  0.2057 -0.0890  0.1767
 3735W        W20583  11.671  11.726  13.889  0.0303 -0.0857 -0.2904
 3736W        W20584  10.286   5.332  13.474 -0.1925  0.1692  0.1602
 3737W        W20585   0.077   5.164   3.363 -0.0237 -0.4314 -0.0616
 3738W        W20586  17.612   2.358   4.783 -0.0983 -0.0021  0.4932
 3739W        W20587  13.720  10.152   1.898  0.1594 -0.3692  0.0378
 3740W        W20588   0.707  15.911   0.783 -0.0642 -0.3300 -0.1364
 3741W        W20589  14.546  12.682  16.039 -0.0051  0.0271 -0.1076
 3742W        W20590  17.027   1.042   3.975  0.0441 -0.0465  0.2791
 3743W        W20591   6.259  11.097   0.764  0.2291 -0.0149  0.0483
 3744W        W20592  14.580   7.813   0.466 -0.3050 -0.2853  0.1835
 3745W        W20593  12.670   7.561   0.219 -0.1117  0.2687 -0.3659
 3746W        W20594  15.374  10.816  14.714 -0.1646  0.0063  0.0769
 3747W        W20595  12.763   4.581  13.009  0.0849 -0.1448  0.0156
 3748W        W20596   9.387  11.505   2.794  0.2472 -0.2390 -0.2303
 3749W        W20597  15.171   2.467  16.562  0.0900 -0.0205 -0.3247
 3750W        W20598   3.919   8.364  12.760  0.2652  0.1065 -0.0842
 3751W        W20599   1.786   4.988   2.128 -0.1734 -0.0539 -0.0822
 3752W        W20600  14.082  15.418   0.028 -0.4061 -0.1746  0.1883
 3753W        W20601  12.197   1.937   1.737  0.2050 -0.2814  0.2090
 3754W        W20602   6.914  10.759  15.939 -0.0162 -0.0025 -0.0094
 3755W        W20603   7.996  17.697   0.475 -0.1012 -0.0936 -0.0524
 3756W        W20604   3.608   4.467   1.501  0.1777  0.0060  0.0096
 3757W        W20605  16.538   1.856  15.111 -0.5058 -0.1412 -0.1355
 3758W        W20606   1.132   1.989   1.410  0.3972 -0.2409 -0.0018
 3759W        W20607   1.438   4.587  13.634  0.3188 -0.2170 -0.0612
 3760W        W20608   5.056   3.956   5.522 -0.2081 -0.1898 -0.3053
 3761W        W20609  17.698   8.188  11.587  0.1758  0.4593 -0.0507
 3762W        W20610  15.525   5.002   5.070  0.2176  0.2950  0.1577
 3763W        W20611  15.083   2.919   2.390  0.3338  0.1694 -0.2483
 3764W        W20612  10.696   5.893   4.589 -0.1660 -0.0353  0.1679
 3765W        W20613   7.000   0.428   5.021  0.1694 -0.1834 -0.1613
 3766W        W20614   0.448  14.002  13.627  0.2491 -0.2189  0.1851
 3767W        W20615   5.520   5.826   3.084 -0.2423  0.0947 -0.1698
 3768W        W20616  14.399   3.272   3.821  0.2281  0.2378  0.0423
 3769W        W20617   6.384  12.377   3.283 -0.1395  0.2911  0.0052
 3770W        W20618   6.639  17.162  12.715  0.0110 -0.1037  0.0442
 3771W        W20619   9.669  11.472   1.945  0.0355 -0.1880  0.1224
 3772W        W20620   2.135   7.180   3.613 -0.1280 -0.1625 -0.0552
 3773W        W20621   4.666  16.474  12.626  0.0200  0.2762 -0.1350
 3774W        W20622  11.616  15.916   0.947 -0.4732 -0.1463 -0.1757
 3775W        W20623   0.680   3.202   2.426 -0.0951  0.1483 -0.0932
 3776W        W20624  10.489   3.719   5.252 -0.0057 -0.2055  0.2700
 3777W        W20625   2.496  10.135  10.596 -0.1015  0.1021  0.3121
 3778W        W20626  14.746   4.226   4.853 -0.1721  0.1095  0.0271
 3779W        W20627   3.642  16.861   4.557  0.0065 -0.2854 -0.2993
 3780W        W20628  12.575   0.077   5.284 -0.1493  0.1505 -0.0564
 3781W        W20629  13.421   6.727  14.656 -0.0287 -0.0954  0.2375
 3782W        W20630  16.663   6.578  13.200 -0.0695 -0.2891 -0.1293
 3783W        W20631  17.850   8.888  12.513 -0.4107  0.0644  0.1282
 3784W        W20632  14.158   1.896   4.519  0.0864 -0.4719  0.1491
 3785W        W20633   2.795  10.188   0.931  0.0405  0.0315  0.2706
 3786W        W20634   2.718  10.282  14.251  0.2208 -0.1704 -0.0844
 3787W        W20635  13.120  13.495   2.455  0.1077  0.1216  0.0588
 3788W        W20636   8.008   7.948  14.400  0.1137  0.0448 -0.1680
 3789W        W20637   5.543  11.607  13.787  0.0554  0.2843  0.0618
 3790W        W20638  12.024  12.890  15.201  0.0778  0.0890 -0.3338
 3791W        W20639   7.228   1.125   4.714  0.0609 -0.0189 -0.3630
 3792W        W20640   9.774  14.202   1.429 -0.2097  0.0285  0.2919
 3793W        W20641   6.496  13.559  13.557  0.0246 -0.4463  0.2371
 3794W        W20642  14.528   9.877   0.995  0.1438  0.0218  0.0408
 3795W        W20643   4.804   3.553  15.581 -0.4410  0.5454 -0.0691
 3796W        W20644  10.409  17.725  11.330 -0.1564 -0.1005 -0.0439
 3797W        W20645  14.018   5.152  15.839 -0.0387  0.2347  0.2382
 3798W        W20646  13.507   9.983   0.419  0.0459  0.0865  0.1575
 3799W        W20647   6.607   1.143   1.066  0.2371 -0.0293  0.0128
 3800W        W20648   2.211   9.616   3.939 -0.1046 -0.0293 -0.1926
 3801W        W20649  12.871   8.729  13.500 -0.1892  0.1193  0.0771
 3802W        W20650   4.532  11.443  14.612 -0.2072 -0.3260  0.0087
 3803W        W20651  14.643  12.420  15.020  0.0741  0.1850 -0.1675
 3804W        W20652   9.096   9.378   4.513  0.0055  0.1250 -0.2509
 3805W        W20653   4.368  12.189   0.649  0.0232 -0.2202 -0.0321
 3806W        W20654   8.813  12.765  15.723  0.0872  0.1388  0.1270
 3807W        W20655   9.728   3.951   0.909  0.0193 -0.1829  0.2178
 3808W        W20656  15.544  10.677  14.123  0.1187 -0.1052  0.0536
 3809W        W20657  12.272  15.790   2.286  0.1563  0.0791 -0.0136
 3810W        W20658  11.813  10.785   5.309 -0.3529  0.0873 -0.3854
 3811W        W20659  15.567  14.509  15.231 -0.1907 -0.0215  0.0967
 3812W        W20660  10.793  14.537   5.789 -0.0132  0.0942 -0.0586
 3813W        W20661   7.994  12.090  12.642  0.2634  0.0550  0.2662
 3814W        W20662   1.857  11.092  15.588  0.0370 -0.0959  0.0544
 3815W        W20663  16.833   3.438  10.990 -0.0797  0.3028 -0.0454
 3816W        W20664   1.379   2.439  11.842 -0.0722 -0.0373  0.0773
 3817W        W20665  13.954   2.881   2.760  0.1184 -0.0414 -0.0623
 3818W        W20666  15.543   8.843  12.788 -0.1050 -0.1687  0.3248
 3819W        W20667   5.445  15.445   3.334 -0.0488  0.1859 -0.1210
 3820W        W20668   9.432  13.945   5.428  0.1588  0.1226 -0.0163
 3821W        W20669  15.460   2.995  12.506  0.2385  0.3892  0.1449
 3822W        W20670   6.114  13.702   2.996  0.1484 -0.1804 -0.0684
 3823W        W20671  11.301   6.331  14.894  0.0134  0.2577 -0.5155
 3824W        W20672   4.328  10.781  12.127 -0.1613  0.0543  0.0504
 3825W        W20673   2.247   8.659  13.376  0.2399 -0.1050 -0.2681
 3826W        W20674   1.993   4.089   5.428  0.1818 -0.0497 -0.0134
 3827W        W20675  14.251   2.143  13.956  0.3266  0.1243 -0.0696
 3828W        W20676   2.464   9.939   2.726 -0.1815  0.3842 -0.0329
 3829W        W20677   7.809   1.216  13.625 -0.2293  0.2246 -0.2085
 3830W        W20678  13.958   7.921   2.193  0.2597  0.0743  0.1982
 3831W        W20679   8.666  13.604  11.230 -0.0683 -0.0510 -0.3826
 3832W        W20680   5.594   9.443   3.098  0.0128 -0.0782 -0.2941
 3833W        W20681   1.583  16.172   1.835  0.1304 -0.1064  0.0501
 3834W        W20682  12.939  17.277  13.790  0.0177  0.0101 -0.2987
 3835W        W20683  17.265  13.640  16.480 -0.0493  0.1702  0.0971
 3836W        W20684   8.878   5.717   2.271  0.0749  0.0291 -0.2280
 3837W        W20685  16.178   2.551   1.743  0.3197 -0.0201 -0.1692
 3838W        W20686   5.247  14.046   2.910  0.2290 -0.1820  0.0647
 3839W        W20687  12.716   5.434   4.216  0.4149 -0.2017  0.1358
 3840W        W20688  14.481   7.728   1.618  0.0344 -0.1386  0.0509
 3841W        W20689  13.362   0.154  12.803  0.1947 -0.0731 -0.0563
 3842W        W20690   4.073   7.892  15.504 -0.1162  0.3866  0.2270
 3843W        W20691   0.816   8.700  14.809  0.2724 -0.4071 -0.0914
 3844W        W20692   4.253   5.241   5.783 -0.1633 -0.2344  0.1878
 3845W        W20693   2.793  16.316   0.347 -0.1523 -0.0401  0.0893
 3846W        W20694   3.133  16.219   5.216 -0.0217 -0.3594  0.0830
 3847W        W20695  10.765  17.852   3.581  0.0069 -0.1753 -0.0924
 3848W        W20696   4.652  16.297  13.660 -0.0006 -0.2838 -0.0646
 3849W        W20697   6.359  12.150  12.254  0.1199  0.1319 -0.1122
 3850W        W20698   2.029   7.961  13.880  0.1247 -0.2066 -0.2178
 3851W        W20699  17.169   1.997  14.061  0.2064  0.0340  0.1791
 3852W        W20700  13.102   5.809  14.718  0.1352 -0.3538  0.0422
 3853W        W20701   8.789   0.009  12.839  0.2320  0.3606 -0.0407
 3854W        W20702   1.033  15.401   4.799  0.0132  0.0124 -0.0890
 3855W        W20703  16.064  17.170   2.562  0.3872 -0.0108 -0.1039
 3856W        W20704   1.460   8.915   1.784  0.0200 -0.0072  0.0532
 3857W        W20705  16.525  17.191   3.426 -0.2164  0.1548 -0.0031
 3858W        W20706  11.278   4.694  13.368  0.3708  0.1672  0.2557
 3859W        W20707  17.405  16.718  11.521 -0.2880 -0.0677 -0.0240
 3860W        W20708   5.570   6.992  11.908  0.0696 -0.3052 -0.2170
 3861W        W20709   5.287  10.792  15.973  0.0183 -0.1130 -0.0404
 3862W        W20710   7.131   2.244   5.350 -0.0363  0.1318 -0.0214
 3863W        W20711  11.075  15.258  11.232 -0.0071 -0.0432 -0.1384
 3864W        W20712  10.096  15.526  11.538  0.0274  0.6116  0.0094
 3865W        W20713  11.250  17.209   3.193 -0.0402 -0.0195 -0.0350
 3866W        W20714   0.452  17.222  12.291 -0.1908 -0.0690 -0.0134
 3867W        W20715   3.010  13.694   5.005  0.0575  0.1961 -0.2359
 3868W        W20716   4.544   9.622  15.969  0.1150  0.3556  0.0554
 3869W        W20717  14.815  10.013   3.798  0.0223  0.1384  0.0540
 3870W        W20718  10.746   6.927   6.053  0.0768  0.2055  0.0772
 3871W        W20719  10.122   4.757  14.357  0.0138  0.0694 -0.3639
 3872W        W20720   0.728   5.361  15.821 -0.0742  0.0589 -0.1818
 3873W        W20721  14.825  12.195  12.301 -0.2075 -0.1559  0.0155
 3874W        W20722  13.537   7.566  12.789  0.2373  0.1100  0.1709
 3875W        W20723   2.039   1.744   0.428 -0.1765 -0.1039  0.0211
 3876W        W20724  10.039  16.873  14.664 -0.0896  0.0797  0.0355
 3877W        W20725   3.512  16.571  15.875  0.0865  0.0207  0.1295
 3878W        W20726   4.864  10.046  12.694 -0.4050  0.1180  0.0702
 3879W        W20727   0.189   3.435  11.629 -0.0053 -0.0860 -0.2434
 3880W        W20728   0.735   4.017   4.142 -0.2823  0.0584  0.1429
 3881W        W20729  11.482  14.643   4.129 -0.0274  0.2909 -0.1701
 3882W        W20730  12.930   2.629   2.711 -0.0524 -0.0489 -0.0889
 3883W        W20731   4.500  10.606  13.882 -0.0037 -0.0065 -0.2092
 3884W        W20732   9.247   7.578   2.229 -0.2605  0.2367  0.3762
 3885W        W20733  10.474   2.064   4.026 -0.0782  0.3379 -0.0667
 3886W        W20734  13.451   2.804   2.727 -0.3027 -0.0909  0.3468
 3887W        W20735  17.455   8.116   5.139 -0.1899  0.5135 -0.3779
 3888W        W20736   9.631   7.953   3.433 -0.0277  0.0011 -0.2986
 3889W        W20737   5.140   8.104   0.974 -0.0469  0.1523  0.3050
 3890W        W20738  14.195   6.625   4.019  0.2916 -0.3970 -0.1018
 3891W        W20739  15.297  15.789   0.179  0.0394  0.1506 -0.2247
 3892W        W20740  10.420  17.581   3.831  0.2434 -0.0376  0.1507
 3893W        W20741  13.864   9.793  16.109 -0.0387 -0.0664 -0.1098
 3894W        W20742   2.070   1.698  15.940 -0.3148  0.0810  0.1970
 3895W        W20743   2.811   2.540   5.623  0.0130 -0.0756 -0.0031
 3896W        W20744  15.229   8.482   0.660  0.3659 -0.1281 -0.6000
 3897W        W20745   4.846  11.520   4.121  0.4964  0.0207  0.2204
 3898W        W20746  14.030   7.975   3.911  0.0119 -0.0408 -0.0655
 3899W        W20747   6.442   8.035   2.823  0.2584  0.1055  0.0275
 3900W        W20748   7.110   8.146  14.764 -0.1525  0.0943  0.3722
 3901W        W20749  17.018  11.126   2.733 -0.1517 -0.2310 -0.1418
 3902W        W20750   5.764  15.240  15.093  0.0935 -0.2837 -0.0051
 3903W        W20751   1.615   3.639   2.114  0.2139 -0.0853  0.2542
 3904W        W20752  11.259   9.253  15.039  0.2124 -0.0969 -0.2261
 3905W        W20753  16.646  10.376   2.443 -0.2962 -0.1348  0.1185
 3906W        W20754  10.421  12.883   3.630  0.0055 -0.1356 -0.2582
 3907W        W20755   6.437   0.248   3.036  0.1932 -0.0252 -0.1227
 3908W        W20756   4.945   9.394  13.301 -0.1965  0.0212  0.0765
 3909W        W20757  11.497   7.609  13.638  0.1037  0.1002  0.1895
 3910W        W20758   7.898  11.936  13.585 -0.0316 -0.0056 -0.1712
 3911W        W20759   4.833  17.748   0.729 -0.1105 -0.0911 -0.1877
 3912W        W20760  12.211   1.663  11.294 -0.0096  0.1669 -0.0500
 3913W        W20761   9.468  16.088   3.253 -0.0567 -0.1751 -0.0563
 3914W        W20762  14.936  11.568  15.149  0.1648  0.1039  0.2197
 3915W        W20763  10.517   4.944  12.390  0.0623  0.0275 -0.0534
 3916W        W20764   1.202  13.083  12.683  0.2773  0.2610 -0.0233
 3917W        W20765   9.387   6.081   3.648  0.0090  0.3052 -0.1135
 3918W        W20766  16.918   4.172  14.327  0.0415  0.1862  0.0544
 3919W        W20767   1.240   7.279   3.105 -0.2277  0.0748  0.0215
 3920W        W20768  14.586  10.849  13.271 -0.0107 -0.1201  0.0028
 3921W        W20769   7.065  14.692  12.992 -0.4001 -0.2080 -0.0049
 3922W        W20770   8.682  11.853   1.552  0.0307  0.3184  0.1015
 3923W        W20771   8.989   2.161   1.159 -0.1758  0.1244 -0.1683
 3924W        W20772   1.904   7.662  12.985  0.0925 -0.0916 -0.0043
 3925W        W20773   1.602   9.140   1.373 -0.1653 -0.1992  0.2630
 3926W        W20774   9.826  11.945  11.508  0.1702 -0.0216 -0.0740
 3927W        W20775  11.601  13.554   1.922  0.2937 -0.0397 -0.1109
 3928W        W20776   3.703   4.095   4.953 -0.0150 -0.1282 -0.3820
 3929W        W20777  12.241   3.365  16.412  0.0679 -0.0066  0.2884
 3930W        W20778   3.350   9.315  13.064  0.2343  0.1769 -0.0528
 3931W        W20779   0.245  12.200  16.122  0.1000  0.0334 -0.1557
 3932W        W20780   2.736   0.002   0.071 -0.2243  0.0609 -0.0920
 3933W        W20781   8.340   7.608   3.355  0.0259 -0.1800 -0.1363
 3934W        W20782   4.283  15.157   2.001  0.0743  0.0982  0.1868
 3935W        W20783   4.260  14.060  11.465  0.0939 -0.0349 -0.2875
 3936W        W20784   0.083   6.572  13.734 -0.2482  0.0070 -0.0021
 3937W        W20785  10.344  10.570   3.158 -0.2903 -0.0016 -0.0152
 3938W        W20786  12.608  13.196   0.739 -0.0969 -0.1973  0.1316
 3939W        W20787   2.233  13.347  14.141  0.1719 -0.1216 -0.0798
 3940W        W20788  11.786   1.144   5.022 -0.1457 -0.2771  0.2171
 3941W        W20789   8.133  14.369   1.303  0.0379  0.3795 -0.4354
 3942W        W20790  12.990   6.947   4.675 -0.1699 -0.1613  0.2779
 3943W        W20791   4.271   4.663  11.965  0.0453 -0.0517 -0.0522
 3944W        W20792  11.603  17.444  15.104  0.1013  0.3182 -0.2904
 3945W        W20793  11.845   5.883   2.442  0.3733 -0.1529  0.1589
 3946W        W20794  15.505   2.224   6.343 -0.4287  0.1646 -0.4633
 3947W        W20795  10.124  12.761  13.871 -0.0334 -0.0730  0.0505
 3948W        W20796   6.653  13.073  11.412  0.0831  0.0609 -0.1078
 3949W        W20797  14.965   5.131  12.111  0.1657  0.0790  0.2429
 3950W        W20798  14.320  14.343  16.553 -0.2465  0.0398 -0.1080
 3951W        W20799   2.460  12.629   3.028 -0.1171 -0.1677 -0.1962
 3952W        W20800   3.577   6.091   2.610  0.0122 -0.2378 -0.3084
 3953W        W20801   5.770   7.663   1.646  0.1442 -0.1590 -0.1118
 3954W        W20802  12.508   2.592  14.314 -0.2604 -0.2428  0.2109
 3955W        W20803   1.936  15.126  14.369  0.1970  0.4372 -0.3571
 3956W        W20804  10.116  17.596   6.237 -0.1391  0.1720 -0.1624
 3957W        W20805   4.487   4.393  14.660 -0.2237 -0.2974  0.0820
 3958W        W20806  15.937   9.413  16.085  0.0014 -0.0347 -0.1534
 3959W        W20807   0.500  12.631   2.320  0.0611 -0.0624 -0.2804
 3960W        W20808   4.384   5.785  15.916  0.0524 -0.1318 -0.1036
 3961W        W20809   5.567   9.273   0.652  0.0983  0.0816 -0.2595
 3962W        W20810  14.191   2.295  14.434 -0.1066  0.0690  0.4183
 3963W        W20811   6.885   4.009  12.461 -0.0197 -0.0156 -0.4003
 3964W        W20812   4.280   2.984   4.771  0.1617 -0.0484  0.0589
 3965W        W20813   6.870   8.789   2.872 -0.4153 -0.3034  0.1055
 3966W        W20814  16.434  13.922  12.477  0.0220 -0.0365  0.0218
 3967W        W20815   1.732   4.719  13.206  0.0373  0.2070  0.1059
 3968W        W20816  10.571  16.853   4.427 -0.0012  0.0800 -0.0796
 3969W        W20817   2.819  16.914  12.276  0.2065  0.0341 -0.1678
 3970W        W20818   1.833  11.006   2.971 -0.1216 -0.1019 -0.0037
 3971W        W20819   3.621   2.854  11.259  0.2195 -0.0051  0.1725
 3972W        W20820   1.875   4.106   3.545 -0.2672 -0.0210 -0.1723
 3973W        W20821   3.110   7.522  15.131  0.0562  0.0715  0.1706
 3974W        W20822   1.164  14.973   0.167 -0.0686  0.2445 -0.2688
 3975W        W20823  16.399   7.825   1.202 -0.0983  0.1302 -0.1090
 3976W        W20824   7.427   6.514   2.451 -0.0633 -0.1259  0.0297
 3977W        W20825   7.335   1.824  14.318 -0.0666  0.0977  0.0644
 3978W        W20826   4.416   6.223   4.441  0.4430  0.0139  0.0146
 3979W        W20827  13.260  11.949   1.741  0.0307  0.2620  0.2586
 3980W        W20828   4.192   0.679  13.686  0.0965 -0.3513 -0.1304
 3981W        W20829   0.319   7.965  15.434 -0.2324 -0.1438 -0.2118
 3982W        W20830  17.227   2.980  12.857 -0.1860  0.0406  0.1303
 3983W        W20831   8.452   2.713   2.448  0.0826 -0.2583 -0.2833
 3984W        W20832   7.218   6.477   3.806 -0.1732 -0.2220 -0.1190
 3985W        W20833  13.034   5.061   0.967 -0.2419 -0.1280 -0.1552
 3986W        W20834  15.039  14.953   3.762  0.1722  0.2102  0.1411
 3987W        W20835  11.516  16.061  15.580  0.0939  0.2429 -0.2487
 3988W        W20836   2.985  14.533   0.826 -0.1932 -0.2474  0.2650
 3989W        W20837   2.881  15.014  12.937 -0.2191 -0.1909  0.1616
 3990W        W20838  10.462   6.321   4.671  0.2830 -0.0166  0.2609
 3991W        W20839   3.811  15.027   2.350 -0.3299  0.0060  0.1991
 3992W        W20840  17.233   9.469  13.548  0.0398 -0.1542  0.2249
 3993W        W20841   7.849   6.710   1.139  0.0429  0.0110 -0.1042
 3994W        W20842  16.328  12.170  13.135  0.1074 -0.2167 -0.1796
 3995W        W20843  12.060   1.476  15.790  0.0188  0.1064  0.3074
 3996W        W20844   9.692   5.694   4.430 -0.2474 -0.0122 -0.1036
 3997W        W20845   7.308   0.920  12.339 -0.0289 -0.0449  0.1012
 3998W        W20846   8.880  13.948   3.317  0.0648 -0.0601  0.4301
 3999W        W20847   2.686   5.316  15.490  0.1045 -0.0668  0.0636
 4000W        W20848  14.364   3.148   4.824  0.3023  0.2718 -0.1253
 4001W        W20849  13.948   6.811  13.623  0.0192 -0.0174 -0.3176
 4002W        W20850  16.554  13.001  16.449  0.1854  0.3465  0.0924
 4003W        W20851  16.099   8.264   2.991 -0.0528  0.1509 -0.1437
 4004W        W20852  12.265  15.613  14.617  0.1942 -0.0812  0.1973
 4005W        W20853   8.065   8.199   1.552  0.1813  0.1021 -0.0101
 4006W        W20854   5.838  14.857  11.522 -0.1632 -0.0791 -0.0920
 4007W        W20855  10.958   7.584   3.106 -0.0135  0.3030 -0.1800
 4008W        W20856   8.285  15.038   2.521 -0.1207 -0.3807  0.1654
 4009W        W20857   6.245  14.897   6.300  0.0163  0.0441 -0.0772
 4010W        W20858   9.240  10.264   1.447 -0.2040 -0.2770 -0.0423
 4011W        W20859   8.559   1.439   2.974  0.0818  0.2112 -0.4195
 4012W        W20860  10.534  11.276   1.651  0.1047  0.0214  0.1016
 4013W        W20861  13.771  12.312  14.549  0.2274 -0.0890 -0.0340
 4014W        W20862   9.039  15.401   3.994  0.0244  0.0555 -0.1001
 4015W        W20863   9.542   0.753  13.003 -0.1173  0.2215  0.2282
 4016W        W20864   9.512  14.540  11.292 -0.1547 -0.0840 -0.0564
 4017W        W20865   0.715  12.345  11.884  0.1388 -0.1520 -0.0235
 4018W        W20866   6.625   6.349  13.080  0.2364  0.1607 -0.1762
 4019W        W20867  10.730  13.214  13.546 -0.0252 -0.0267 -0.1041
 4020W        W20868   4.513  14.033  14.879 -0.0373  0.1334  0.0110
 4021W        W20869   8.966   8.767   3.128 -0.0186 -0.0304  0.2022
 4022W        W20870   3.812   2.506   3.973  0.1835 -0.1208 -0.1242
 4023W        W20871   4.118   8.924  15.589  0.1551 -0.0255  0.1913
 4024W        W20872  11.829  13.774   0.573 -0.0647  0.2170  0.0229
 4025W        W20873   9.445  10.259   2.366 -0.0621  0.3262 -0.0272
 4026W        W20874   1.080   4.375  16.187 -0.3240 -0.2972 -0.1873
 4027W        W20875   8.018   9.488  15.426  0.0848  0.1277 -0.2046
 4028W        W20876   2.561   1.131   2.757 -0.2112 -0.0574  0.0334
 4029W        W20877   9.655   4.229  14.662  0.1774  0.3433  0.2046
 4030W        W20878  14.298  16.961  13.683  0.0462 -0.1381  0.0710
 4031W        W20879  17.401  12.702   4.079 -0.2587  0.2207  0.2238
 4032W        W20880   4.954  15.298  11.652 -0.0357 -0.3091  0.0070
 4033W        W20881  12.952   9.480  12.011 -0.1769  0.0462 -0.0120
 4034W        W20882  10.474   3.652  14.742 -0.0115  0.2638 -0.0927
 4035W        W20883   3.451   6.901  12.989  0.1289  0.1267 -0.3620
 4036W        W20884   9.550  13.566   3.551  0.1868  0.0138  0.1087
 4037W        W20885  14.555  11.824  12.146  0.1235  0.1853 -0.0012
 4038W        W20886   5.887  10.715   3.697  0.4763  0.1817  0.0001
 4039W        W20887  12.049   6.699  11.663 -0.3571  0.0905  0.4138
 4040W        W20888   5.018   6.906   5.735  0.1283 -0.1891  0.1880
 4041W        W20889  10.190  10.269  13.365 -0.3124  0.2542 -0.0970
 4042W        W20890   3.231   2.612   2.556  0.0823  0.3128  0.1548
 4043W        W20891   5.794   7.710  12.585 -0.1997 -0.1423  0.1932
 4044W        W20892   6.246  17.161  11.645 -0.1603  0.2574  0.0095
 4045W        W20893   0.124   3.467  16.029 -0.1468  0.2557 -0.0573
 4046W        W20894   9.707   3.735  11.718  0.0853  0.1025  0.0894
 4047W        W20895  14.556  12.123  11.679 -0.3079  0.0208 -0.2241
 4048W        W20896   4.286  11.276  15.060  0.0624 -0.4761  0.0812
 4049W        W20897   3.536   6.117   3.191  0.3362 -0.0318 -0.0322
 4050W        W20898   3.671   0.185   0.343 -0.0650  0.1916 -0.1561
 4051W        W20899  16.026  12.430   0.597  0.3246  0.3711  0.1537
 4052W        W20900   0.784  12.101   2.910 -0.0718  0.0799  0.0913
 4053W        W20901  11.960   0.229   1.917  0.1204  0.2930  0.1372
 4054W        W20902  10.957  11.888  16.327 -0.0952  0.0721  0.1046
 4055W        W20903  16.154   1.372   1.973  0.1580  0.1422 -0.2959
 4056W        W20904   1.708  15.666   3.642 -0.0976 -0.0005 -0.2384
 4057W        W20905   5.697   0.857   5.213 -0.2210  0.2733  0.0255
 4058W        W20906   7.077   5.982  12.403  0.2027 -0.0773  0.2580
 4059W        W20907   6.943  16.958   5.329  0.0242 -0.0625  0.2359
 4060W        W20908   3.050   9.969   1.729 -0.0153 -0.1579  0.1055
 4061W        W20909   2.168   2.593  15.309 -0.2661 -0.1529 -0.0496
 4062W        W20910  14.858   2.008  15.582  0.1520  0.0303  0.2056
 4063W        W20911  17.854  17.033  11.563 -0.2710 -0.0505  0.0637
 4064W        W20912   0.218   1.628   4.111 -0.0252 -0.0665  0.1361
 4065W        W20913   5.391   8.872   4.175  0.0907  0.0721 -0.0124
 4066W        W20914   4.459   5.861   0.879  0.0611 -0.0927 -0.0639
 4067W        W20915   3.069   4.569  15.653  0.2570 -0.0140  0.5775
 4068W        W20916   8.945   5.883   0.244  0.1270  0.1619  0.0221
 4069W        W20917   8.830  15.756   2.546  0.1614  0.2223 -0.1385
 4070W        W20918   4.368  11.085   3.616  0.0362  0.1384 -0.0098
 4071W        W20919  17.325  15.666   0.926 -0.4996  0.0523  0.2418
 4072W        W20920  13.012   4.131  14.428 -0.1926 -0.1740 -0.1437
 4073W        W20921   3.586  14.927   2.802  0.3068  0.0360 -0.2310
 4074W        W20922  11.970  17.433   3.354 -0.1340 -0.0039  0.3375
 4075W        W20923   4.547   2.138   3.013 -0.1257  0.4213 -0.0001
 4076W        W20924  12.534   3.602   1.479  0.2534 -0.1495  0.1911
 4077W        W20925   0.202  11.672  16.263 -0.1729 -0.0940 -0.3615
 4078W        W20926  17.134  13.711  13.772  0.2831 -0.0636 -0.1933
 4079W        W20927  13.268   1.842   1.201 -0.3012  0.3438  0.0472
 4080W        W20928  14.271   4.591  12.899 -0.1732 -0.1358 -0.1373
 4081W        W20929   9.251  15.270  15.654 -0.1233  0.0698 -0.1298
 4082W        W20930  17.340   2.232   0.391 -0.2267 -0.0509  0.1430
 4083W        W20931   2.655   6.808   5.307 -0.1586 -0.0024 -0.0254
 4084W        W20932   4.143   8.415  16.205 -0.4422  0.0396 -0.1667
 4085W        W20933   6.348  13.930   3.456 -0.1996 -0.2290 -0.1444
 4086W        W20934  17.499  15.660   1.488  0.0983 -0.0454  0.1624
 4087W        W20935  16.640  10.197  16.416 -0.1290  0.0835  0.0454
 4088W        W20936   8.843  15.586  11.067 -0.1279 -0.0740 -0.0492
 4089W        W20937   2.973  12.657   3.880  0.0340 -0.0978 -0.1123
 4090W        W20938  15.908   5.652   0.738  0.0955  0.0415 -0.3404
 4091W        W20939  10.098   0.353  11.234  0.1582 -0.0799 -0.1912
 4092W        W20940   5.577  12.993   4.126 -0.1287  0.0375  0.0189
 4093W        W20941   7.437   7.452   4.972  0.1693 -0.1640  0.0357
 4094W        W20942   4.150   4.979  14.603 -0.4353 -0.0964 -0.1872
 4095W        W20943  14.072  15.979   3.468 -0.1707 -0.1431  0.0396
 4096W        W20944   9.783  17.030   4.863 -0.2489  0.1013 -0.1057
 4097W        W20945  11.829  17.067  15.340  0.1038 -0.3488  0.3609
 4098W        W20946  12.935   7.510  13.991 -0.2210  0.0565  0.0883
 4099W        W20947   7.612   0.986  15.376 -0.2937  0.3775  0.1488
 4100W        W20948  15.312   7.502   3.829  0.1154 -0.3992  0.1376
 4101W        W20949   6.946  17.070  16.131  0.0203 -0.0073 -0.0442
 4102W        W20950  17.218   3.118  16.178  0.3413  0.0730  0.3049
 4103W        W20951  15.483  12.520  12.878 -0.0777 -0.2011  0.1386
 4104W        W20952   8.919   7.278  14.737 -0.0458  0.1999 -0.1693
 4105W        W20953  16.867   7.627   0.879  0.2899  0.0830 -0.0599
 4106W        W20954   7.459   8.043  16.067 -0.1214  0.0768 -0.3942
 4107W        W20955   1.126  11.421  14.887  0.0783 -0.0934  0.2628
 4108W        W20956   9.436  13.928   3.273 -0.0261 -0.0830 -0.0458
 4109W        W20957   8.366   8.742  14.069  0.0160 -0.2525  0.1205
 4110W        W20958   8.460  17.540   0.363 -0.0184 -0.1324  0.2276
 4111W        W20959   0.241   7.110  11.770  0.0344  0.0513 -0.0227
 4112W        W20960   7.706  17.529  13.913  0.0143  0.0523  0.0866
 4113W        W20961  15.348  13.481   3.611 -0.2584  0.2541  0.5975
 4114W        W20962   8.561  15.916   2.982 -0.2522  0.0864  0.1047
 4115W        W20963   4.686   1.363  15.752 -0.0359  0.0697  0.2309
 4116W        W20964   2.866   9.534   5.436 -0.0591 -0.5827  0.1064
 4117W        W20965   4.258  14.545  16.331 -0.0531 -0.0842 -0.0536
 4118W        W20966   0.459  10.184  14.623 -0.0533 -0.3758  0.0907
 4119W        W20967   3.107  12.789  15.629  0.1632 -0.1528 -0.1654
 4120W        W20968  12.954   9.649  12.505  0.0376  0.1610 -0.0580
 4121W        W20969   2.899   9.698   1.223  0.0444 -0.2008  0.4321
 4122W        W20970   1.866   2.758   0.665  0.0954  0.0648 -0.2227
 4123W        W20971  12.415   2.183   5.263  0.0374  0.0050 -0.3503
 4124W        W20972  15.521  14.811  12.134  0.1918 -0.0387 -0.0254
 4125W        W20973  12.092  15.294   4.239 -0.0307 -0.1233  0.0608
 4126W        W20974  15.200   6.562   1.966 -0.2905  0.0989 -0.1528
 4127W        W20975   3.531  12.194   0.256  0.0211 -0.1516 -0.4797
 4128W        W20976   1.160  17.176   0.318 -0.0269 -0.0026 -0.2544
 4129W        W20977  15.000   2.080   4.276 -0.1371  0.0056  0.0764
 4130W        W20978   5.295   9.821  11.984 -0.2059  0.0331  0.1709
 4131W        W20979   2.412   3.762  14.067 -0.0329 -0.1718 -0.3964
 4132W        W20980   8.843   5.055   0.580  0.0353 -0.1578 -0.0660
 4133W        W20981   6.295   1.458  15.064 -0.0503  0.1554 -0.0941
 4134W        W20982   2.571  15.450   4.193  0.0329 -0.2255  0.1994
 4135W        W20983   5.401   0.121   1.655 -0.1231  0.0486 -0.1634
 4136W        W20984   7.556   7.338   1.658 -0.0631  0.0355 -0.1162
 4137W        W20985  16.108   3.318   0.696  0.1453 -0.2269  0.0873
 4138W        W20986   6.800  13.518  13.970  0.1729  0.0861  0.2167
 4139W        W20987  17.702   9.663  13.359 -0.0722  0.2453 -0.0062
 4140W        W20988   0.115  12.145   3.523  0.1742 -0.1558  0.1403
 4141W        W20989  16.513   7.656  16.054 -0.2156  0.1057 -0.1722
 4142W        W20990   2.514  12.180   0.820 -0.2796  0.0149 -0.1405
 4143W        W20991   1.513   9.911   4.919  0.2408  0.2236  0.0874
 4144W        W20992  14.219  15.687  12.105  0.2107  0.3597 -0.3569
 4145W        W20993  14.369   5.654  10.886  0.1272 -0.0341 -0.1705
 4146W        W20994   9.218   2.329   1.718  0.0143  0.2676 -0.0588
 4147W        W20995  16.591  10.342   4.773  0.1689 -0.0001  0.0269
 4148W        W20996   8.201   6.657  15.966  0.1519 -0.1291 -0.0841
 4149W        W20997   5.301  15.104  16.617  0.2538  0.3175 -0.1484
 4150W        W20998   4.618   7.851  12.685 -0.2083 -0.2907  0.1015
 4151W        W20999   9.926  10.197   3.211  0.2187  0.6169 -0.0805
 4152W        W21000   8.096   3.342  11.244 -0.0934 -0.0775 -0.0030
 4153W        W21001   8.805   3.898  14.193 -0.1342 -0.0556  0.1109
 4154W        W21002   8.641  15.320   2.837  0.1466  0.1161 -0.1251
 4155W        W21003  11.547   6.227  11.777 -0.2455  0.0961  0.0241
 4156W        W21004  10.304  14.159   4.227  0.1737  0.1610 -0.2263
 4157W        W21005  13.305   1.332  16.428  0.1906  0.2089 -0.2947
 4158W        W21006   3.507  11.975  15.066  0.1524 -0.2353  0.2149
 4159W        W21007  10.986   0.143   1.545 -0.0760  0.1475  0.1170
 4160W        W21008   1.992  16.217   0.866  0.1550  0.2002 -0.0493
 4161W        W21009   1.021   6.753  16.593  0.5173 -0.1487 -0.0577
 4162W        W21010  10.356  16.865  12.702  0.1977  0.0004  0.1286
 4163W        W21011   8.279   2.332  11.833  0.1445  0.1110 -0.2992
 4164W        W21012  13.319   7.416  11.025 -0.1505 -0.2766  0.0721
 4165W        W21013   4.611   6.937  16.045 -0.4522  0.2209  0.2157
 4166W        W21014  13.176  17.030   0.829  0.0805 -0.0077 -0.2897
 4167W        W21015   7.877   9.250   2.660  0.0328 -0.0977  0.0520
 4168W        W21016  13.385  10.600   0.741  0.3599 -0.0095  0.0414
 4169W        W21017  13.369   6.283  13.846  0.0014 -0.3743  0.0057
 4170W        W21018  11.692   7.285  12.508 -0.1860  0.3550 -0.2201
 4171W        W21019  15.396   9.983   5.315 -0.0678 -0.1922 -0.0771
 4172W        W21020   8.397  17.088   2.641  0.1180  0.0617 -0.4041
 4173W        W21021   9.785  13.432   1.673  0.1397 -0.2480 -0.0369
 4174W        W21022   6.580   2.650   4.013  0.0174  0.1144 -0.0270
 4175W        W21023   3.316   9.010   3.934 -0.2534  0.2380 -0.0340
 4176W        W21024   1.758  12.457   4.811  0.0158 -0.0341 -0.0361
 4177W        W21025   5.689  14.817   2.114  0.0795 -0.0913  0.1125
 4178W        W21026   8.702   7.382   3.615  0.2173 -0.2384 -0.1646
 4179W        W21027   9.137   3.036  15.210  0.3409  0.0955 -0.1187
 4180W        W21028  15.480  15.900  12.856 -0.0996  0.0398  0.0515
 4181W        W21029   4.767  17.058   2.398 -0.1152 -0.1524 -0.0111
 4182W        W21030   4.746  12.233  16.424 -0.3149  0.1364 -0.0597
 4183W        W21031   2.508   0.998   4.929 -0.0969  0.0526 -0.0438
 4184W        W21032  13.533  17.488   4.134 -0.0031  0.0565 -0.1572
 4185W        W21033   4.736   7.067  14.285  0.3228 -0.0310 -0.0270
 4186W        W21034   9.351   0.113  14.760  0.1518  0.0576 -0.0367
 4187W        W21035  11.752  15.229  14.676 -0.0625  0.0074 -0.3125
 4188W        W21036   0.857   8.560   3.451 -0.1131 -0.1461  0.0037
 4189W        W21037  17.572  17.750   0.555  0.0817 -0.2335 -0.1221
 4190W        W21038  13.056  10.671  12.516  0.1293 -0.1446  0.1574
 4191W        W21039  12.767   0.116  13.579  0.1158 -0.3276  0.1430
 4192W        W21040  14.738   8.257   0.630  0.1615 -0.0700  0.1436
 4193W        W21041  11.600  11.378   4.181 -0.1216  0.1140  0.1257
 4194W        W21042   3.439   2.871   0.712 -0.2102  0.1350  0.0626
 4195W        W21043  16.903  16.278   2.429 -0.1630  0.3714 -0.1266
 4196W        W21044   6.002  17.781  14.787 -0.1158 -0.1572 -0.0282
 4197W        W21045  13.209  14.310   4.140  0.0905  0.0732 -0.0739
 4198W        W21046   2.801   2.444   2.804  0.3349  0.0480 -0.0442
 4199W        W21047  13.884  10.446   3.019 -0.0478 -0.1380 -0.0922
 4200W        W21048  12.705   1.739   3.822 -0.0210  0.0862  0.1746
 4201W        W21049  15.086  12.221   5.777  0.0115 -0.0933 -0.2031
 4202W        W21050  16.490  13.672  10.890  0.0056  0.1530 -0.0657
 4203W        W21051  14.043   9.552  15.685 -0.1918 -0.1413 -0.0518
 4204W        W21052  12.066   9.661  12.390  0.1246  0.0533  0.0794
 4205W        W21053  11.366  12.134  16.598 -0.0496 -0.3864 -0.0154
 4206W        W21054  17.311   2.746   4.438 -0.1726 -0.0012 -0.1165
 4207W        W21055  17.736   1.640  11.909 -0.1377  0.2582  0.0077
 4208W        W21056   6.378  10.270   0.742  0.1689 -0.2488  0.0795
 4209W        W21057   5.953  12.765   4.566 -0.3309  0.1991  0.1894
 4210W        W21058   2.167   5.268  15.660 -0.2773 -0.1566 -0.1399
 4211W        W21059   2.849   1.439   2.494  0.0765  0.2021  0.0935
 4212W        W21060   4.289   3.678  15.808 -0.2168 -0.0032 -0.0307
 4213W        W21061  12.447  10.609   0.385  0.1702  0.0742  0.3999
 4214W        W21062   3.863   0.069   1.615 -0.0946  0.1268 -0.0937
 4215W        W21063  16.517   3.608   0.792 -0.0376  0.1537  0.1688
 4216W        W21064   1.917  17.010   3.528  0.1273 -0.0883  0.2896
 4217W        W21065   5.972  17.666  13.331 -0.0531  0.1348  0.1535
 4218W        W21066  12.302  12.796   5.005 -0.2158  0.1200 -0.0575
 4219W        W21067   3.255  11.624  15.432 -0.1684 -0.2445  0.0359
 4220W        W21068   6.705  17.434  11.667 -0.1951  0.0626  0.0749
 4221W        W21069   8.737   6.867   4.379 -0.2462 -0.3364  0.2999
 4222W        W21070   1.403  11.209   5.167  0.1088  0.0934  0.5657
 4223W        W21071   2.154  13.560   2.731  0.1243 -0.2705 -0.2532
 4224W        W21072  14.932   8.386  12.130 -0.0660  0.1922 -0.4157
 4225W        W21073  17.176   4.304   4.234 -0.1689  0.1077  0.3038
 4226W        W21074   0.553  11.939   4.450 -0.0671 -0.0475  0.3456
 4227W        W21075  16.285  17.496  13.578  0.1523 -0.0006  0.0340
 4228W        W21076   7.239  11.043  15.631  0.1444  0.1001 -0.1002
 4229W        W21077  10.339   6.205   2.194 -0.0207  0.0904 -0.0241
 4230W        W21078   2.161  15.452  11.687 -0.2287 -0.0034 -0.0665
 4231W        W21079  16.253   2.639  14.746 -0.0471  0.1091  0.0376
 4232W        W21080  12.884  12.569  16.368 -0.0679  0.0287  0.1777
 4233W        W21081   5.618  10.829  12.706 -0.3231  0.1661  0.1084
 4234W        W21082  14.110  10.694   1.424 -0.0328 -0.0525  0.1853
 4235W        W21083  16.408   7.792   1.715 -0.0463 -0.0702  0.4241
 4236W        W21084  17.757   7.319   0.882 -0.2172  0.0407 -0.2385
 4237W        W21085   1.336   3.995  10.618  0.0642 -0.0389  0.0219
 4238W        W21086   9.918   9.386  12.357 -0.2865  0.1509 -0.0338
 4239W        W21087  13.366   1.298   1.124 -0.2770 -0.0128  0.2221
 4240W        W21088   3.144   0.183  13.066  0.1645  0.1194  0.0591
 4241W        W21089  12.712  11.742   0.959 -0.0850  0.0679  0.2137
 4242W        W21090  13.861   6.781   0.551  0.2835  0.0508 -0.0171
 4243W        W21091   1.427   0.833   3.295 -0.0766 -0.2040 -0.1303
 4244W        W21092   5.032   5.279  13.649 -0.1237 -0.2083  0.0387
 4245W        W21093  14.571  13.449  12.712  0.3952 -0.2711  0.1398
 4246W        W21094  16.114   9.897   3.350 -0.1086  0.0768 -0.1141
 4247W        W21095   9.475   3.220  11.569 -0.0027 -0.1339 -0.0708
 4248W        W21096  11.450   1.671  12.851 -0.1958 -0.0736 -0.0171
 4249W        W21097  13.523  10.582  12.651  0.1414 -0.0361  0.2687
 4250W        W21098  17.381   0.836   3.380  0.1671  0.1002 -0.1041
 4251W        W21099  16.797  16.319   4.282 -0.0094 -0.3006  0.1052
 4252W        W21100   0.790  11.410   4.531  0.1205  0.0069  0.0061
 4253W        W21101   0.576  11.074  14.065  0.1678 -0.1037 -0.1332
 4254W        W21102   0.906  14.969   2.657  0.0577 -0.0806  0.1166
 4255W        W21103   7.254  11.200  11.662  0.1687  0.0523 -0.1015
 4256W        W21104  12.256   6.901  15.407 -0.0579  0.0647  0.1031
 4257W        W21105  15.017  16.955   3.192 -0.0501 -0.1271  0.3535
 4258W        W21106   7.571   1.113   3.637 -0.0148  0.1938 -0.2542
 4259W        W21107  12.749   7.061   1.719  0.2398 -0.4002 -0.0600
 4260W        W21108   7.178   5.645   3.439 -0.0195  0.0244 -0.0704
 4261W        W21109  12.193  17.104   3.711  0.3181 -0.0000 -0.1034
 4262W        W21110   9.364   4.403   0.139 -0.2754 -0.1796  0.0025
 4263W        W21111  12.418  12.973  12.297 -0.1738  0.0730  0.0883
 4264W        W21112  12.404   5.904  11.565 -0.0501  0.2483 -0.2826
 4265W        W21113   0.877  16.911   3.828 -0.0438 -0.0357 -0.2732
 4266W        W21114  16.718   4.413  14.783  0.1544 -0.1689 -0.3235
 4267W        W21115  11.619   5.590   2.849  0.2118 -0.0674 -0.1810
 4268W        W21116  14.672   3.148   2.114 -0.1684  0.1823 -0.0744
 4269W        W21117  17.035  10.113  12.439  0.0669  0.2908 -0.1185
 4270W        W21118   8.109   4.234  16.476 -0.0973 -0.1776 -0.2221
 4271W        W21119   6.485  11.857  14.950 -0.1638 -0.2314  0.1657
 4272W        W21120   1.536  15.718  12.255 -0.1870 -0.1576 -0.1828
 4273W        W21121  14.821  11.778   1.129 -0.0389  0.0040 -0.0761
 4274W        W21122   5.461   9.745   1.855 -0.1385  0.1810 -0.0397
 4275W        W21123  10.208  14.176   2.627  0.2500  0.0047 -0.0235
 4276W        W21124  17.266   0.380  16.555  0.0420 -0.0460 -0.2043
 4277W        W21125   7.939  13.529   2.236  0.2806  0.0777 -0.0023
 4278W        W21126   1.551  15.481   5.502 -0.0294  0.0365 -0.0037
 4279W        W21127   3.675  16.108   2.137  0.0885  0.0592 -0.1511
 4280W        W21128   3.152   8.060   1.965  0.0717  0.0636  0.1612
 4281W        W21129   9.975   3.231  15.072  0.1554  0.1702  0.0371
 4282W        W21130   9.913   1.116  11.773  0.0922  0.1524  0.0179
 4283W        W21131   5.085   4.899   2.148  0.1303  0.3095 -0.0543
 4284W        W21132   9.828  11.578   3.634 -0.3233 -0.1447  0.0080
 4285W        W21133  14.772  16.535  14.564  0.1006 -0.0485 -0.2496
 4286W        W21134  14.649   0.294   5.453  0.3555  0.0367 -0.1321
 4287W        W21135   2.660   5.502   4.231 -0.1024  0.2106  0.0834
 4288W        W21136   2.427   2.806  14.170 -0.0260 -0.1216 -0.1499
 4289W        W21137  12.287   9.811   0.657  0.0075 -0.0419  0.0162
 4290W        W21138  12.954  11.187   3.572 -0.0442 -0.3083  0.2291
 4291W        W21139  15.497  11.916   4.197 -0.0471 -0.4048  0.0422
 4292W        W21140  13.211   4.978   4.861  0.0206  0.2972 -0.1501
 4293W        W21141   8.236  13.693   2.644  0.2123 -0.1558  0.1534
 4294W        W21142   0.270   8.242   1.810 -0.0223  0.0188  0.0314
 4295W        W21143   2.532   6.277   3.592  0.0511  0.1245 -0.0187
 4296W        W21144  13.832   5.854   2.593  0.0296 -0.2189 -0.2108
 4297W        W21145   7.111   9.889  14.754  0.0515  0.2423 -0.0400
 4298W        W21146   1.012  10.994   2.822  0.1600  0.0351 -0.3283
 4299W        W21147   7.423  10.811   0.028 -0.0752  0.1576 -0.0815
 4300W        W21148  13.768   7.644   3.554 -0.3249 -0.1861 -0.1148
 4301W        W21149   2.845   0.126  14.905  0.3651 -0.0103 -0.0700
 4302W        W21150   8.599   5.337   4.871 -0.0120  0.1341  0.0756
 4303W        W21151  12.019   7.065   4.517  0.0622  0.0123  0.0825
 4304W        W21152   8.558  10.319  11.335  0.0596 -0.0087 -0.0876
 4305W        W21153  11.945   2.473   1.519 -0.0716  0.0679  0.3159
 4306W        W21154  17.548   6.291  14.493  0.2717 -0.1479  0.1162
 4307W        W21155   8.632   1.594  11.965  0.1440 -0.0159  0.2435
 4308W        W21156  15.995   8.703   4.983  0.0069 -0.3244  0.2046
 4309W        W21157  10.150   5.542   0.017  0.1159 -0.2466  0.4031
 4310W        W21158   1.409   0.529   3.661 -0.1334  0.2062 -0.2687
 4311W        W21159   4.988   8.282   3.583  0.1226  0.2851  0.0281
 4312W        W21160   7.491   0.509  12.694  0.3083  0.1439 -0.2262
 4313W        W21161   2.498   3.122   1.986  0.0583  0.0633  0.0902
 4314W        W21162   8.416   6.407  12.968 -0.0075  0.1216 -0.1220
 4315W        W21163   5.155  16.078   0.526  0.1238 -0.2914 -0.2432
 4316W        W21164  13.869  12.741   2.760  0.1739 -0.1179 -0.2188
 4317W        W21165  13.174   8.303  14.696 -0.2524 -0.3338  0.2742
 4318W        W21166   6.020  13.444  14.538 -0.3172  0.1226 -0.2905
 4319W        W21167   5.076   2.447   1.956 -0.2557  0.5787  0.1662
 4320W        W21168   0.175  16.820   4.409  0.0362  0.0621 -0.0223
 4321W        W21169  11.925   5.664  13.608  0.1918  0.0048 -0.2771
 4322W        W21170   3.619   5.722  16.382  0.2089 -0.0136 -0.1904
 4323W        W21171   5.125   0.525   1.176  0.1776  0.1565 -0.2694
 4324W        W21172   5.136   1.609   2.050  0.2313 -0.1570 -0.0270
 4325W        W21173  15.730   4.302  15.428 -0.0815  0.0697  0.2047
 4326W        W21174  16.830   2.102   4.300  0.0041  0.1142  0.2799
 4327W        W21175   2.341   6.918  16.419  0.0049  0.0055 -0.0354
 4328W        W21176  10.801   6.827  13.399  0.0694  0.2188 -0.0343
 4329W        W21177  15.525  11.426   1.050  0.1124  0.1502 -0.1083
 4330W        W21178  15.416   8.071   2.839  0.1001 -0.0247 -0.0770
 4331W        W21179  11.440   8.891   4.429  0.1374 -0.2506  0.2755
 4332W        W21180   8.123   8.536  12.984 -0.1720  0.1522  0.0212
 4333W        W21181  10.743   3.291   1.766 -0.2643  0.0031 -0.1426
 4334W        W21182   3.653   5.616   4.006  0.5016  0.1907  0.0365
 4335W        W21183   2.505  11.777   2.948 -0.1269 -0.2176 -0.2253
 4336W        W21184  17.509  17.145  14.243 -0.2569  0.1487  0.1900
 4337W        W21185  16.455   5.468   2.343 -0.0127  0.0176  0.1090
 4338W        W21186  10.847   6.153   3.233 -0.4430  0.0601  0.1652
 4339W        W21187   0.846  14.973   4.498 -0.1318  0.1117 -0.2577
 4340W        W21188   4.869   3.360  11.160 -0.0267 -0.4316 -0.1188
 4341W        W21189   4.099   5.539  16.372 -0.0989  0.1705  0.0536
 4342W        W21190   2.397  11.897   4.745 -0.2557  0.0712  0.0364
 4343W        W21191  11.180   9.280   3.994 -0.3326  0.2701  0.0194
 4344W        W21192  17.292  16.554  14.189 -0.1373  0.0605 -0.2222
 4345W        W21193  12.109   9.698   1.384  0.0970  0.2251 -0.1621
 4346W        W21194  15.520  14.163  12.323 -0.0057  0.2843 -0.1997
 4347W        W21195   7.072  10.806  10.726 -0.2818 -0.0755  0.1043
 4348W        W21196   9.235   0.391  11.572 -0.1813 -0.0536  0.1430
 4349W        W21197   7.697  10.765   2.626 -0.0527 -0.0380 -0.1700
 4350W        W21198   9.865  15.079   4.169  0.2638  0.2454  0.0871
 4351W        W21199  10.706  12.549  16.041  0.0382 -0.1014  0.1977
 4352W        W21200   9.702  10.645   3.109 -0.2366  0.0713 -0.1066
 4353W        W21201   5.387   9.277   1.687  0.0262 -0.1825  0.0324
 4354W        W21202  15.377   8.032  14.930  0.0735  0.0344 -0.1114
 4355W        W21203  11.709  15.977  16.048 -0.1749 -0.0769 -0.0564
 4356W        W21204   4.186  15.100  13.260  0.0188  0.2348  0.1659
 4357W        W21205   6.030   4.926   5.412  0.0578 -0.0782  0.0808
 4358W        W21206   2.020   8.971  13.802 -0.1536  0.0363 -0.2497
 4359W        W21207  14.659  13.501   2.730  0.1726 -0.1870 -0.0702
 4360W        W21208   9.738  13.040  14.858 -0.1435 -0.3760 -0.2037
 4361W        W21209  11.749   1.008  16.128 -0.0705  0.1716  0.0967
 4362W        W21210  10.177   3.701   0.230 -0.2174  0.0633  0.0065
 4363W        W21211   3.065   5.610  12.907  0.1852 -0.0416  0.0554
 4364W        W21212  17.366  12.402  11.843  0.0036  0.0929  0.0688
 4365W        W21213   1.143  13.528   2.817  0.2317 -0.4056 -0.0379
 4366W        W21214  12.685   9.930  16.526  0.1695 -0.1216  0.0986
 4367W        W21215   5.887  14.394   1.242  0.1083 -0.1052 -0.0821
 4368W        W21216  14.164   0.019  13.245  0.1411  0.1233  0.0613
 4369W        W21217   5.687  13.349  13.313  0.3321 -0.0328 -0.0753
 4370W        W21218   9.744  13.805   4.512  0.0959  0.0654  0.2943
 4371W        W21219   1.978   6.592  12.575 -0.0992  0.0358  0.1305
 4372W        W21220  16.383  14.802   1.712 -0.0083 -0.1663  0.3086
 4373W        W21221   0.086   1.549  15.317  0.0572 -0.0794  0.0161
 4374W        W21222   8.641   2.585   1.091 -0.0655 -0.1551 -0.0027
 4375W        W21223  16.546  15.223   3.999 -0.0663 -0.1619  0.0916
 4376W        W21224  13.831  16.181   1.765 -0.4903  0.0307 -0.0785
 4377W        W21225   4.344   0.702   4.205  0.3630 -0.1208 -0.4997
 4378W        W21226   7.268  12.232   3.827  0.1091 -0.1244 -0.5419
 4379W        W21227  13.772   7.143  14.672 -0.1251 -0.0451  0.1233
 4380W        W21228   0.830  15.670   1.688  0.1217  0.0095  0.0860
 4381W        W21229   7.909  11.798   2.166 -0.0440 -0.1184  0.1276
 4382W        W21230   1.012  15.176  13.929  0.2594  0.1057 -0.1276
 4383W        W21231   5.946   8.435  11.517  0.0109 -0.0162  0.1527
 4384W        W21232  13.747  14.744   2.725  0.0280  0.3547  0.1307
 4385W        W21233   8.589  13.172  15.859  0.1174 -0.1392  0.1392
 4386W        W21234   0.131  13.718   5.815 -0.0362  0.0393 -0.1058
 4387W        W21235   6.752   7.509  11.586  0.1029 -0.2345  0.1483
 4388W        W21236   5.155   4.787   1.553  0.0956 -0.2096  0.0106
 4389W        W21237   8.779  12.233  15.974 -0.0414  0.1277  0.1331
 4390W        W21238  15.486  12.611   1.984 -0.0755  0.1384 -0.1278
 4391W        W21239  17.699  12.580   3.671 -0.1639 -0.6258 -0.3106
 4392W        W21240  12.848   6.788  12.292  0.2478  0.0362  0.0393
 4393W        W21241   2.162   6.629  15.556 -0.0242 -0.0314  0.0453
 4394W        W21242   9.338   8.359   3.709  0.2691  0.0128 -0.2340
 4395W        W21243  12.596   9.335  15.721 -0.1934  0.0357 -0.0493
 4396W        W21244   1.486  16.774  14.866  0.0816 -0.4508  0.0605
 4397W        W21245   4.882   6.870   3.218  0.1779  0.0666 -0.2326
 4398W        W21246   0.352   1.995  10.499  0.1128  0.0648 -0.3312
 4399W        W21247   9.239  10.961   2.450 -0.0909  0.0916 -0.2392
 4400W        W21248  14.298   7.598   0.120  0.0052 -0.1130 -0.2840
 4401W        W21249  10.189  12.701  14.942  0.1245 -0.0185 -0.0382
 4402W        W21250  15.141  16.868  15.356  0.1334 -0.2021 -0.1289
 4403W        W21251  15.053  12.158  14.194  0.2960 -0.3349  0.3153
 4404W        W21252  11.156  11.480  13.151  0.2669  0.4412 -0.0363
 4405W        W21253   3.553   4.682  12.914  0.0109 -0.1482 -0.2367
 4406W        W21254  15.204  10.376   5.774  0.0826 -0.0570 -0.1014
 4407W        W21255   7.713   1.241   1.754  0.3032 -0.1720 -0.1017
 4408W        W21256   3.936  12.618   3.971  0.2202  0.2055 -0.1403
 4409W        W21257  14.504  17.007  14.496  0.1608 -0.1968 -0.1819
 4410W        W21258  11.193   3.785   0.909  0.0164  0.2588  0.3115
 4411W        W21259  13.349   4.922  14.103  0.3117 -0.1010  0.0305
 4412W        W21260  10.702   8.808  14.333  0.0019  0.1913  0.0560
 4413W        W21261  11.500   1.536  13.343  0.1213 -0.1367 -0.1035
 4414W        W21262   3.991  11.945   2.094 -0.1720  0.2033 -0.2123
 4415W        W21263   6.439   1.514  15.990 -0.3173  0.0807 -0.3540
 4416W        W21264   9.262   3.734   0.620  0.2614 -0.0968  0.4337
 4417W        W21265  10.945   0.421  14.130 -0.1009  0.2711  0.2919
 4418W        W21266  10.999  12.357   0.193 -0.0149  0.3003  0.0898
 4419W        W21267   8.602   8.905  15.637 -0.3321 -0.1955 -0.2552
 4420W        W21268   7.192   6.275  16.126  0.0116 -0.2678  0.2479
 4421W        W21269  13.790   9.183  12.419 -0.2231  0.2210 -0.0161
 4422W        W21270  14.859   0.312  12.663 -0.1390 -0.0942 -0.0962
 4423W        W21271   6.902   5.607  11.617 -0.1987 -0.2803 -0.1174
 4424W        W21272  11.465   0.316  11.535 -0.1475  0.1582  0.0371
 4425W        W21273   2.955   1.578  14.954 -0.2064 -0.1341 -0.3449
 4426W        W21274  17.046  10.958   3.631  0.3186 -0.3517 -0.1868
 4427W        W21275  16.594   6.233  10.748 -0.1292  0.3028  0.0415
 4428W        W21276  16.763   1.886   1.300  0.5647  0.0289  0.3893
 4429W        W21277  16.858   5.453  15.527 -0.4059  0.2560  0.1844
 4430W        W21278  15.155   6.621   1.422 -0.0920  0.0556 -0.2284
 4431W        W21279  14.266   4.401  16.343  0.0700 -0.2572 -0.0443
 4432W        W21280   0.346  16.852  14.170 -0.0053 -0.3107  0.1709
 4433W        W21281  13.010   3.337   0.689 -0.2512 -0.0855 -0.0383
 4434W        W21282   7.984   2.301  13.601  0.0416  0.1082  0.2478
 4435W        W21283  16.634   9.832  12.374 -0.0895  0.1181 -0.0214
 4436W        W21284   0.616  16.064  15.250  0.0061  0.3784 -0.0891
 4437W        W21285  14.575  15.750  12.866 -0.0929 -0.0497 -0.0345
 4438W        W21286   1.662   7.495   1.057  0.1600  0.1780 -0.2075
 4439W        W21287   7.802   0.675   3.648  0.1228 -0.0336  0.0171
 4440W        W21288   1.204   0.477  13.130 -0.1275 -0.2527 -0.1983
 4441W        W21289  15.765  16.651   1.559  0.0922  0.1418  0.1358
 4442W        W21290  15.177  13.605  15.352 -0.0505 -0.1405 -0.0294
 4443W        W21291   0.531  15.789  10.845  0.0019 -0.2626 -0.2519
 4444W        W21292   7.084  15.871  11.399 -0.0837 -0.1555 -0.2118
 4445W        W21293  15.201   2.099   3.027 -0.1524 -0.0166  0.0153
 4446W        W21294   5.575  10.191  14.927 -0.0744 -0.1890 -0.1104
 4447W        W21295  14.936   0.271   4.663  0.1829  0.1075  0.0049
 4448W        W21296  13.519  12.739   4.896  0.1105  0.1513  0.1052
 4449W        W21297   5.175  12.769  14.529 -0.0815  0.0821 -0.1843
 4450W        W21298  13.768   3.885  13.654  0.1719  0.3476  0.2972
 4451W        W21299  13.872   4.102  11.981  0.2422 -0.3267 -0.1276
 4452W        W21300  13.485  11.160  13.698 -0.3202  0.0948 -0.1060
 4453W        W21301   2.435   4.702   1.558  0.1366  0.1247  0.1101
 4454W        W21302   6.734  12.243  13.172 -0.1330 -0.0868 -0.1250
 4455W        W21303   2.099  14.001   0.949  0.1614 -0.0546 -0.0835
 4456W        W21304   9.644   0.059   4.517  0.1815 -0.0033  0.3368
 4457W        W21305  15.460   5.011  12.292  0.0095 -0.0853  0.2169
 4458W        W21306   3.213   0.390  12.162 -0.3804  0.3911  0.0642
 4459W        W21307   0.216   6.814  14.196  0.0692 -0.0233 -0.2399
 4460W        W21308  17.584  15.753  11.222 -0.1321 -0.1534  0.2880
 4461W        W21309   0.349   5.667  14.101 -0.2242 -0.1650  0.2771
 4462W        W21310   5.455  17.077  15.926 -0.1818  0.0029 -0.0329
 4463W        W21311  13.306  14.506  11.740 -0.1624  0.0728  0.1344
 4464W        W21312  10.918   2.714   1.190 -0.1426 -0.0019  0.0158
 4465W        W21313   3.485   1.794  11.832  0.0380 -0.0158 -0.0509
 4466W        W21314  12.076  15.610  11.893 -0.1941  0.3111  0.1873
 4467W        W21315  13.916   0.399   0.608 -0.1144  0.0315 -0.1535
 4468W        W21316   2.029  11.646  15.545  0.0792  0.0046  0.4240
 4469W        W21317  17.575  17.685  14.825 -0.1919  0.1633 -0.0116
 4470W        W21318  15.458  16.682  13.990 -0.1644 -0.0486 -0.2496
 4471W        W21319  13.840   3.692  14.708  0.1959 -0.3176  0.0310
 4472W        W21320   7.981  13.724  16.380  0.1009 -0.1197 -0.0639
 4473W        W21321   2.895  10.754  13.205 -0.1782 -0.3386 -0.0587
 4474W        W21322  16.729   2.554  14.929 -0.2611  0.4175  0.1480
 4475W        W21323  11.904   6.306   0.257 -0.3088  0.0397  0.2004
 4476W        W21324  11.308  14.833  11.451  0.1254 -0.0004  0.2148
 4477W        W21325   6.929  11.890  16.487 -0.4307 -0.0777 -0.2570
 4478W        W21326   2.956   2.691   3.284  0.4288  0.1987  0.1422
 4479W        W21327  14.465   7.983   3.266 -0.0243 -0.0505  0.0466
 4480W        W21328  16.905   2.717  13.721  0.1641  0.0602  0.0240
 4481W        W21329   2.653  15.371  12.732  0.1393 -0.2782  0.0851
 4482W        W21330  12.704   8.919  12.179 -0.0966 -0.4452  0.1117
 4483W        W21331   5.156   6.492   0.746  0.2881 -0.1606  0.2681
 4484W        W21332   6.544   2.823  12.870  0.0912  0.0281  0.2098
 4485W        W21333   2.843   9.824  11.925  0.0494  0.3877 -0.2691
 4486W        W21334   5.770  16.510  12.066 -0.2546 -0.1350 -0.0970
 4487W        W21335   4.879   6.748   1.242  0.1438 -0.0034  0.1339
 4488W        W21336   6.887  14.327   2.563 -0.0147 -0.1532 -0.0764
 4489W        W21337   4.504   3.871   0.416 -0.1282 -0.0270 -0.1694
 4490W        W21338  14.307   7.443  15.253 -0.3852  0.0102 -0.3054
 4491W        W21339  17.491  16.019   3.585  0.5324 -0.2161  0.0826
 4492W        W21340  13.859  10.841  15.294 -0.2071 -0.0375  0.0640
 4493W        W21341   6.148  14.726   4.749 -0.1413  0.1641  0.0825
 4494W        W21342   8.637   7.378   2.303 -0.0623  0.0790  0.0168
 4495W        W21343   7.469   5.268  12.285 -0.3069 -0.2254  0.0730
 4496W        W21344  13.514   4.355  15.763  0.0928 -0.0446 -0.0922
 4497W        W21345  16.791  17.280   0.052  0.1117 -0.1491  0.0919
 4498W        W21346  11.187  10.729   1.495 -0.0914  0.0859  0.1471
 4499W        W21347   7.757   4.776  14.209 -0.1749 -0.1127  0.3671
 4500W        W21348  15.373  16.146   4.012 -0.1421 -0.0567  0.3218
 4501W        W21349  11.875   5.324  12.986 -0.3216  0.2877  0.0092
 4502W        W21350   2.489  13.613   4.984 -0.0698 -0.1552  0.1422
 4503W        W21351   9.053   0.052  16.287  0.0522 -0.1673 -0.0589
 4504W        W21352  17.408  13.634   5.024 -0.0288 -0.0949  0.0963
 4505W        W21353   8.422   3.504  13.871 -0.0755  0.0866  0.0013
 4506W        W21354  11.808   6.282  14.344 -0.3499  0.0707  0.1311
 4507W        W21355   7.727  13.471  14.152  0.3628 -0.0029 -0.2153
 4508W        W21356   0.984  13.372   3.266  0.2118 -0.0077  0.0068
 4509W        W21357  10.252  16.948  12.155 -0.0499  0.2207  0.2420
 4510W        W21358   8.283   1.268  13.337  0.0364  0.1586 -0.0379
 4511W        W21359   3.039  16.383  13.985  0.1589  0.0987  0.1198
 4512W        W21360  15.849   5.195   2.992  0.1844  0.1630 -0.2328
 4513W        W21361   2.961  12.513   2.893  0.0881 -0.1586  0.1033
 4514W        W21362  15.558  15.677  12.399  0.3017  0.0809  0.0166
 4515W        W21363   2.486   7.709  14.136  0.1513  0.3006 -0.2076
 4516W        W21364   6.599  12.706   0.505 -0.0740 -0.0057 -0.0110
 4517W        W21365  16.665  17.779  13.769 -0.1823  0.1636 -0.2908
 4518W        W21366   4.569   9.916   2.734  0.4498 -0.1724  0.1084
 4519W        W21367   8.177   0.886   1.946 -0.3400  0.1519 -0.1431
 4520W        W21368   0.374  14.509   1.831  0.0473 -0.1284 -0.4313
 4521W        W21369   1.286   7.153   2.022  0.2899  0.1792  0.2385
 4522W        W21370   0.868   0.157  10.769 -0.0764 -0.0594  0.4676
 4523W        W21371  14.299  15.549   0.430 -0.0821 -0.2541 -0.1762
 4524W        W21372  13.036  17.106   1.758 -0.0420 -0.1868 -0.2627
 4525W        W21373  10.221   8.763   5.108  0.1968 -0.1271  0.1794
 4526W        W21374   0.627  10.039   3.904 -0.4565  0.1265 -0.1561
 4527W        W21375   4.215   0.718  13.067 -0.0793 -0.0686 -0.0712
 4528W        W21376  11.852   8.724   0.182 -0.4128 -0.1185 -0.3035
 4529W        W21377   3.411   3.123   3.576  0.0105 -0.0872 -0.0658
 4530W        W21378   1.954  10.527  14.694 -0.0578 -0.0931 -0.2303
 4531W        W21379   6.645   9.585   3.198 -0.0669  0.0824 -0.0346
 4532W        W21380   6.621   6.284  15.983 -0.1241 -0.2581 -0.2519
 4533W        W21381   2.487   2.359   5.278  0.1086  0.1803 -0.0325
 4534W        W21382  15.909   8.059  15.303 -0.0013 -0.0404  0.1454
 4535W        W21383  17.019   5.760   4.714 -0.0632  0.3124 -0.0466
 4536W        W21384   7.132   7.681  16.189 -0.0611 -0.0183 -0.2758
 4537W        W21385   3.740   6.926  16.458 -0.2680  0.0387  0.3016
 4538W        W21386   6.394  10.805   1.477  0.0626  0.0166  0.2279
 4539W        W21387   1.613   2.212  10.790  0.0462  0.0998  0.1049
 4540W        W21388  14.293   9.571  13.138  0.4363 -0.0292 -0.0023
 4541W        W21389   4.288  12.614   1.549 -0.0351  0.0994 -0.2139
 4542W        W21390   9.320   2.018   0.253  0.0541 -0.0018  0.0567
 4543W        W21391   3.112   0.935   1.647 -0.2256  0.0917  0.1358
 4544W        W21392   1.140  11.765  15.241 -0.0441  0.0686  0.1288
 4545W        W21393   4.802   9.505   5.021 -0.2694 -0.1673 -0.2244
 4546W        W21394   3.437   1.676  16.357  0.0305 -0.0052 -0.0753
 4547W        W21395   2.083   9.230  16.404  0.2617  0.0343  0.2720
 4548W        W21396   2.846   9.880  13.211  0.2289 -0.1814 -0.0074
 4549W        W21397   8.245  15.579  14.483 -0.0204 -0.1014  0.2683
 4550W        W21398  16.559   4.207  15.216 -0.0676 -0.0649  0.0874
 4551W        W21399   0.055   3.511   2.447  0.3906 -0.0552  0.4331
 4552W        W21400  15.422   7.212  16.599  0.0353  0.0723  0.1195
 4553W        W21401   0.308   7.715   4.450 -0.2165 -0.1164  0.2121
 4554W        W21402   9.933   0.817  16.507  0.0426 -0.0895  0.1684
 4555W        W21403  15.879   4.387  15.911 -0.2143 -0.1215  0.3951
 4556W        W21404   4.664   0.186  12.339  0.1334 -0.4254 -0.0185
 4557W        W21405  10.094   5.041   0.526  0.2579  0.1356  0.0394
 4558W        W21406   6.708  16.638  13.624 -0.3278 -0.1232  0.1426
 4559W        W21407   7.476   3.946  15.763  0.0170 -0.1895 -0.0169
 4560W        W21408  11.218   6.616  13.803 -0.1478 -0.1757 -0.0862
 4561W        W21409  17.601   0.393   0.745 -0.0147 -0.0519  0.0610
 4562W        W21410  12.224   0.966   2.611  0.0369  0.1293  0.0830
 4563W        W21411  15.323  16.730   6.540  0.2959 -0.2254 -0.1138
 4564W        W21412  12.761  12.020  16.299  0.1495 -0.0703  0.0331
 4565W        W21413   5.698   6.874   2.203  0.0510 -0.2146  0.2203
 4566W        W21414   7.163  16.395   0.388 -0.3183  0.3108  0.0095
 4567W        W21415   9.982   3.483  14.655  0.0347  0.3190  0.4444
 4568W        W21416   8.765  14.922  15.620 -0.1601  0.1623 -0.0091
 4569W        W21417   9.906  14.459  14.700 -0.0180  0.0830  0.2002
 4570W        W21418   2.973   1.284   3.662  0.2424 -0.1774 -0.0070
 4571W        W21419   1.969  14.809   4.067  0.3976 -0.0546  0.0602
 4572W        W21420  14.778  15.880  13.793  0.0795 -0.0723  0.0704
 4573W        W21421   4.908   6.776  13.542  0.0360  0.1187 -0.0418
 4574W        W21422   3.833  13.043  14.142  0.0020  0.2501  0.0051
 4575W        W21423   2.106  12.920   4.807 -0.1416 -0.1772  0.0907
 4576W        W21424  17.638   4.595  11.858 -0.1367  0.3443  0.1324
 4577W        W21425  16.380   5.125   3.158  0.2268  0.3362  0.0701
 4578W        W21426   3.917  16.808  10.811  0.2917  0.1859  0.0774
 4579W        W21427  11.571  10.904  14.341  0.1692  0.1672  0.2245
 4580W        W21428   2.557   8.932  15.167 -0.1558  0.1001 -0.1689
 4581W        W21429   7.866  16.157  16.330  0.2736 -0.1366  0.0374
 4582W        W21430  15.430   2.233   0.896 -0.1082  0.0372  0.1159
 4583W        W21431   3.886   7.787   1.530  0.0059  0.0288 -0.1289
 4584W        W21432   6.408   8.946   3.090 -0.0017 -0.3818  0.0395
 4585W        W21433  14.703  13.045   2.566 -0.1054  0.0496  0.2779
 4586W        W21434  12.799   3.211   4.159  0.0876 -0.3741  0.0761
 4587W        W21435  15.849   8.634  10.383  0.2089 -0.2305  0.1489
 4588W        W21436  15.808   2.343  16.010  0.1185  0.0626  0.0898
 4589W        W21437   2.654   8.606  13.049 -0.1303 -0.1993 -0.0872
 4590W        W21438   8.575   2.467   4.319 -0.1153 -0.4538 -0.3181
 4591W        W21439   5.811   2.191  11.371  0.1379 -0.0992  0.2663
 4592W        W21440  11.234   2.339  13.719 -0.3069  0.1266 -0.2228
 4593W        W21441   9.880  12.879  13.237 -0.0573  0.0049 -0.3476
 4594W        W21442   2.782  14.499   2.845  0.0440  0.1851 -0.1172
 4595W        W21443   5.305   5.349  12.686 -0.0962  0.1342 -0.0011
 4596W        W21444  10.471   2.756  11.618 -0.1178 -0.3724 -0.1261
 4597W        W21445  16.700  14.413   1.547  0.0624 -0.1977 -0.0021
 4598W        W21446   9.219   0.182  12.499  0.2424 -0.1053  0.0525
 4599W        W21447   9.982  16.577   4.900 -0.0044 -0.2312  0.0059
 4600W        W21448   6.234   8.275   0.603  0.2996 -0.2557 -0.3712
 4601W        W21449   7.261   2.465  13.205  0.3125  0.2076  0.1810
 4602W        W21450  15.052   8.515   3.770 -0.1469  0.1530 -0.1199
 4603W        W21451  14.116   5.524  16.189  0.3491  0.0700 -0.2668
 4604W        W21452   9.271   1.848  14.743  0.1611  0.2500 -0.1863
 4605W        W21453   1.764  11.737   4.126  0.0699  0.0045  0.0929
 4606W        W21454  12.095   1.624   4.264 -0.1332 -0.0860  0.4795
 4607W        W21455   9.773   2.336   1.727  0.1244 -0.1299 -0.2201
 4608W        W21456   6.651  16.704   3.444 -0.1255  0.1015 -0.0407
 4609W        W21457  11.913   8.803   4.583 -0.0609  0.1261 -0.1306
 4610W        W21458   5.127   1.174   3.681 -0.2240 -0.2219  0.0349
 4611W        W21459   5.358   8.316   0.549 -0.1275 -0.0709 -0.0787
 4612W        W21460  13.310   8.211  16.584  0.1192 -0.1793 -0.1791
 4613W        W21461   7.866   6.504  15.136 -0.0064 -0.2146  0.2295
 4614W        W21462   3.243   9.289   2.867  0.1596 -0.2340  0.1179
 4615W        W21463  17.529  12.686   2.956 -0.2765 -0.2102  0.2658
 4616W        W21464  15.623  13.261  15.296  0.2994 -0.1328 -0.2855
 4617W        W21465   0.371   1.753  15.741 -0.0572 -0.0767 -0.0236
 4618W        W21466  10.267  16.121   0.865 -0.1866  0.1136 -0.3120
 4619W        W21467  17.666   7.862   4.450  0.0320  0.3545  0.1496
 4620W        W21468  12.722   1.247  15.511 -0.0213  0.1560 -0.0427
 4621W        W21469  14.151   6.638   3.533  0.2536 -0.0901 -0.2659
 4622W        W21470   8.602  11.238   2.694  0.1206  0.1387 -0.2411
 4623W        W21471   7.226  13.177  14.780  0.0225  0.0270 -0.1271
 4624W        W21472  12.228  16.912  11.943 -0.1667  0.1541  0.0490
 4625W        W21473   4.884  12.121  14.181 -0.2296  0.1968  0.0216
 4626W        W21474  13.381   4.610   3.251 -0.1722  0.1865  0.3787
 4627W        W21475   1.187  14.215  16.443 -0.1167  0.1740  0.3491
 4628W        W21476   6.358   9.024   4.015  0.2832  0.0002  0.1453
 4629W        W21477   2.881  12.529  16.595 -0.1156 -0.5134  0.0376
 4630W        W21478   9.059  16.828  16.168  0.3457 -0.0245 -0.1163
 4631W        W21479  12.435   1.369  13.368  0.0642  0.0705 -0.1819
 4632W        W21480  13.876   6.497   5.085 -0.1470  0.0130  0.0498
 4633W        W21481   2.427  10.978   1.011 -0.1683 -0.2636 -0.1791
 4634W        W21482   0.863  11.973   0.001  0.0018 -0.1410  0.0512
 4635W        W21483   2.464   5.106   0.465  0.0172  0.0823  0.0889
 4636W        W21484  14.237  17.101   2.737  0.2422 -0.1852 -0.2583
 4637W        W21485   4.890  11.865   3.140  0.0032 -0.0852 -0.0767
 4638W        W21486   5.495   3.401   1.595 -0.2622 -0.0933  0.1917
 4639W        W21487   8.096  11.685  15.731  0.0095  0.0745  0.1300
 4640W        W21488  17.055   8.100   2.724 -0.0571 -0.0088  0.2806
 4641W        W21489  13.814   8.920   2.997 -0.5019  0.1135 -0.2385
 4642W        W21490   9.850   0.331   0.169  0.1206  0.0226 -0.0200
 4643W        W21491   8.544  13.588   5.057  0.0809  0.3987 -0.1772
 4644W        W21492  13.322  12.022   4.325  0.1635  0.1309 -0.2562
 4645W        W21493  11.743   0.790   2.549 -0.1847 -0.0157  0.0554
 4646W        W21494  12.532   7.702  13.498 -0.1507 -0.0988 -0.0840
 4647W        W21495   8.048   6.175  12.511  0.0194  0.1759 -0.0521
 4648W        W21496   5.109  11.420   2.769  0.4642 -0.1625 -0.0094
 4649W        W21497   4.046   3.653  11.333  0.2046 -0.0401 -0.1055
 4650W        W21498  10.791   4.848  11.986 -0.0846  0.0359  0.2002
 4651W        W21499   4.040   7.390  15.358 -0.1447  0.1111 -0.2725
 4652W        W21500   6.343   8.329   4.368 -0.0850  0.1184 -0.0149
 4653W        W21501  14.232   1.667  11.959 -0.4019  0.0847  0.2453
 4654W        W21502   5.085   1.503   1.578  0.1636 -0.3210 -0.0365
 4655W        W21503  17.565  11.985  13.808  0.2431 -0.4944 -0.3356
 4656W        W21504  17.106  10.334   1.059 -0.1904 -0.1873 -0.3468
 4657W        W21505   0.055  13.330  14.938  0.0279  0.2243  0.0826
 4658W        W21506  17.100   3.919  12.996  0.4203  0.0665 -0.1343
 4659W        W21507   9.018   1.361   4.068 -0.0311 -0.0916 -0.0500
 4660W        W21508   9.229   4.758  12.414  0.0626 -0.1097  0.0643
 4661W        W21509   1.287   8.761   3.628  0.2508 -0.2432 -0.2563
 4662W        W21510  16.946   8.955   1.144 -0.2306  0.0332  0.1985
 4663W        W21511   1.632   5.413  16.054 -0.0532 -0.0105 -0.0197
 4664W        W21512  16.956   5.307   2.635  0.0330 -0.0293  0.2126
 4665W        W21513   3.603  12.936   0.060 -0.4740 -0.0146 -0.1648
 4666W        W21514   0.735   7.183  11.522  0.3074 -0.0327  0.2778
 4667W        W21515   9.387   5.135  15.922  0.2062  0.0715 -0.2232
 4668W        W21516  14.788  16.265   4.256 -0.2004  0.2010 -0.0906
 4669W        W21517   7.955   0.703  11.838  0.0586  0.0646 -0.0498
 4670W        W21518  14.006   5.872  13.398  0.0661  0.2622  0.2055
 4671W        W21519   1.658   2.105  11.613 -0.2052 -0.1160 -0.2245
 4672W        W21520  15.354  15.864   4.402 -0.1322  0.1071 -0.0262
 4673W        W21521   3.630  11.872  12.082 -0.1343  0.0807  0.1545
 4674W        W21522  16.664  11.196  13.939 -0.0302  0.0158 -0.4310
 4675W        W21523  14.606  10.805  14.699  0.0747 -0.0739  0.3240
 4676W        W21524  14.927  14.956  14.906 -0.0272  0.1255 -0.2202
 4677W        W21525   9.719  14.113  15.031  0.1701  0.0500 -0.0710
 4678W        W21526  11.692   5.870   5.062  0.0827  0.1680 -0.1083
 4679W        W21527  10.014   4.454  13.591 -0.1575 -0.3742  0.3445
 4680W        W21528   7.865   5.845   1.445  0.1814 -0.5383  0.0950
 4681W        W21529  10.472   6.662  14.694 -0.2266 -0.2547 -0.0426
 4682W        W21530   0.123  11.339   3.563 -0.0668 -0.0485 -0.1748
 4683W        W21531   6.216  13.043  14.943 -0.2935  0.1828 -0.0546
 4684W        W21532   7.873   3.083   1.659 -0.3263  0.1036  0.1755
 4685W        W21533   8.827  12.876  13.458 -0.1907 -0.3455  0.0670
 4686W        W21534  16.440   2.471  13.866 -0.1269  0.3317 -0.0887
 4687W        W21535  14.789   0.120   0.732  0.1422  0.1099  0.1086
 4688W        W21536  14.516   9.565  11.321 -0.0851  0.0648 -0.0802
 4689W        W21537  10.066   4.476   0.729 -0.0319  0.1304 -0.1702
 4690W        W21538  11.124  13.503  11.935  0.0171 -0.0001  0.1970
 4691W        W21539  10.718   6.484   3.983  0.0039 -0.1103 -0.1374
 4692W        W21540   7.467   0.740  14.504  0.3506  0.1489 -0.0159
 4693W        W21541  10.781   6.318  15.207 -0.0224  0.1116 -0.0375
 4694W        W21542   9.605   8.718  11.773 -0.2208 -0.1541  0.2392
 4695W        W21543  10.282   0.860  15.211 -0.3867  0.1577  0.0353
 4696W        W21544  14.156  14.849   0.165  0.1124  0.1202  0.2438
 4697W        W21545   8.460   4.853   2.349 -0.0108  0.1745  0.1558
 4698W        W21546   9.943  16.291   4.515  0.2899  0.0189  0.1624
 4699W        W21547  11.312   1.138   3.745  0.1454 -0.0744  0.0016
 4700W        W21548  12.464  16.590  13.775  0.0347 -0.1594 -0.1176
 4701W        W21549  12.957  16.717  13.858 -0.2604  0.3047  0.3024
 4702W        W21550  15.964  14.258  14.358 -0.0827 -0.0979  0.1395
 4703W        W21551   1.835   9.913  13.959  0.0419 -0.0799 -0.1647
 4704W        W21552  13.426   4.452  11.970  0.0789 -0.2611 -0.3226
 4705W        W21553  16.861   1.665   2.142  0.2808  0.1492  0.3482
 4706W        W21554   3.086   2.302   4.702 -0.1955  0.1468  0.0324
 4707W        W21555   5.007   7.602  13.111 -0.2127  0.0654  0.0619
 4708W        W21556  16.574  15.992  13.500  0.1235 -0.2662 -0.2499
 4709W        W21557   0.235  14.746   4.010 -0.3513  0.1329 -0.0074
 4710W        W21558   8.230   3.199   4.228 -0.2286 -0.1949 -0.3942
 4711W        W21559   5.627   3.351   1.115  0.0734 -0.1744 -0.0181
 4712W        W21560   3.904   3.607  14.328  0.3915  0.0043 -0.0209
 4713W        W21561  10.220   3.783  16.124 -0.2071 -0.0212 -0.1645
 4714W        W21562   1.810  10.415   4.965  0.4202 -0.0064  0.0120
 4715W        W21563   3.888  10.542  13.263 -0.1645 -0.0187 -0.0453
 4716W        W21564  15.478  13.657   3.100 -0.0410 -0.0119 -0.0055
 4717W        W21565  10.879  14.274   2.084 -0.0562 -0.1011  0.1022
 4718W        W21566  13.768  12.940  15.453  0.0450 -0.0845  0.0210
 4719W        W21567  17.012   5.269   4.527  0.2468 -0.1056 -0.1240
 4720W        W21568   7.334  17.214   0.398 -0.0710 -0.1185  0.0697
 4721W        W21569   1.804   0.103  15.651  0.2358  0.1008 -0.0212
 4722W        W21570  12.350   1.909   0.732  0.2020 -0.3476 -0.2411
 4723W        W21571  13.207  10.908   0.389 -0.1052  0.1642  0.3398
 4724W        W21572   6.715   9.547   4.316 -0.0924  0.0662 -0.0681
 4725W        W21573   5.963  14.893  13.391  0.1350  0.2363 -0.0164
 4726W        W21574   4.960   5.625   1.831  0.1975 -0.2473 -0.0349
 4727W        W21575   5.459   8.346   5.592 -0.1768 -0.0081  0.2940
 4728W        W21576   6.359  10.961   4.296 -0.2082  0.3112  0.1577
 4729W        W21577   4.801  11.343   3.641 -0.0375 -0.2034  0.1936
 4730W        W21578   4.951  12.188  12.695 -0.1156  0.0398  0.0962
 4731W        W21579  16.491   6.196   1.789 -0.1088  0.0287 -0.0543
 4732W        W21580  15.708   1.253   0.608  0.0436  0.0875  0.0283
 4733W        W21581   9.207  12.370   4.361  0.0189 -0.0635  0.2414
 4734W        W21582   8.431   9.608   1.856 -0.1543  0.1689  0.0152
 4735W        W21583   8.957  15.235  10.735  0.1397  0.2015  0.1420
 4736W        W21584   3.979   6.342  12.162 -0.2543  0.2089  0.0701
 4737W        W21585   4.211   2.905  12.540 -0.2679 -0.1069 -0.0586
 4738W        W21586  15.856   1.727   1.773  0.1137  0.0142 -0.0130
 4739W        W21587   0.080   6.932   1.401  0.2701 -0.2627 -0.2542
 4740W        W21588   1.505  13.604   1.128  0.0629  0.0346  0.0728
 4741W        W21589   6.034   3.462  13.343 -0.1157  0.0717 -0.0412
 4742W        W21590   2.008  17.331   2.190 -0.2518 -0.1368  0.2058
 4743W        W21591  10.924  13.346  14.058 -0.1627  0.0038  0.0179
 4744W        W21592  12.882  14.883   2.687 -0.2196  0.1624 -0.1241
 4745W        W21593  11.286  16.914   0.181 -0.1549  0.1972  0.3966
 4746W        W21594  12.535  11.325   3.807  0.1176 -0.0738  0.2170
 4747W        W21595  17.358  17.006  12.540  0.0130 -0.0485  0.2053
 4748W        W21596   7.239  11.653   0.314  0.1445 -0.2705  0.2602
 4749W        W21597   7.598  12.972   0.074  0.2257 -0.1215 -0.0984
 4750W        W21598  16.503   2.611   3.095  0.0820 -0.0254  0.1419
 4751W        W21599   3.150   7.526  13.663 -0.3145  0.0398  0.3175
 4752W        W21600   1.407  10.121  12.186  0.2196  0.1526 -0.2124
 4753W        W21601   2.044  11.700  16.332 -0.0648 -0.1363  0.1921
 4754W        W21602  15.566   0.708   3.091  0.1261  0.0176  0.1867
 4755W        W21603  13.797   5.616   5.430  0.2260  0.0786 -0.1699
 4756W        W21604  12.366   9.589  10.888 -0.0872  0.0685  0.2266
 4757W        W21605   3.954   7.120  15.002  0.1665 -0.0289  0.0560
 4758W        W21606   1.022  12.185   0.511 -0.4314  0.0101 -0.0208
 4759W        W21607   6.588   7.721   1.765  0.2485 -0.1338  0.1065
 4760W        W21608  13.613  14.381  15.929  0.0532  0.2854  0.2005
 4761W        W21609   9.211   5.930  13.904  0.0357  0.1256 -0.1823
 4762W        W21610   3.166   5.763   3.139  0.0129 -0.0949 -0.1986
 4763W        W21611   1.702  13.064  12.597  0.2835 -0.0019  0.2560
 4764W        W21612   7.807   2.070   4.742  0.1369  0.2890  0.0998
 4765W        W21613   1.733   4.341  12.819  0.3013 -0.0338  0.1785
 4766W        W21614  14.931   9.622  14.348 -0.3333  0.0252  0.1746
 4767W        W21615   6.519   1.982  12.990 -0.5740 -0.0131  0.0445
 4768W        W21616   5.243  17.022   4.004 -0.1859 -0.1216 -0.0437
 4769W        W21617   4.986   1.739  15.539 -0.0357 -0.2144 -0.0348
 4770W        W21618  15.612  13.176   0.755 -0.0141 -0.2439  0.0013
 4771W        W21619   8.623   3.889   3.899 -0.0905  0.1553  0.2387
 4772W        W21620   3.549   1.915   3.131  0.1060 -0.0073  0.0385
 4773W        W21621   4.638   2.415  13.987 -0.2063  0.0431 -0.2448
 4774W        W21622   3.686   6.866   3.910 -0.1220  0.1579 -0.3077
 4775W        W21623  17.113  16.644   1.568  0.0426 -0.0364 -0.2424
 4776W        W21624  11.997  10.062  14.340 -0.0232 -0.0333  0.0008
 4777W        W21625  17.215  12.649   0.013 -0.3442 -0.0343 -0.0013
 4778W        W21626   5.373   6.846  13.748 -0.0652 -0.4339  0.2110
 4779W        W21627   2.652   5.651   1.197 -0.2030 -0.1647 -0.0109
 4780W        W21628  14.526   6.675  12.219  0.0495  0.1004  0.0508
 4781W        W21629  10.334  11.800   4.602  0.1437  0.1638 -0.1923
 4782W        W21630  11.979  12.576  13.528 -0.3145 -0.2409  0.0921
 4783W        W21631   8.060  10.539   4.962 -0.1584  0.1490 -0.1261
 4784W        W21632   1.238  15.053  16.257  0.0369  0.1600 -0.3234
 4785W        W21633  17.332   9.158   1.711 -0.0025  0.1549  0.0485
 4786W        W21634   4.999   4.598   0.024  0.0430  0.1248 -0.0455
 4787W        W21635   3.142   5.512  16.029 -0.0547  0.1139  0.1770
 4788W        W21636   4.550  14.251   1.540  0.0561  0.1997 -0.0825
 4789W        W21637  15.688   3.334  14.614  0.1646  0.0460 -0.0514
 4790W        W21638  15.452   7.563  13.468 -0.1359  0.1546 -0.2152
 4791W        W21639   4.089   4.075  14.166  0.0840  0.2000 -0.0749
 4792W        W21640   2.766   1.772  11.565 -0.5072 -0.2367  0.0270
 4793W        W21641  14.761  15.109   5.427 -0.1052 -0.1955  0.0419
 4794W        W21642   3.992   6.438   3.078 -0.0379  0.1605 -0.1012
 4795W        W21643   2.267  10.404  11.723 -0.1164 -0.1565 -0.1827
 4796W        W21644   8.518   4.065  15.075 -0.3220 -0.1711 -0.0306
 4797W        W21645   0.004  11.291   2.654  0.1030 -0.2062  0.0043
 4798W        W21646  17.844   7.460  11.540  0.3533 -0.0318 -0.1693
 4799W        W21647  10.951   9.685  12.506 -0.0442  0.1226  0.1666
 4800W        W21648   4.249   2.073   0.768  0.2279 -0.0861  0.1285
 4801W        W21649   2.657  17.164   3.034  0.0743  0.2415 -0.1331
 4802W        W21650   1.201   7.438   3.651  0.1227  0.2748 -0.0703
 4803W        W21651  12.297  12.886  13.221 -0.0447 -0.2539  0.1364
 4804W        W21652   2.558   8.652   3.449  0.0397  0.1759 -0.0135
 4805W        W21653   3.308  16.609   2.319  0.0577 -0.0126 -0.0382
 4806W        W21654  16.473   3.393  15.908  0.1280  0.0976  0.1076
 4807W        W21655   7.655   5.639   1.902 -0.1698 -0.1066 -0.1480
 4808W        W21656   7.903   3.523   4.155 -0.1523 -0.1621  0.0403
 4809W        W21657   4.010   1.404   3.647 -0.2690  0.0882 -0.4114
 4810W        W21658   9.481   4.953  16.433 -0.2523  0.0524 -0.0102
 4811W        W21659  10.883   9.284   3.006 -0.1148  0.0791  0.0863
 4812W        W21660  17.410  16.240  15.436  0.3768 -0.0069  0.2001
 4813W        W21661   0.904   6.019   2.689  0.0029  0.1174  0.0556
 4814W        W21662   3.069  16.318   6.055  0.1366  0.1861  0.0213
 4815W        W21663  14.512  12.236   2.146 -0.0651  0.1429  0.1727
 4816W        W21664  14.057   9.520   5.263 -0.0840  0.0678 -0.0788
 4817W        W21665   6.466  14.745  15.839 -0.0386 -0.3816 -0.1225
 4818W        W21666   6.432   2.361  10.557  0.2218  0.1513  0.3965
 4819W        W21667  15.506   1.977   1.352  0.1513  0.3586 -0.0485
 4820W        W21668  12.130   2.781   4.757  0.0596 -0.1624  0.1189
 4821W        W21669  15.966   5.427   2.438  0.0603  0.0517  0.0729
 4822W        W21670   1.053   2.452   2.562 -0.0755 -0.2708  0.0324
 4823W        W21671  14.460   8.617  12.131  0.0710 -0.0468 -0.0190
 4824W        W21672   4.350   8.698  15.055  0.2262  0.0716 -0.1345
 4825W        W21673   7.992  13.973   1.555 -0.3030 -0.0180  0.0244
 4826W        W21674  14.131   3.625   4.781 -0.0643 -0.1250  0.3664
 4827W        W21675   4.033   0.947  16.023  0.2133  0.0757 -0.3797
 4828W        W21676   3.487   7.578  11.274  0.1152  0.1260  0.3092
 4829W        W21677   0.780   3.623  13.418  0.0182 -0.0107  0.1567
 4830W        W21678  17.203  14.979   2.632 -0.0491 -0.0008  0.0132
 4831W        W21679  15.762  15.821  16.623 -0.0441 -0.1670 -0.1821
 4832W        W21680  10.375   5.726  13.060  0.0504 -0.3236 -0.0187
 4833W        W21681  14.260  14.222  13.769  0.1859  0.0378 -0.2094
 4834W        W21682   6.389  14.158   4.935  0.2017  0.1491 -0.3611
 4835W        W21683  11.928   2.291  11.791  0.0777  0.0365  0.2143
 4836W        W21684   3.735  10.177   1.003  0.0643 -0.2297 -0.1611
 4837W        W21685   8.083  14.699  13.901 -0.2618 -0.2252 -0.0035
 4838W        W21686   1.038  11.803   4.626  0.0949 -0.0815 -0.1570
 4839W        W21687   6.235   1.005  11.715 -0.4364 -0.1175 -0.4113
 4840W        W21688   3.392   8.914  12.059  0.1148  0.0612 -0.2807
 4841W        W21689   0.849   7.348  13.589 -0.0620  0.0329 -0.2378
 4842W        W21690  17.203  10.226  12.901  0.5294 -0.0721 -0.0946
 4843W        W21691   9.430   9.383  15.227 -0.0007  0.2601  0.0217
 4844W        W21692   9.693  14.593   1.085 -0.0153  0.1037  0.1791
 4845W        W21693  17.191  11.989   2.370  0.1759 -0.0508 -0.2219
 4846W        W21694  16.884   3.107  12.416 -0.0545  0.1501  0.1455
 4847W        W21695  10.766   6.615   5.615  0.2195 -0.0853  0.0133
 4848W        W21696   3.562   7.404   1.307 -0.0197  0.0258 -0.0467
 4849W        W21697   2.134  15.291  13.446 -0.0168 -0.2812  0.0470
 4850W        W21698   0.818   3.552   0.802 -0.1740  0.0861 -0.2976
 4851W        W21699  13.326  12.296  16.585  0.3636  0.0668  0.1152
 4852W        W21700   1.528  10.323   3.419 -0.0339  0.0230  0.2153
 4853W        W21701   2.768   8.464   1.982 -0.0445  0.1266  0.1621
 4854W        W21702   5.321   2.322  13.223 -0.1799  0.0444  0.3317
 4855W        W21703   4.813  11.374   5.102 -0.0397 -0.1621 -0.0818
 4856W        W21704   7.797  11.577   0.539  0.0183 -0.3047  0.2273
 4857W        W21705   5.727  11.158  15.274 -0.1712 -0.1544 -0.2054
 4858W        W21706  16.699  16.752  13.534  0.2188 -0.0495 -0.3041
 4859W        W21707   9.589  11.528  13.833 -0.0862  0.2264  0.1214
 4860W        W21708   6.129   8.256  14.854  0.1672  0.0830 -0.0035
 4861W        W21709   5.956   0.832  14.362 -0.1521 -0.0308  0.1518
 4862W        W21710  11.070  13.165  11.517  0.1445 -0.1101 -0.1070
 4863W        W21711   7.999   7.808  12.029 -0.1128 -0.3228  0.1853
 4864W        W21712   2.275   5.637  12.581 -0.2886 -0.0156 -0.0157
 4865W        W21713   8.077   9.878   1.386  0.2802 -0.0291 -0.1251
 4866W        W21714   3.172   1.112   1.211 -0.2164  0.0250  0.0301
 4867W        W21715  10.173  13.229  13.649  0.1717  0.0718 -0.0983
 4868W        W21716   7.104   8.644   3.375 -0.0174  0.0168  0.0038
 4869W        W21717   7.808   4.989   3.295 -0.1287  0.0591 -0.0157
 4870W        W21718  16.185  13.928  13.415 -0.3833  0.2750  0.3546
 4871W        W21719  12.832  11.160   4.189 -0.0695  0.0949  0.1639
 4872W        W21720  11.043   4.543  14.348  0.2072 -0.1474  0.0199
 4873W        W21721  16.134  13.612  14.318  0.1219  0.3356 -0.1254
 4874W        W21722   0.268   9.502   3.185 -0.0250 -0.0791 -0.2535
 4875W        W21723  15.508   5.752   1.731 -0.0254 -0.2474  0.3630
 4876W        W21724  16.763   4.486   0.488  0.2365 -0.0796  0.3218
 4877W        W21725  10.470   8.609  15.721  0.2505 -0.1137 -0.0180
 4878W        W21726  13.644   1.623   0.756 -0.3540  0.0930  0.1916
 4879W        W21727  14.274   9.307  15.316  0.0663 -0.1935 -0.0621
 4880W        W21728   5.785   0.211  11.712 -0.2934  0.1669  0.2375
 4881W        W21729  15.515   7.668   5.050  0.1881 -0.2406 -0.0869
 4882W        W21730  12.794  17.712  11.680 -0.0795 -0.2027  0.2124
 4883W        W21731   5.053  17.061  16.401  0.0513  0.4187 -0.0568
 4884W        W21732   1.526   1.395  16.402 -0.1438 -0.0248  0.0443
 4885W        W21733   0.579  10.108   4.381  0.0483  0.3544  0.1481
 4886W        W21734   9.043   8.642  12.837 -0.1103 -0.1072  0.2985
 4887W        W21735   8.748   8.005  15.945 -0.1723  0.0105  0.2306
 4888W        W21736  16.687   8.875  13.439 -0.0697 -0.0909  0.0050
 4889W        W21737   1.031   6.387  15.837  0.1341 -0.1660  0.0647
 4890W        W21738   6.759   6.863  11.954  0.0870  0.0718  0.2095
 4891W        W21739   1.339   6.097   0.100  0.2146 -0.4282 -0.1322
 4892W        W21740   8.374  16.045  16.401  0.2622 -0.0782 -0.1070
 4893W        W21741  12.586   8.112  11.316 -0.1284  0.0596 -0.1362
 4894W        W21742  17.325  10.858   4.541  0.0315  0.0576  0.1529
 4895W        W21743  14.587   9.755  15.096  0.0579  0.3104 -0.0271
 4896W        W21744   4.605  11.262   0.677  0.2687 -0.4031 -0.1377
 4897W        W21745  12.293   4.172  12.481  0.2746  0.1536  0.3191
 4898W        W21746  17.544  14.544  14.282 -0.2752 -0.1461  0.0257
 4899W        W21747  17.307   8.492   5.408  0.2890 -0.0892 -0.0805
 4900W        W21748  17.858   4.240  15.340 -0.2125  0.1055 -0.1449
 4901W        W21749   1.806  12.977   1.849  0.0729 -0.1701  0.0046
 4902W        W21750   5.400  11.255   0.878  0.0424  0.0766  0.0217
 4903W        W21751  15.588   6.438   3.747  0.3403  0.2437  0.1429
 4904W        W21752  10.744  15.890   3.462  0.2525  0.1325  0.0324
 4905W        W21753   3.615   7.096   4.931 -0.2242 -0.2900 -0.1771
 4906W        W21754   7.892  12.364   4.608 -0.1475  0.2559 -0.1681
 4907W        W21755   4.454  16.411  16.454  0.0280 -0.0028 -0.1226
 4908W        W21756   6.981   8.155  16.078 -0.2225 -0.4075  0.0105
 4909W        W21757  10.239   5.914   1.832  0.1980 -0.4495 -0.0714
 4910W        W21758  16.116  13.313  12.891 -0.0293 -0.0246 -0.5752
 4911W        W21759   1.753   8.837  14.772  0.2903 -0.2318  0.3992
 4912W        W21760  11.406  16.440   0.395 -0.0260 -0.3358 -0.1231
 4913W        W21761   3.990  14.813   4.699  0.1106  0.0919  0.1856
 4914W        W21762   5.232  10.025  15.247  0.3867  0.0658  0.0945
 4915W        W21763   7.296   9.500  12.488  0.2048  0.1435  0.1383
 4916W        W21764   8.013  10.774   3.023 -0.0754  0.0496 -0.1994
 4917W        W21765   2.896  16.238  14.657  0.0778 -0.1779  0.3380
 4918W        W21766   8.704   1.739  12.443 -0.0239 -0.1347 -0.0301
 4919W        W21767   3.141   0.140  15.610 -0.2250 -0.1384 -0.0984
 4920W        W21768   8.600   6.435  14.597  0.0274  0.2786 -0.1802
 4921W        W21769  10.809   5.867  10.766 -0.1595 -0.0776 -0.2226
 4922W        W21770   0.702  14.407  11.299 -0.1096 -0.1893  0.1483
 4923W        W21771   1.355  16.657   4.595  0.0148  0.0349  0.1070
 4924W        W21772   7.668   9.647   2.367  0.1176 -0.0196 -0.1534
 4925W        W21773   3.726   9.431   2.113  0.1638 -0.3292 -0.0255
 4926W        W21774   5.642  15.664   1.422 -0.0860 -0.0626  0.1528
 4927W        W21775   5.170  16.937  11.604  0.0876  0.1131  0.0102
 4928W        W21776  16.448   4.371   0.095  0.0178 -0.2288 -0.3683
 4929W        W21777   7.546  12.505  16.212  0.0225 -0.0478  0.0977
 4930W        W21778   9.266   9.153   2.835 -0.0429  0.0764  0.0465
 4931W        W21779   9.117   0.579  14.413 -0.1405 -0.1063  0.5381
 4932W        W21780   7.301   7.647   3.422  0.3098 -0.1326 -0.0959
 4933W        W21781   4.597   8.412   3.234  0.1672  0.2726 -0.0764
 4934W        W21782   7.611   8.590   0.382  0.2173 -0.2505  0.0472
 4935W        W21783  15.791   0.021   3.642 -0.1087  0.3253 -0.3204
 4936W        W21784   1.486   4.148  13.240  0.0489  0.1145  0.1674
 4937W        W21785   9.261   8.422   0.530 -0.1507 -0.0488  0.0881
 4938W        W21786   7.854  14.871   3.829  0.1123  0.1570 -0.0409
 4939W        W21787  10.039   4.704  15.607 -0.0048 -0.0836 -0.1440
 4940W        W21788  15.657   0.129   5.898 -0.2495 -0.1651  0.0553
 4941W        W21789   9.002   3.631   5.723  0.1551  0.0114 -0.0365
 4942W        W21790  13.401  10.789  14.086 -0.1403  0.1529 -0.3048
 4943W        W21791   2.826  14.979   5.338 -0.1182  0.0851  0.0157
 4944W        W21792   3.942   0.338  16.586  0.2080  0.1858  0.0523
 4945W        W21793  15.091   8.002  11.098 -0.0616  0.0574  0.2913
 4946W        W21794  10.830   9.857   3.407 -0.0515 -0.1074 -0.1662
 4947W        W21795  10.986   6.586   5.173 -0.1561  0.0956 -0.0982
 4948W        W21796  13.312   9.546   4.547  0.1749 -0.1506  0.1021
 4949W        W21797  10.015   1.412   6.116 -0.0364  0.1851 -0.0445
 4950W        W21798   5.580  16.595   3.002 -0.1615 -0.0544  0.2709
 4951W        W21799  12.127  16.288  14.072  0.0452  0.4400  0.1832
 4952W        W21800   9.395  13.847   0.675 -0.0906  0.1189 -0.0193
 4953W        W21801  13.084  15.088  13.467  0.2020  0.3092 -0.1744
 4954W        W21802   9.235  16.146   1.259 -0.1340 -0.1660 -0.1842
 4955W        W21803  12.866   1.873  14.859 -0.2217  0.4008 -0.0782
 4956W        W21804   2.494   1.479  13.569  0.1448 -0.1319  0.0175
 4957W        W21805  11.811   7.620   2.053  0.0276 -0.0614 -0.4673
 4958W        W21806  11.642   8.890   1.631 -0.4043 -0.0288 -0.2542
 4959W        W21807  17.245  15.541  13.327  0.0554  0.1774  0.0612
 4960W        W21808  11.286   9.106  16.582 -0.1051 -0.0983 -0.1392
 4961W        W21809   3.331  15.347   4.812 -0.0046 -0.1313  0.0330
 4962W        W21810   1.815  15.469  14.805 -0.3500 -0.0704  0.0600
 4963W        W21811   8.444   9.730  13.149  0.0245  0.1589 -0.0640
 4964W        W21812   8.491   8.830   2.926  0.1416 -0.1806  0.1997
 4965W        W21813   3.632   9.387   3.662  0.2490 -0.0741 -0.0495
 4966W        W21814  16.627  11.112  12.518 -0.1236 -0.0292 -0.0220
 4967W        W21815  11.537  13.856  11.655 -0.0381  0.2184 -0.3015
 4968W        W21816   8.054  14.004   2.108  0.1541  0.1288  0.2499
 4969W        W21817  17.437   2.166  14.880 -0.3698  0.1132 -0.2947
 4970W        W21818  13.597   2.461   2.306  0.1367  0.1049  0.1199
 4971W        W21819  10.430   6.380  13.231  0.1323 -0.0607 -0.0861
 4972W        W21820   5.286  15.008  14.237 -0.2683  0.0375  0.0425
 4973W        W21821   3.459  10.811   1.599  0.0599  0.2262  0.0287
 4974W        W21822   6.964  14.867   2.625 -0.0420 -0.3921 -0.2160
 4975W        W21823   3.721   3.207  12.748  0.0144 -0.2320  0.0122
 4976W        W21824  13.817   4.868   4.279  0.1310 -0.4512 -0.2172
 4977W        W21825   8.220   2.488  13.198  0.0483 -0.2210 -0.0100
 4978W        W21826  17.344  10.985  11.734  0.0182 -0.0366  0.1264
 4979W        W21827   7.973   9.416   1.740 -0.3382  0.0691 -0.0789
 4980W        W21828   7.455  15.127  13.556  0.1415 -0.1262 -0.3069
 4981W        W21829  11.796   0.302  14.389  0.2610  0.1338  0.3587
 4982W        W21830  11.858   0.412   1.372  0.2923  0.3423 -0.2073
 4983W        W21831   4.240  10.542  12.858 -0.1198 -0.2167 -0.0746
 4984W        W21832   1.665   1.363  15.831  0.1854  0.1252  0.3369
 4985W        W21833   6.353   4.746   2.005  0.0280 -0.3178  0.2409
 4986W        W21834  14.935   5.597   1.462 -0.0450 -0.0500  0.0486
 4987W        W21835   6.767   1.455  12.886 -0.2061 -0.2250  0.4118
 4988W        W21836   0.654  10.880   0.699  0.5035  0.0458 -0.1843
 4989W        W21837   5.063   4.128  16.362  0.2663  0.0261 -0.3267
 4990W        W21838   2.798  14.601   3.915  0.0455 -0.2760  0.0803
 4991W        W21839  15.463   0.091   4.006 -0.0152 -0.0074  0.0431
 4992W        W21840  14.921  14.305  12.309  0.1230 -0.1369 -0.0076
 4993W        W21841   2.005  10.076   4.688  0.0281  0.1931 -0.1486
 4994W        W21842   9.568  16.624  15.343  0.2125 -0.2851  0.0815
 4995W        W21843   1.561   8.420   5.151  0.3337 -0.1899 -0.2871
 4996W        W21844  14.420   8.114   4.464  0.1622 -0.0795 -0.2588
 4997W        W21845   5.119  15.566  13.541 -0.0089 -0.0966 -0.0598
 4998W        W21846   7.394   5.497  11.743  0.0455 -0.0397 -0.0494
 4999W        W21847   6.204   4.644   1.507  0.0993  0.2116  0.1174
 5000W        W21848  10.627   4.258   3.799 -0.1181 -0.1249 -0.5438
 5001W        W21849   8.452  11.215  12.983 -0.0995  0.0220 -0.0348
 5002W        W21850   5.815   5.798  16.116  0.1318 -0.0535  0.2088
 5003W        W21851   7.315   3.014  13.129 -0.1448  0.0308  0.0153
 5004W        W21852   3.046  16.826   3.761 -0.0154 -0.3728 -0.0797
 5005W        W21853   6.039   3.502  12.791 -0.4532  0.0705 -0.1534
 5006W        W21854  16.349   4.126   2.180 -0.1462  0.0554  0.2084
 5007W        W21855   7.470  12.009  12.731  0.2321 -0.0361 -0.2600
 5008W        W21856  12.753  12.943  12.724  0.3675 -0.1486 -0.0495
 5009W        W21857   7.722   4.506  13.772  0.1943  0.0907  0.0866
 5010W        W21858  17.684   9.640  15.647  0.0518  0.2505  0.0028
 5011W        W21859   3.110  14.447  12.823 -0.3109 -0.1408 -0.0621
 5012W        W21860   9.507  11.303  12.077 -0.0744 -0.2631 -0.2952
 5013W        W21861   9.057  11.246   6.056  0.3802 -0.2250  0.1514
 5014W        W21862   6.086  17.562  15.226  0.0492 -0.1401  0.1622
 5015W        W21863  10.851  10.636  15.616  0.1314  0.1559 -0.1408
 5016W        W21864  15.640  10.109   3.112 -0.2038  0.1088  0.0029
 5017W        W21865  17.058   2.756   1.395 -0.1134 -0.0000  0.0667
 5018W        W21866  10.772   3.828   3.663  0.1895  0.2219 -0.0846
 5019W        W21867  17.299   8.551  14.651  0.3371 -0.0811  0.0703
 5020W        W21868   5.807   2.705  15.522 -0.2889  0.0651 -0.1883
 5021W        W21869  10.502  15.332   0.411 -0.4244 -0.1351 -0.1716
 5022W        W21870   0.341  12.775  15.272  0.1237 -0.2158  0.0409
 5023W        W21871  11.165   2.571   3.831 -0.0715 -0.2157 -0.3657
 5024W        W21872   5.821   2.025   1.577  0.0882  0.2677  0.0699
 5025W        W21873   4.506  16.276   5.011  0.1554  0.1363 -0.0155
 5026W        W21874   6.844   6.309   3.020  0.0262 -0.1916  0.2301
 5027W        W21875   4.908  13.455   3.650 -0.2715 -0.1098 -0.1756
 5028W        W21876   8.715   4.405   1.347 -0.0175 -0.2515 -0.2174
 5029W        W21877   3.212  15.103  14.080  0.1516 -0.2468  0.0212
 5030W        W21878  11.792  16.590   3.091  0.5974  0.2855  0.0638
 5031W        W21879  12.294  16.213  16.230  0.3071  0.2095  0.1370
 5032W        W21880  12.690   7.371   0.865  0.0492 -0.0023 -0.1820
 5033W        W21881  12.322   2.935  12.977  0.0757  0.1391  0.0101
 5034W        W21882   9.888   4.540   1.375  0.0888  0.1986 -0.0022
 5035W        W21883  14.030   5.752   3.397  0.0219  0.0209 -0.0270
 5036W        W21884  12.630  13.952  14.218  0.0404 -0.0128  0.0836
 5037W        W21885  17.688  14.580  16.127  0.1920 -0.3348  0.0171
 5038W        W21886   4.142   5.679   1.233 -0.1033  0.0501  0.1188
 5039W        W21887   8.810   7.979  12.016 -0.2205 -0.1468 -0.1447
 5040W        W21888  12.121   5.776   1.089 -0.1988  0.0599  0.1584
 5041W        W21889   1.233  13.653   2.350  0.0750 -0.0717 -0.2631
 5042W        W21890   9.579  10.296   1.875 -0.0710 -0.2459 -0.1026
 5043W        W21891   4.459  12.722   2.628 -0.0483  0.0814 -0.2660
 5044W        W21892   0.787  14.994   0.540 -0.1302  0.2043  0.1362
 5045W        W21893  10.064  11.430  11.681  0.0026 -0.1581  0.4275
 5046W        W21894   8.203   6.294  16.361  0.1855 -0.1038  0.0489
 5047W        W21895  12.021   7.941   0.901 -0.0433  0.0705 -0.1109
 5048W        W21896  10.985  16.995   2.585 -0.0506  0.0535  0.0993
 5049W        W21897   7.884   9.032   3.247  0.1038  0.0703 -0.2666
 5050W        W21898   0.310   2.290  14.900 -0.1145  0.2186  0.1477
 5051W        W21899  15.189   4.592   3.150  0.3039 -0.0354 -0.2801
 5052W        W21900   1.142   2.448  12.721 -0.1387  0.1297  0.1335
 5053W        W21901   6.424   6.353   3.484  0.0730 -0.0418  0.0059
 5054W        W21902   4.008  10.177  12.549  0.0537  0.0253  0.2647
 5055W        W21903   0.864  12.369  16.028  0.3138  0.0010 -0.0609
 5056W        W21904   4.922   4.785  13.375 -0.0164 -0.0695  0.0973
 5057W        W21905   8.997  12.924  12.417 -0.2863 -0.0807  0.0019
 5058W        W21906   7.482   3.918   4.133  0.2682  0.0231 -0.1492
 5059W        W21907   5.486   0.246   3.157  0.1027 -0.0488  0.0955
 5060W        W21908   5.201  13.733   0.188 -0.1329  0.2259  0.1038
 5061W        W21909   6.024  11.822  13.809  0.0321 -0.0399 -0.3325
 5062W        W21910   6.169   0.505  13.369 -0.0526  0.0691  0.0684
 5063W        W21911   4.228  10.959  13.682 -0.1043  0.2419  0.1536
 5064W        W21912   0.479   6.923   1.812  0.1215 -0.1450  0.0181
 5065W        W21913   8.221  13.142  14.664 -0.1556 -0.0803 -0.0158
 5066W        W21914   9.134  15.038   5.920 -0.0693 -0.2908  0.1219
 5067W        W21915   4.861   7.434   1.687  0.2454  0.0718 -0.1187
 5068W        W21916   6.282   1.788   1.293  0.2191 -0.1602  0.1839
 5069W        W21917   1.686  16.609   2.121  0.2717 -0.0741 -0.1462
 5070W        W21918   0.962   5.010   4.291 -0.1065  0.1094 -0.0560
 5071W        W21919  16.871   2.837   0.855 -0.0660 -0.0517  0.1977
 5072W        W21920  10.268   3.082   1.822 -0.0478  0.0883  0.1510
 5073W        W21921  10.744   2.493  15.492 -0.1988  0.0669  0.0051
 5074W        W21922   2.368   9.879  15.111  0.2268 -0.0463 -0.0199
 5075W        W21923  16.066   6.646   0.994 -0.1568 -0.0401 -0.1576
 5076W        W21924   0.067  14.659  15.585 -0.4833  0.0138 -0.0918
 5077W        W21925  10.376   3.949   2.348  0.1757  0.0005  0.0706
 5078W        W21926   4.589  12.449  12.910 -0.0005  0.0337  0.2883
 5079W        W21927   7.547   7.176  13.610 -0.1947  0.2496 -0.0928
 5080W        W21928   6.759  17.525  16.376  0.0205  0.1803 -0.3269
 5081W        W21929   5.256   9.650   1.373  0.3106  0.2923  0.3223
 5082W        W21930   2.480  11.029  13.144 -0.1835  0.2944  0.1826
 5083W        W21931   7.322   3.340   1.088 -0.0977 -0.0745  0.0201
 5084W        W21932   0.078   5.401   2.350  0.1033  0.0613 -0.3325
 5085W        W21933  16.642  11.033  15.321  0.0048 -0.1025 -0.1783
 5086W        W21934  14.231   0.434  11.865  0.0414  0.1574 -0.0349
 5087W        W21935  14.170  10.661   3.375  0.2381  0.1802 -0.0405
 5088W        W21936   0.655   9.157   1.662 -0.0221  0.0314 -0.1656
 5089W        W21937   3.727  15.081   5.080 -0.1807  0.1170 -0.1141
 5090W        W21938   1.232   7.442   5.139 -0.0714 -0.0335  0.3549
 5091W        W21939   1.952   3.522   3.831 -0.1162  0.0380 -0.0336
 5092W        W21940   6.277   6.546   3.048  0.3479  0.1249 -0.1566
 5093W        W21941   3.721  15.278   1.360  0.2264  0.1961  0.1099
 5094W        W21942   3.318   2.343   3.000  0.2457 -0.1251 -0.2577
 5095W        W21943  14.116   7.781  14.514 -0.5607 -0.0088 -0.1571
 5096W        W21944   7.917  12.947  15.263  0.0219 -0.2407 -0.0131
 5097W        W21945   7.599  10.363   2.948  0.1747 -0.0752 -0.0574
 5098W        W21946  10.275   9.961   0.228 -0.1215 -0.0977  0.4526
 5099W        W21947   8.722   5.396   4.126  0.2039  0.1703 -0.2316
 5100W        W21948  16.158  17.346   3.810  0.4373  0.1652  0.0341
 5101W        W21949   6.764  11.760   2.639 -0.0740 -0.1701 -0.0428
 5102W        W21950   1.685   5.019   1.063  0.0228  0.0164 -0.1734
 5103W        W21951  17.087   1.327  14.745 -0.0727  0.1400 -0.2685
 5104W        W21952  15.981   5.401  12.933 -0.1501 -0.2526  0.0750
 5105W        W21953  11.783   2.477   3.126 -0.0989  0.0816 -0.2928
 5106W        W21954  12.212  16.547   0.936  0.0130 -0.1801  0.0618
 5107W        W21955   2.670  16.072  11.091  0.0518 -0.1725 -0.0208
 5108W        W21956  17.324   3.786   2.460 -0.0264  0.1305  0.1040
 5109W        W21957   9.118  11.730  13.906 -0.2282 -0.0097 -0.1085
 5110W        W21958  12.848  17.283  12.081 -0.1047  0.2779  0.2002
 5111W        W21959  14.856   4.082  14.416  0.0390  0.0897  0.4900
 5112W        W21960  14.246   0.173   2.234 -0.2096  0.0468  0.0913
 5113W        W21961  17.204   3.152   0.981  0.0420 -0.2715 -0.2565
 5114W        W21962   5.026  14.142  16.515  0.1175  0.1724 -0.1238
 5115W        W21963   1.322  12.493   4.455  0.0492 -0.3180 -0.0066
 5116W        W21964   0.453   2.426   4.503 -0.0435  0.3466 -0.0652
 5117W        W21965   8.204  16.536  14.982 -0.2380  0.1668  0.0615
 5118W        W21966  12.769  12.451   2.399  0.1612 -0.0094  0.1039
 5119W        W21967   8.597  10.892  14.490  0.2181  0.1011 -0.2740
 5120W        W21968  13.702  16.374   3.245 -0.3509 -0.1718  0.1325
 5121W        W21969   3.708   9.190  15.816 -0.1943  0.2991 -0.2626
 5122W        W21970  17.214   1.942  15.474  0.0419 -0.0590 -0.5474
 5123W        W21971   0.375   2.288  15.731  0.1233  0.2129 -0.0737
 5124W        W21972  10.303   8.363  16.292 -0.3854 -0.0336 -0.2526
 5125W        W21973  12.660  12.095  12.941  0.0206 -0.1590 -0.1012
 5126W        W21974  15.917  10.902   2.179  0.3152  0.1718  0.1023
 5127W        W21975   1.238   1.104   5.401 -0.1641 -0.1519  0.0667
 5128W        W21976   2.386  10.622  14.425 -0.2205 -0.0965  0.3070
 5129W        W21977   4.013   9.831   4.750 -0.0201  0.0635 -0.0234
 5130W        W21978   9.181  15.194   0.891  0.0245  0.3662 -0.2322
 5131W        W21979   8.746  17.854   5.140 -0.2212  0.1079  0.0978
 5132W        W21980  13.952   5.233   0.038 -0.1867 -0.0807 -0.1362
 5133W        W21981   5.851  15.194   3.379  0.0146 -0.0234  0.2291
 5134W        W21982   2.061  14.462   2.848  0.0157 -0.0192 -0.2681
 5135W        W21983   8.332  16.322  13.164  0.0985 -0.2954  0.0606
 5136W        W21984   1.184   1.741  15.367 -0.1863  0.0196  0.0065
 5137W        W21985  10.779  12.828  14.946 -0.1202 -0.1601 -0.2741
 5138W        W21986   9.326   1.530  15.579  0.1100  0.1931 -0.4507
 5139W        W21987   2.768   1.148  15.502  0.1773 -0.0595  0.1965
 5140W        W21988  13.660  16.987   0.770 -0.0427 -0.1940 -0.3347
 5141W        W21989  15.544   0.896  15.956  0.2608  0.1400 -0.1795
 5142W        W21990  14.536   2.209   2.335  0.1487  0.5218  0.0142
 5143W        W21991   9.608   5.930  13.174  0.0009 -0.0833  0.0679
 5144W        W21992  16.956  16.797   2.512 -0.1876  0.1162  0.0903
 5145W        W21993   0.712  14.453   4.757  0.1138  0.0386  0.4617
 5146W        W21994  15.413   1.286   0.122  0.0923  0.0503 -0.0003
 5147W        W21995   1.413  11.258  11.178 -0.0678 -0.1772  0.0810
 5148W        W21996   8.985  13.515  16.417 -0.2926  0.1512  0.0350
 5149W        W21997  14.842  14.330   2.225 -0.0678 -0.1125  0.0488
 5150W        W21998   1.428   5.696   1.870 -0.0347  0.0425  0.3765
 5151W        W21999  17.577   0.394   4.354 -0.0771 -0.0471  0.1075
 5152W        W22000   4.765   3.066  14.171  0.0580  0.0895 -0.0415
 5153W        W22001  13.428   8.631   1.688 -0.0592 -0.1733  0.1895
 5154W        W22002  15.746   7.553  13.891 -0.0127  0.1694  0.1498
 5155W        W22003   6.167   9.271  15.692 -0.1983 -0.0996  0.0894
 5156W        W22004  11.970   7.834   0.359 -0.0973 -0.0056  0.1439
 5157W        W22005  13.826  15.707   2.639  0.2138  0.0783  0.2409
 5158W        W22006   6.141  12.799  11.274 -0.4595 -0.1049 -0.2401
 5159W        W22007   0.282   2.894  14.258  0.2702  0.2103  0.3417
 5160W        W22008   5.400  16.071   4.014 -0.1042 -0.0782  0.1468
 5161W        W22009   9.106   0.296   1.279 -0.2040 -0.2127 -0.1573
 5162W        W22010  16.103  15.390  15.885 -0.1329  0.2734 -0.0738
 5163W        W22011  11.167   4.709   0.107  0.0609  0.2286  0.1273
 5164W        W22012  16.155  12.838   4.632  0.2751  0.0097 -0.2193
 5165W        W22013  16.887  16.339   5.047  0.2712 -0.4732  0.1399
 5166W        W22014   2.545  15.107  14.718 -0.0493  0.0669  0.0148
 5167W        W22015   7.984   3.122  14.230  0.2113 -0.1177 -0.0019
 5168W        W22016   7.268   9.993   2.822 -0.0776 -0.0525  0.0499
 5169W        W22017  13.599  10.963  15.673 -0.3179  0.0865 -0.2015
 5170W        W22018   2.059   2.957   1.827  0.2304  0.0934 -0.0622
 5171W        W22019   2.727   9.772  15.465  0.1510 -0.1138  0.3298
 5172W        W22020  14.877  10.672   4.166  0.1082  0.1156  0.1733
 5173W        W22021   7.673   3.571   1.899  0.1047  0.2089  0.2305
 5174W        W22022  11.907  11.368   4.555  0.3244 -0.1739  0.0363
 5175W        W22023   6.861   6.528   4.244 -0.1129  0.0171 -0.1193
 5176W        W22024  16.783   1.600   4.086 -0.1346 -0.2071 -0.0472
 5177W        W22025  16.869  16.488   2.900  0.0251  0.3094  0.2106
 5178W        W22026   7.276  13.979  14.248 -0.1212  0.1695  0.3322
 5179W        W22027   9.490  12.100  16.338  0.1012  0.4149 -0.0282
 5180W        W22028  11.475   2.024  11.691  0.0075 -0.0314  0.1591
 5181W        W22029   7.216   0.931  11.816 -0.0503 -0.3567  0.2212
 5182W        W22030  16.064  15.789  12.632  0.4224 -0.0704 -0.1215
 5183W        W22031  15.741  14.997  13.215 -0.0708  0.0420  0.1924
 5184W        W22032  17.297   0.962  13.022 -0.0387  0.1496  0.0439
 5185W        W22033   9.527   3.470  13.226 -0.4023  0.1526 -0.2275
 5186W        W22034  16.558   4.993   5.125  0.2400  0.0789 -0.0854
 5187W        W22035   1.355  14.920   2.934 -0.0461 -0.0891 -0.0600
 5188W        W22036   7.155   7.084   4.786  0.1589  0.1359  0.0227
 5189W        W22037  14.495  13.434   3.774 -0.1669  0.2060 -0.2565
 5190W        W22038  15.007   4.199  15.186  0.1804  0.0059 -0.2775
 5191W        W22039  12.480  13.600  14.658 -0.1632  0.0353 -0.3310
 5192W        W22040   5.884  17.742   4.595 -0.2175 -0.0364  0.1260
 5193W        W22041   5.612  11.535  15.606  0.2297  0.2157  0.0568
 5194W        W22042  10.709  16.090   1.619  0.1066 -0.1573 -0.0097
 5195W        W22043   9.283   7.892  12.210  0.1520 -0.2125  0.0260
 5196W        W22044  17.041  15.525   4.690 -0.3085  0.0887 -0.1792
 5197W        W22045   7.955   4.017   1.168  0.2741 -0.1560  0.0158
 5198W        W22046   3.857   0.050   3.107  0.1364  0.0154  0.1005
 5199W        W22047   1.630   8.304   4.623  0.1040 -0.1631 -0.0259
 5200W        W22048  11.993  14.710  14.176 -0.0535 -0.0780 -0.0448
 5201W        W22049  16.515  17.424   2.900 -0.0188 -0.2078 -0.0788
 5202W        W22050   4.925   5.269  14.107 -0.1591  0.1518  0.1149
 5203W        W22051  15.568   2.376   3.656  0.1047 -0.0090 -0.1779
 5204W        W22052   1.469   1.702  14.460 -0.1094 -0.0667  0.2590
 5205W        W22053  14.884  14.818   1.944 -0.2035 -0.0151 -0.1189
 5206W        W22054  10.060   3.557   2.015  0.0081 -0.1627 -0.2793
 5207W        W22055   7.053  15.048  12.492  0.2740  0.1179  0.3420
 5208W        W22056   1.310   6.174  13.186  0.1211 -0.4855 -0.1641
 5209W        W22057  16.974   2.637  11.210 -0.1939  0.1627  0.2774
 5210W        W22058   3.273  12.574   5.546 -0.2796 -0.0451  0.0521
 5211W        W22059  10.809  16.036   0.933  0.2692  0.0386 -0.0624
 5212W        W22060   6.919   4.624  15.398 -0.0628  0.0149  0.0013
 5213W        W22061   6.491  13.351  12.767  0.0668  0.1607  0.0778
 5214W        W22062  11.677  14.648  12.177 -0.1165 -0.0425  0.1269
 5215W        W22063  11.772  10.403   2.781  0.1003 -0.2116  0.1819
 5216W        W22064   3.833   2.592   4.653  0.0400 -0.2044  0.3498
 5217W        W22065  10.755  12.447  15.519 -0.0050 -0.4078  0.1092
 5218W        W22066   0.591   3.918   5.348  0.0024  0.0493 -0.0999
 5219W        W22067  11.423   1.776   1.190 -0.2579  0.0322  0.0659
 5220W        W22068   3.062   1.641   3.987 -0.1153  0.2851  0.0162
 5221W        W22069  16.151   2.802  13.011 -0.3790  0.2039 -0.0439
 5222W        W22070   5.836   2.541  12.664 -0.0679  0.1041 -0.0593
 5223W        W22071  17.432  13.640   1.099  0.2447 -0.1133  0.0238
 5224W        W22072  12.453   1.356  10.925  0.2567  0.0702 -0.2579
 5225W        W22073  17.447  17.326   2.897  0.1584 -0.1268 -0.0098
 5226W        W22074  10.260   2.202   0.129 -0.0996  0.1372  0.3466
 5227W        W22075  17.759   4.713   2.978 -0.2492  0.0993 -0.1392
 5228W        W22076   6.759  15.713   3.094 -0.1285  0.0486  0.0915
 5229W        W22077  17.347  13.213   0.155 -0.1292 -0.2954 -0.1134
 5230W        W22078   9.151  10.932  15.846  0.1432 -0.0851  0.3388
 5231W        W22079  12.700   7.095   4.114  0.1486 -0.2378  0.0966
 5232W        W22080   8.848   0.534   0.390 -0.0535 -0.3270 -0.0124
 5233W        W22081   4.041   8.483   0.683  0.3872  0.0938  0.0674
 5234W        W22082   5.120  16.368  13.507  0.1190  0.1842  0.0987
 5235W        W22083  13.329   3.062   1.934 -0.0582 -0.1035  0.2075
 5236W        W22084   0.629  13.457   2.869 -0.4441 -0.0670 -0.0766
 5237W        W22085   1.314  16.992  15.454 -0.1124 -0.0027  0.3295
 5238W        W22086   6.634   8.696   0.108  0.3024 -0.0938 -0.0040
 5239W        W22087   1.084   0.867   3.756  0.2122 -0.1615  0.1400
 5240W        W22088  11.173  13.494  15.658  0.0832 -0.0445 -0.0421
 5241W        W22089   3.868   7.937  13.038  0.0394  0.0007 -0.0703
 5242W        W22090  13.692  15.830  14.707  0.0292  0.3966 -0.2714
 5243W        W22091   9.768  13.710  16.289 -0.1175 -0.1520  0.1330
 5244W        W22092   4.360   1.233   1.019  0.2429 -0.1240 -0.2281
 5245W        W22093   6.005   1.332   1.970 -0.2931  0.1381 -0.0828
 5246W        W22094  16.813  14.155  14.447  0.0386 -0.0647  0.4567
 5247W        W22095  12.682  16.557   3.519 -0.0112 -0.1500  0.2465
 5248W        W22096  17.013   8.681   2.390 -0.1403  0.0994 -0.0249
 5249W        W22097   6.312   3.614   2.544  0.1704 -0.0688  0.0225
 5250W        W22098  17.028   1.277   0.151 -0.0217 -0.0033 -0.2497
 5251W        W22099   4.072  12.631  12.313  0.2061  0.1839  0.0972
 5252W        W22100   7.313  13.683   3.656  0.3475  0.2126 -0.0036
 5253W        W22101  17.241  13.789  13.272 -0.1642 -0.0644  0.3593
 5254W        W22102   9.623  12.954   4.977  0.0438  0.0687 -0.0639
 5255W        W22103   2.925  12.537  15.185  0.3140 -0.1562  0.1836
 5256W        W22104  11.951  12.848  12.049 -0.1132 -0.1283 -0.0873
 5257W        W22105   5.303  10.140   1.554 -0.1322  0.1480  0.0438
 5258W        W22106  15.680  16.513  12.604 -0.0218 -0.0346 -0.0979
 5259W        W22107   0.940  11.693  13.648  0.1360 -0.0013  0.0528
 5260W        W22108   7.886   4.587   1.535  0.2186 -0.2119 -0.0632
 5261W        W22109   1.437  15.181  10.883 -0.3495 -0.0217 -0.0220
 5262W        W22110   8.496  14.641  14.223 -0.0154  0.1627 -0.0196
 5263W        W22111   5.091   0.791   2.091  0.0922  0.0537  0.1039
 5264W        W22112   9.999   3.555  13.333  0.0034 -0.1554 -0.2841
 5265W        W22113   7.340   4.992  13.930 -0.0967  0.1414  0.0617
 5266W        W22114   7.886   8.357  15.383  0.3522 -0.0392 -0.2717
 5267W        W22115   2.381   4.281   4.484  0.1120  0.0833  0.1186
 5268W        W22116   0.113   6.899   4.855 -0.3101  0.0937 -0.1310
 5269W        W22117  10.142   2.535   5.318 -0.2127 -0.2684 -0.2189
 5270W        W22118  12.903  16.952   1.280 -0.0411  0.0600  0.1117
 5271W        W22119   3.947  12.093  14.184 -0.2211 -0.1629  0.0848
 5272W        W22120   1.197   1.729  10.436 -0.2016  0.1323 -0.0489
 5273W        W22121   4.786  10.904   2.846 -0.1505 -0.4501 -0.0535
 5274W        W22122  10.822   2.503   0.688 -0.1028 -0.1882  0.0412
 5275W        W22123  16.616   4.301  11.551 -0.0512  0.2867 -0.1216
 5276W        W22124   5.039   9.850   2.990  0.0335 -0.1434 -0.1356
 5277W        W22125   8.977   0.537  16.401  0.0029 -0.0152  0.0925
 5278W        W22126   6.453  15.609  16.120  0.1782  0.2633  0.0367
 5279W        W22127   8.381   4.863   1.442 -0.0367  0.1672 -0.1318
 5280W        W22128   4.050   7.499   1.168  0.3425  0.0338  0.0184
 5281W        W22129   9.888   0.588  13.555 -0.1431 -0.0680  0.0370
 5282W        W22130  16.962  13.099   1.418 -0.0009 -0.0686  0.1570
 5283W        W22131  17.061   0.031  12.535 -0.2334 -0.0285 -0.4958
 5284W        W22132  15.030  12.913   4.988 -0.0090 -0.0361  0.1044
 5285W        W22133   8.324  13.998  16.180 -0.1039 -0.2019 -0.1211
 5286W        W22134   2.794   8.470  15.165 -0.2355 -0.0045 -0.0206
 5287W        W22135   3.714  15.431   2.684  0.2470  0.0368 -0.2680
 5288W        W22136   5.732   1.645   0.053  0.0488 -0.3127  0.3660
 5289W        W22137   7.710   4.230  14.165  0.2360 -0.2299 -0.1800
 5290W        W22138  14.643   4.447   1.691 -0.4818 -0.0683 -0.1258
 5291W        W22139  15.191  12.832   1.447 -0.1199 -0.2108  0.0906
 5292W        W22140   9.290  10.774  14.015  0.0806 -0.3125  0.1427
 5293W        W22141   5.015   3.070   5.887  0.0527 -0.0555 -0.1299
 5294W        W22142   2.931   9.038  14.160  0.4198  0.1447 -0.2003
 5295W        W22143  11.168   3.858  11.826  0.2162 -0.4161  0.2726
 5296W        W22144  17.556  14.505   4.771 -0.1285 -0.1532 -0.0793
 5297W        W22145   6.228  14.867  11.823 -0.0575 -0.0621 -0.1855
 5298W        W22146   2.857   8.936   2.160  0.1152  0.0314 -0.3019
 5299W        W22147   6.829  16.346  11.686 -0.2197  0.3703  0.1027
 5300W        W22148   7.079  14.174   4.165  0.3144 -0.2354  0.1076
 5301W        W22149  12.195   7.586  12.563 -0.2389  0.1271  0.0573
 5302W        W22150   8.144   2.342   1.175 -0.4349  0.1490 -0.1085
 5303W        W22151  16.014  11.519   4.685 -0.1802 -0.0479  0.2386
 5304W        W22152   7.979  10.984   4.597  0.0139 -0.0991  0.1389
 5305W        W22153   8.454  16.233  15.908  0.0956 -0.2790 -0.2471
 5306W        W22154  12.775  10.804  14.237 -0.0913 -0.3191  0.0268
 5307W        W22155   5.884   9.340  11.639 -0.2108  0.2678  0.0055
 5308W        W22156   7.108   4.994  16.399  0.0428 -0.3309 -0.0853
 5309W        W22157  16.666   1.580  16.078 -0.0134  0.2505  0.0214
 5310W        W22158  11.041   6.355  13.288 -0.1057 -0.5310  0.0634
 5311W        W22159   0.561  17.623  10.953  0.1977  0.3731  0.2008
 5312W        W22160   3.488   8.356  15.580 -0.0882 -0.0579  0.2648
 5313W        W22161  16.617  11.644   0.789 -0.2438  0.1947  0.1438
 5314W        W22162   5.510  17.036   5.581 -0.0635 -0.0459  0.0510
 5315W        W22163   2.454   7.730  13.001  0.0352  0.1604  0.1990
 5316W        W22164   1.223  17.317   4.145 -0.2321  0.0261 -0.1400
 5317W        W22165   4.591  17.666  13.615  0.2101  0.1302 -0.0577
 5318W        W22166  16.968   8.634   4.830 -0.0769 -0.1641 -0.4263
 5319W        W22167   6.448   4.997  13.760 -0.0941 -0.1946 -0.0976
 5320W        W22168   1.434   7.968  12.956  0.5063 -0.0800 -0.1642
 5321W        W22169   2.707  15.826  14.251 -0.0605  0.0777 -0.0889
 5322W        W22170   3.096  12.900   5.245  0.0871  0.1105  0.0636
 5323W        W22171   7.797   8.090  13.614  0.1501  0.0131  0.2308
 5324W        W22172   2.941   7.707  12.662 -0.2682 -0.2814  0.1983
 5325W        W22173   9.340   6.206  12.722  0.1633  0.1072 -0.0764
 5326W        W22174  10.903   4.117  13.472  0.0855 -0.2150 -0.1572
 5327W        W22175  14.520   5.569   4.140 -0.2867 -0.2978  0.1453
 5328W        W22176   5.290   6.343  10.091 -0.1460  0.3351  0.0629
 5329W        W22177   8.435  10.043  12.752 -0.0561  0.1013 -0.2328
 5330W        W22178   5.038   6.550   0.211  0.0338  0.0062  0.2647
 5331W        W22179   7.485  15.393   4.106 -0.0326 -0.3505  0.2867
 5332W        W22180  10.556   7.694  13.231  0.0164  0.1933 -0.1408
 5333W        W22181  13.165   0.248  11.454 -0.2902  0.0486  0.0422
 5334W        W22182  15.761   9.578  11.927  0.1923 -0.0994 -0.1036
 5335W        W22183  14.784   8.350   5.194 -0.0986  0.1557  0.2185
 5336W        W22184  16.254  14.308   0.209  0.1750 -0.2424 -0.0539
 5337W        W22185   8.302   9.866  12.310  0.1293  0.0597  0.1226
 5338W        W22186  15.345  13.625   1.087  0.0474  0.0401  0.1626
 5339W        W22187   9.034  10.902   4.858 -0.5271 -0.1344  0.0141
 5340W        W22188  11.440  10.617   4.353  0.1992  0.3854 -0.0229
 5341W        W22189   0.780   2.789  11.235 -0.1000  0.1714 -0.0726
 5342W        W22190   9.786  10.266  15.864 -0.5581 -0.2869 -0.1392
 5343W        W22191   8.286  13.242   0.490  0.0971 -0.0183  0.1766
 5344W        W22192  16.804   8.464   4.383  0.3000  0.0927 -0.2272
 5345W        W22193   1.049  15.125  13.418  0.0236 -0.0206  0.1232
 5346W        W22194   4.091  12.093   0.279  0.1694 -0.1311 -0.2717
 5347W        W22195  13.139  12.989   4.490  0.0625  0.1144  0.0847
 5348W        W22196  12.747  11.601  16.612 -0.1453  0.1726 -0.1390
 5349W        W22197  10.530  13.115   0.504  0.1234  0.0168  0.2068
 5350W        W22198  10.873   1.421   5.079 -0.3288 -0.1532 -0.1838
 5351W        W22199   0.442  17.779   6.411 -0.1852  0.0150  0.1385
 5352W        W22200   1.109  10.100  11.749  0.2802 -0.3096  0.1365
 5353W        W22201  16.398   0.045   0.051  0.1053  0.1665  0.0789
 5354W        W22202   3.356   9.474  16.059 -0.1446  0.5375  0.0666
 5355W        W22203   1.411   1.012   0.207 -0.1580 -0.3420 -0.1006
 5356W        W22204  10.804   3.604   4.129  0.0520 -0.0380  0.0097
 5357W        W22205  10.804   0.993   5.408 -0.0689 -0.1243 -0.1068
 5358W        W22206   1.149   8.523  15.120  0.1137 -0.0546 -0.0603
 5359W        W22207  12.484   1.023  11.882  0.1951  0.3204 -0.2133
 5360W        W22208   3.397   8.622  13.435  0.0890  0.1622  0.0562
 5361W        W22209   0.459   6.583  10.962 -0.0347 -0.1546 -0.2300
 5362W        W22210   0.697  14.359  11.838 -0.0593 -0.0840  0.1653
 5363W        W22211   0.962   8.162  13.133  0.3387  0.0641  0.1902
 5364W        W22212  14.239   2.674   3.199 -0.1120 -0.1989 -0.1737
 5365W        W22213   3.087  13.354  13.124  0.0954  0.0605 -0.0582
 5366W        W22214  11.183  11.688  11.422 -0.0234  0.2729 -0.5236
 5367W        W22215   9.643  17.782   5.429  0.1404 -0.1041 -0.0565
 5368W        W22216   7.762  11.724  14.028 -0.3367  0.3946 -0.3925
 5369W        W22217  12.283   7.837  13.047  0.1436  0.3040 -0.0454
 5370W        W22218   3.545  12.325  13.593  0.0827  0.0947  0.2132
 5371W        W22219   6.316   2.779  13.366 -0.0060  0.2226  0.0296
 5372W        W22220   9.021  10.640   0.104  0.2315 -0.0633 -0.1234
 5373W        W22221   8.999  14.422   1.925 -0.0584  0.0876 -0.2235
 5374W        W22222   5.057  12.794  16.392  0.0289 -0.2088  0.1651
 5375W        W22223   3.722   7.110  11.567  0.1557  0.1532  0.1336
 5376W        W22224  11.469   4.254  16.514  0.0845  0.1102 -0.1410
 5377W        W22225  15.435  16.996  12.322  0.1009 -0.3021  0.0216
 5378W        W22226  15.037  17.445   3.886 -0.3047 -0.1196 -0.1380
 5379W        W22227   6.019  14.425   2.294 -0.0288  0.1631  0.0865
 5380W        W22228   8.176  16.633  13.606  0.0984  0.3465  0.0975
 5381W        W22229   5.673   1.744  12.828  0.0560  0.1700  0.0718
 5382W        W22230   1.247  10.186   1.153 -0.3915 -0.1000 -0.0099
 5383W        W22231   3.237   4.109   0.052  0.0356  0.1246  0.0444
 5384W        W22232   8.580   7.924   1.528  0.1255 -0.1145  0.0651
 5385W        W22233  12.573   2.662   3.090 -0.3461  0.2995 -0.1495
 5386W        W22234   1.381   8.645   2.623 -0.1351  0.0361 -0.0155
 5387W        W22235  10.726  15.011  12.507  0.1688 -0.0045  0.1544
 5388W        W22236  17.846  13.049   2.340  0.2725  0.1411 -0.0297
 5389W        W22237   0.949  13.898  16.087 -0.0618  0.1850 -0.2130
 5390W        W22238   0.306   0.955  11.478  0.1831  0.0745  0.0776
 5391W        W22239   6.828   2.164   3.251  0.0085 -0.3118 -0.1381
 5392W        W22240   7.052  15.673  16.567 -0.0277  0.0300 -0.0992
 5393W        W22241   6.793   4.050   0.034 -0.0011 -0.3500 -0.1393
 5394W        W22242  12.138   0.163  12.849 -0.1425  0.1230  0.1917
 5395W        W22243   2.528   4.744   3.128  0.0241  0.0231 -0.2837
 5396W        W22244   6.344   3.740   0.548 -0.1842  0.1242  0.1484
 5397W        W22245  17.034   6.378   3.342  0.1058 -0.1088  0.0736
 5398W        W22246   1.514  15.100  12.839 -0.0081 -0.1011 -0.0481
 5399W        W22247   8.075  12.355  11.200 -0.0441 -0.0364 -0.2761
 5400W        W22248  17.854   9.308   3.921  0.1305  0.1057  0.2714
 5401W        W22249   0.932   8.493   2.683 -0.0045  0.2992  0.0419
 5402W        W22250   5.199   2.181  15.631 -0.1382  0.0171 -0.0535
 5403W        W22251  13.805  12.401  15.523 -0.3110 -0.0146  0.0218
 5404W        W22252  14.135   0.427   4.058  0.0553 -0.4063  0.0586
 5405W        W22253  12.234  13.667  15.172 -0.1404 -0.0494 -0.2359
 5406W        W22254   4.372   6.237  12.609 -0.2950  0.1609 -0.0503
 5407W        W22255   5.898  11.588   2.254  0.2149 -0.2383 -0.0215
 5408W        W22256  16.353   6.185   1.233 -0.3284  0.1727  0.0595
 5409W        W22257   1.787  11.094  16.105 -0.1389  0.2874  0.2954
 5410W        W22258  13.062  16.147   3.419 -0.2432 -0.1189 -0.3690
 5411W        W22259  15.998  10.056   1.172  0.0974 -0.0890  0.1801
 5412W        W22260  15.606  10.761  13.290  0.0523 -0.1596  0.3083
 5413W        W22261  12.820   5.630   1.538 -0.0509 -0.0704  0.0149
 5414W        W22262   3.549  17.366  12.066  0.2594  0.0859 -0.0941
 5415W        W22263   8.822  15.074  14.032  0.1846 -0.0825  0.1026
 5416W        W22264   9.172   6.956  12.397  0.0793  0.1020 -0.0922
 5417W        W22265  15.867   3.401   1.125 -0.1199 -0.0498  0.2768
 5418W        W22266  16.315  14.158  11.117  0.0381  0.1347  0.0163
 5419W        W22267   4.848  12.017   0.813 -0.0216 -0.0857 -0.2708
 5420W        W22268   9.842   1.498   1.042  0.1260 -0.0943  0.4192
 5421W        W22269   5.754  14.442  13.403  0.5078  0.0198 -0.3105
 5422W        W22270   4.473   2.171   0.077 -0.0974 -0.1895  0.3227
 5423W        W22271   1.013   4.150  12.158 -0.3347 -0.2470  0.0513
 5424W        W22272  13.123   0.742   1.260 -0.4915  0.3661 -0.1099
 5425W        W22273   2.452  12.185   2.675  0.0653 -0.0654 -0.4096
 5426W        W22274   5.375  11.878   2.186  0.2189 -0.0936 -0.2019
 5427W        W22275  14.775   1.429  14.596  0.0554  0.0807 -0.1107
 5428W        W22276   1.996  15.295   1.868 -0.0365  0.3439  0.1087
 5429W        W22277   2.676   8.378   4.416 -0.1802 -0.1841  0.1975
 5430W        W22278   1.432   4.189  15.432 -0.1414  0.0634 -0.1175
 5431W        W22279  16.441  15.224   1.443  0.0139  0.1548  0.0734
 5432W        W22280  10.829   8.594   4.405 -0.0930  0.0925 -0.0714
 5433W        W22281   6.895   4.213  13.601  0.4520  0.0584 -0.4365
 5434W        W22282  15.010   1.934   1.044 -0.0135 -0.2221 -0.1821
 5435W        W22283   6.085   1.719  12.312 -0.0254  0.1499 -0.0486
 5436W        W22284  12.778  15.646   0.995 -0.2760 -0.0019  0.0176
 5437W        W22285   8.251  14.526   0.565  0.0391  0.0904  0.0300
 5438W        W22286   5.058   8.551   2.607 -0.1112 -0.0095 -0.0538
 5439W        W22287   0.371   8.417  14.629  0.3028 -0.1547 -0.0010
 5440W        W22288  13.180   7.354   1.927 -0.0513 -0.2391  0.3518
 5441W        W22289   6.069   6.975  14.960 -0.1737 -0.3144 -0.1677
 5442W        W22290  11.943   0.676   4.473 -0.0209 -0.0932  0.1040
 5443W        W22291  14.800  14.864   2.438 -0.1314  0.0993  0.3326
 5444W        W22292   6.479  17.189  14.263  0.4359 -0.1984 -0.0182
 5445W        W22293  13.753  15.478   0.841 -0.0399 -0.1224  0.2843
 5446W        W22294  10.446  13.118   1.690 -0.0146  0.0903 -0.1115
 5447W        W22295  17.094   5.120   1.680  0.1101 -0.2221  0.1613
 5448W        W22296   5.353   8.939   2.035  0.0112 -0.1214 -0.3168
 5449W        W22297   4.524  14.003   4.977 -0.2253 -0.0209  0.1732
 5450W        W22298   3.625  14.445   2.848 -0.0713  0.2497  0.0230
 5451W        W22299   8.601   3.015   2.802 -0.0674 -0.2894 -0.1762
 5452W        W22300  15.553  17.247   0.620  0.2759 -0.0748  0.0820
 5453W        W22301   4.107   7.397  11.365  0.2221 -0.1266 -0.0579
 5454W        W22302   6.730   2.421  13.101 -0.0903  0.0223 -0.3096
 5455W        W22303   6.222  13.388   3.373  0.1187  0.2365 -0.1907
 5456W        W22304   3.179  13.972   4.144  0.0276 -0.0674 -0.0030
 5457W        W22305   9.969   0.402   4.123 -0.2520  0.1632  0.0447
 5458W        W22306  12.477  16.677  14.808  0.1611  0.1121  0.2619
 5459W        W22307   9.531   3.704   4.407  0.0318 -0.1179  0.0924
 5460W        W22308   3.479   0.214  16.506 -0.0583  0.1140  0.1042
 5461W        W22309   8.985   4.136  13.428  0.2266 -0.1093 -0.0119
 5462W        W22310  14.700   8.957  11.121 -0.1914 -0.0997 -0.3971
 5463W        W22311   8.116   7.702  14.810 -0.0562 -0.2496  0.3937
 5464W        W22312   0.053  10.563  13.340 -0.3445 -0.1979 -0.5035
 5465W        W22313   0.003  13.048  12.538  0.2114  0.1893  0.4318
 5466W        W22314   1.185  12.308  15.135 -0.1979  0.1567  0.1677
 5467W        W22315   3.526   6.303  15.257 -0.1248 -0.4992  0.0066
 5468W        W22316  15.712   4.777  16.254 -0.1385  0.1012 -0.2549
 5469W        W22317  17.029   4.686  14.354  0.0523  0.0378  0.4097
 5470W        W22318   4.477   9.920   1.812  0.0126  0.1820  0.0542
 5471W        W22319   0.309   7.160   3.293 -0.1646  0.0296  0.0672
 5472W        W22320  11.479  12.512   2.720 -0.0959 -0.2961 -0.1110
 5473W        W22321   8.421   3.428   0.058 -0.1537 -0.0247  0.4305
 5474W        W22322   7.341   5.283  13.438  0.0537  0.1430 -0.0098
 5475W        W22323  17.759  11.157   5.112  0.0506 -0.0575 -0.1205
 5476W        W22324  15.011  12.162   4.338  0.2088  0.1473  0.2361
 5477W        W22325  12.505   5.607   3.820  0.1966  0.1156  0.0588
 5478W        W22326  16.842  11.486   3.113 -0.0579 -0.0658 -0.0209
 5479W        W22327  13.563  14.194  12.644  0.3811  0.0952  0.1210
 5480W        W22328   1.498  15.861  14.852 -0.1584 -0.0318 -0.0014
 5481W        W22329  12.938  14.002   2.828 -0.1951 -0.1181 -0.1301
 5482W        W22330  13.967  13.984  12.548 -0.1322  0.0681  0.2857
 5483W        W22331  15.677  17.363  12.620 -0.0993 -0.3656 -0.1471
 5484W        W22332   3.517   4.994   3.954 -0.2590  0.2264 -0.1467
 5485W        W22333   5.531   7.517   3.199 -0.1833 -0.4297  0.0678
 5486W        W22334   3.553   7.336  13.264 -0.0861  0.0977 -0.1673
 5487W        W22335  14.364  13.913   1.716 -0.0221 -0.3930  0.3806
 5488W        W22336  11.343  16.236   3.005  0.1671 -0.2008  0.0418
 5489W        W22337  16.861  14.007  16.359 -0.0319  0.1193  0.0791
 5490W        W22338  14.253   2.665   4.748 -0.2929  0.1170  0.1054
 5491W        W22339   1.628   8.426   1.806 -0.1422  0.0201  0.2503
 5492W        W22340   3.750   4.790  12.083 -0.0511 -0.1946 -0.0606
 5493W        W22341  14.184   5.949  11.364  0.0464  0.0263  0.0679
 5494W        W22342   5.051  11.800  13.799  0.2842 -0.1983 -0.0068
 5495W        W22343   8.804  12.223   4.760 -0.4991 -0.0557 -0.1367
 5496W        W22344   5.800   9.540   4.815 -0.0804 -0.0871 -0.0449
 5497W        W22345  16.775  11.337   1.227  0.0829  0.1131  0.0475
 5498W        W22346   6.038   7.419   4.025 -0.0216  0.0803  0.0152
 5499W        W22347   6.191  15.517   4.979 -0.0015 -0.2428 -0.1349
 5500W        W22348   3.712   1.044  11.160  0.0156  0.1938 -0.0566
 5501W        W22349  16.782  14.865   0.777 -0.0130 -0.3238 -0.0228
 5502W        W22350  17.307   0.482   3.909 -0.3859  0.2154  0.0736
 5503W        W22351  15.412   4.032  12.776  0.0147 -0.1303  0.1041
 5504W        W22352  12.824  17.062  13.394 -0.2168 -0.5977 -0.1271
 5505W        W22353  14.556   7.935   0.952 -0.0072 -0.0469 -0.2291
 5506W        W22354  12.043  17.393  14.775 -0.0421  0.1556  0.1550
 5507W        W22355   9.075   7.096  15.664 -0.1748 -0.2638 -0.0118
 5508W        W22356   2.643  11.569  13.469  0.0550  0.0761  0.0676
 5509W        W22357  11.848   9.218  13.978  0.1295  0.0411 -0.1158
 5510W        W22358   0.056   6.838  13.327 -0.1281  0.0986 -0.1753
 5511W        W22359   8.320   1.546   3.764 -0.0483 -0.1993  0.0474
 5512W        W22360   0.945   5.567   2.545 -0.1027  0.1493 -0.1212
 5513W        W22361  12.237   1.345  13.873 -0.3464  0.1671 -0.1771
 5514W        W22362   3.257   5.721  13.583 -0.1379  0.1603  0.1797
 5515W        W22363  14.251   2.553   0.110 -0.0385  0.0179  0.2342
 5516W        W22364   3.186   1.512  11.579  0.0416 -0.0253  0.1564
 5517W        W22365   9.985   0.428  15.178 -0.0515 -0.2996  0.1832
 5518W        W22366  12.276  15.141  11.782 -0.2554 -0.2256  0.0723
 5519W        W22367   5.229  13.836   3.768 -0.1908 -0.0465  0.2902
 5520W        W22368  17.135   9.553   4.672 -0.2192 -0.3948 -0.0768
 5521W        W22369   1.740   8.560  10.889  0.4181  0.0814  0.3701
 5522W        W22370  11.517  11.565   3.687  0.1015  0.1808 -0.0287
 5523W        W22371   7.636  17.360   3.891 -0.2413  0.0639 -0.2054
 5524W        W22372   4.397   0.308  16.370 -0.0990  0.1622  0.2081
 5525W        W22373  10.574   7.842  10.587 -0.0199 -0.2024 -0.2542
 5526W        W22374  16.497  15.609  16.066 -0.1805 -0.0501 -0.3813
 5527W        W22375  15.346   6.275  10.384  0.0919 -0.1098  0.0145
 5528W        W22376   5.907   3.565  14.866  0.3560 -0.0188 -0.1726
 5529W        W22377   0.953   7.265   4.638  0.0606 -0.0332  0.2107
 5530W        W22378   1.703  13.775  13.120 -0.0191 -0.1609 -0.0565
 5531W        W22379  10.343  12.275  14.689 -0.0712  0.0725 -0.0151
 5532W        W22380   8.053  13.787  13.874  0.5701  0.1689  0.3352
 5533W        W22381  17.303   2.482  12.880  0.5410  0.1006 -0.1980
 5534W        W22382   7.955   1.034   2.601  0.0281  0.0608  0.0691
 5535W        W22383  14.821   1.979   4.894 -0.2321 -0.1411  0.1838
 5536W        W22384   9.485   7.145  13.992  0.2173  0.1648  0.2540
 5537W        W22385   8.270   4.502   3.331 -0.1649  0.2796  0.1003
 5538W        W22386  14.365  12.823  14.900 -0.0009  0.0997  0.0255
 5539W        W22387   0.331   1.441  12.221 -0.1741  0.1382 -0.0330
 5540W        W22388   0.284   0.841  13.838  0.3803 -0.1729  0.3493
 5541W        W22389  14.146  10.926   2.158 -0.2334  0.0419 -0.2408
 5542W        W22390   3.118   3.051   1.084  0.1047 -0.0700  0.0874
 5543W        W22391   6.379   1.647   5.222 -0.1298  0.0769  0.1764
 5544W        W22392   6.823   1.561   1.329 -0.1637 -0.0268 -0.1365
 5545W        W22393   9.643  16.298   3.682 -0.0018 -0.2624 -0.0927
 5546W        W22394   2.539   2.788   4.041 -0.1478 -0.1457 -0.2161
 5547W        W22395   0.790   8.008   2.633  0.0569 -0.1870  0.3099
 5548W        W22396  12.380  12.123   0.763  0.3238 -0.0704 -0.0228
 5549W        W22397  13.646   0.656  15.899 -0.1939  0.2757  0.2722
 5550W        W22398  14.436  17.559   5.339  0.0383 -0.1956 -0.4536
 5551W        W22399   6.649  12.823   3.764 -0.3984  0.0253  0.0727
 5552W        W22400   7.161   5.123  11.924  0.0659 -0.2183  0.1967
 5553W        W22401   3.001  11.131  15.309 -0.0319 -0.2208 -0.0312
 5554W        W22402  14.613  14.847   2.938 -0.3233 -0.0198  0.0434
 5555W        W22403  11.801  15.433   2.262  0.0334 -0.1371 -0.0159
 5556W        W22404   8.562  13.569  13.707 -0.0375 -0.1281 -0.1607
 5557W        W22405   0.109   8.663   3.083  0.1035  0.0304 -0.0163
 5558W        W22406  13.048   0.351   4.257 -0.5738 -0.0203  0.2867
 5559W        W22407   7.154   6.000  11.843 -0.0844  0.1931  0.1873
 5560W        W22408  11.443   6.140  13.167 -0.2971 -0.2140 -0.2139
 5561W        W22409  12.903   6.954  13.872 -0.1919 -0.2769 -0.0580
 5562W        W22410  17.412  15.958  13.007  0.0756  0.1220 -0.1539
 5563W        W22411   1.661  13.419   4.833 -0.0382  0.3004 -0.0261
 5564W        W22412  12.833   9.303   4.330  0.1387 -0.2970 -0.2748
 5565W        W22413  16.715  12.764   3.339 -0.0571  0.1613  0.0232
 5566W        W22414   6.681   9.800   1.435 -0.1105 -0.0178 -0.0492
 5567W        W22415  10.865  16.230  11.473  0.1649 -0.1085  0.1113
 5568W        W22416  12.340   3.619   4.001 -0.3512  0.0187  0.1483
 5569W        W22417  10.761   6.584  12.942  0.2582  0.0379  0.1144
 5570W        W22418  13.983  12.728   4.754  0.0775  0.4695  0.3720
 5571W        W22419  13.787   4.540  16.164  0.1541 -0.2249  0.2189
 5572W        W22420   3.437  14.379  11.792  0.1373 -0.0116  0.3025
 5573W        W22421  16.227   4.756  16.507 -0.0719  0.2533  0.1347
 5574W        W22422  12.963  15.644   1.504 -0.2613  0.1976 -0.2536
 5575W        W22423  13.975   2.476  16.149  0.2212 -0.3084 -0.1089
 5576W        W22424   4.765   3.729   1.279 -0.2153  0.2505 -0.1437
 5577W        W22425  14.942  17.801   4.311 -0.2708  0.2801  0.0932
 5578W        W22426  15.131   4.059  12.045  0.0266  0.0475  0.2432
 5579W        W22427   1.161  15.869  16.443  0.2493  0.2495  0.0584
 5580W        W22428   1.995  14.830   2.107  0.1977 -0.1797 -0.0822
 5581W        W22429  10.137  13.251   5.767  0.3753  0.1873  0.1213
 5582W        W22430   7.945   2.160   2.472  0.0580 -0.1295 -0.0620
 5583W        W22431  13.052  14.581  14.453  0.0931  0.0730 -0.0961
 5584W        W22432   4.627   1.951  13.705  0.1976  0.0155 -0.1580
 5585W        W22433   2.205  12.977  12.711  0.0916 -0.2106 -0.1067
 5586W        W22434   8.007  15.876   5.652  0.1962  0.0726 -0.0553
 5587W        W22435  13.752   3.495   5.606 -0.1004 -0.0061  0.0966
 5588W        W22436   8.135   9.094  13.784 -0.0331 -0.3733 -0.0739
 5589W        W22437  14.103  14.478  15.065  0.4884  0.0091 -0.0403
 5590W        W22438   4.897  13.874  10.964  0.1867  0.0707  0.3040
 5591W        W22439  17.334   2.039   4.382  0.1000 -0.0100  0.0289
 5592W        W22440  10.921  10.595   4.835  0.1058 -0.2060 -0.2285
 5593W        W22441   2.415  12.717   1.063  0.0255  0.1557 -0.0821
 5594W        W22442  17.380   9.919  13.945  0.2826  0.0211 -0.2610
 5595W        W22443  12.829  17.322   3.143 -0.0020  0.1305 -0.1850
 5596W        W22444   3.338   7.619   2.296  0.0183 -0.2096  0.1167
 5597W        W22445  15.274   0.539  14.257 -0.2001 -0.3887  0.0947
 5598W        W22446   3.606  15.826   4.520 -0.1173  0.0618 -0.2552
 5599W        W22447   4.776  14.486  13.531 -0.1979  0.3600  0.1501
 5600W        W22448   9.487  11.224   4.726  0.0522  0.2543 -0.3285
 5601W        W22449   4.522   3.654  12.270 -0.2489  0.0296  0.2066
 5602W        W22450  15.950  13.811   1.969  0.2437 -0.2268  0.2106
 5603W        W22451  17.216  13.134   5.220  0.1671  0.0141  0.1958
 5604W        W22452   3.819  17.692  11.785  0.1067 -0.0167 -0.1494
 5605W        W22453   0.527  11.118   3.732  0.0425  0.0509 -0.0465
 5606W        W22454   7.078  11.401  13.319  0.2312  0.2766  0.0421
 5607W        W22455   7.491   6.157   0.857 -0.0080 -0.2081  0.1487
 5608W        W22456   4.235   0.529  15.226 -0.0359 -0.2174  0.1596
 5609W        W22457  14.482   5.995  13.589  0.1400 -0.0677  0.0918
 5610W        W22458   0.496   4.454  15.364 -0.1975  0.0750 -0.1126
 5611W        W22459   7.045   0.444  11.806  0.2791 -0.0202 -0.1740
 5612W        W22460  14.015  16.418   1.183  0.0598 -0.2172 -0.0564
 5613W        W22461  16.198   8.161   5.456  0.1693 -0.1011 -0.1291
 5614W        W22462   7.925   8.943   1.504 -0.0870 -0.0568  0.3792
 5615W        W22463   4.172   0.032  13.845 -0.2851 -0.1085  0.4756
 5616W        W22464  11.944   6.334  13.101  0.0844 -0.4828 -0.0763
 5617W        W22465   9.743  10.671  12.234 -0.0530  0.2017 -0.1674
 5618W        W22466   0.104   2.124  10.943  0.0768 -0.0076  0.3434
 5619W        W22467   1.105   5.348  14.759  0.2757  0.2437 -0.0768
 5620W        W22468   7.620  12.105   2.938  0.0292 -0.2203  0.1606
 5621W        W22469   5.349  11.530  12.963 -0.1720 -0.3004  0.2663
 5622W        W22470   3.504  16.560  15.400 -0.1700 -0.0112 -0.0552
 5623W        W22471   8.003   4.656   2.365  0.3048  0.0584 -0.0846
 5624W        W22472   5.554   1.158   1.429 -0.0692 -0.3238 -0.1291
 5625W        W22473  17.842  11.894  15.904  0.1326  0.1664 -0.2646
 5626W        W22474  16.599  13.019   1.815 -0.1508 -0.2575 -0.2501
 5627W        W22475   5.447  11.876  13.293  0.1253 -0.2562 -0.2197
 5628W        W22476   6.962   7.326   3.465  0.1618 -0.0832  0.0514
 5629W        W22477   2.781   3.115   3.749 -0.0582 -0.0455 -0.1145
 5630W        W22478  12.537  12.832  15.155  0.2244 -0.1657 -0.1680
 5631W        W22479  16.705   5.502  12.285 -0.0509 -0.0181  0.2521
 5632W        W22480  15.635  17.583   3.195 -0.0047  0.0787 -0.0169
 5633W        W22481   0.017   7.539  16.555  0.0822 -0.0578 -0.0983
 5634W        W22482  16.459   1.160  14.701  0.2093  0.0902  0.2362
 5635W        W22483  14.517  15.527  15.868  0.2767 -0.2947  0.0150
 5636W        W22484  13.542   0.290   4.211 -0.1424  0.2693 -0.0387
 5637W        W22485   0.358   9.514  15.910  0.0244  0.0111  0.0480
 5638W        W22486   7.636  17.495   0.740 -0.2996  0.1083  0.0706
 5639W        W22487  14.117  11.935  11.938 -0.1443  0.2290  0.0564
 5640W        W22488   6.972   1.105   4.278 -0.4247 -0.3003 -0.5178
 5641W        W22489  13.090  11.237  13.981 -0.0841  0.0624  0.3050
 5642W        W22490   6.136   5.947  12.286 -0.2278 -0.1573  0.0047
 5643W        W22491   8.733  12.854   2.580 -0.1567  0.1299 -0.2390
 5644W        W22492   7.394  14.198   4.748 -0.2659 -0.3832 -0.1452
 5645W        W22493  13.996   8.732   4.603 -0.1347 -0.1728 -0.2190
 5646W        W22494   2.980  15.790   0.398  0.1967 -0.1567 -0.1562
 5647W        W22495   1.171  15.687  11.879  0.2509  0.1583 -0.2811
 5648W        W22496   3.273   9.667  12.255  0.0542  0.0035  0.0922
 5649W        W22497   3.209  15.177  15.457  0.0091 -0.3889  0.2502
 5650W        W22498   5.758   1.800  11.015  0.0286 -0.0100  0.0598
 5651W        W22499   2.260  11.591   4.319  0.3031  0.2267  0.0478
 5652W        W22500   6.338   0.090  13.127 -0.0881 -0.0180  0.0056
 5653W        W22501  11.981  11.891  14.432  0.0639  0.2182 -0.3154
 5654W        W22502  12.482   4.520  11.046  0.2137  0.0007  0.0307
 5655W        W22503   9.159   0.084  14.252  0.2233  0.1040 -0.0917
 5656W        W22504   1.927   6.204  14.526  0.2126  0.7094  0.1053
 5657W        W22505  10.013   4.040   3.962  0.2290 -0.0295  0.0919
 5658W        W22506  14.773  15.366   2.641  0.1348  0.3410  0.0085
 5659W        W22507   6.933   7.921  16.569  0.0235  0.0919  0.2463
 5660W        W22508  16.664   3.201  13.652  0.0602 -0.0619  0.1827
 5661W        W22509   0.940  17.288   1.086  0.0794  0.0141 -0.1736
 5662W        W22510   8.235  12.514   4.170  0.1822  0.3549 -0.1757
 5663W        W22511   4.736  13.918  11.818 -0.0975 -0.0915 -0.6061
 5664W        W22512   2.486   9.676  10.689  0.1805  0.2867 -0.1320
 5665W        W22513   3.697  16.791  12.904 -0.1624  0.0700 -0.2013
 5666W        W22514   8.783  10.564  14.073 -0.2460 -0.3982  0.0842
 5667W        W22515   4.391   3.425  16.255 -0.1369 -0.1196 -0.2351
 5668W        W22516  13.566  11.593  13.461  0.2371  0.1844  0.0373
 5669W        W22517   7.674  16.843   4.641  0.2670  0.3264  0.1065
 5670W        W22518   4.113   0.012   3.540  0.1952 -0.1023 -0.1713
 5671W        W22519   9.078  15.685  11.979  0.1851  0.0306 -0.0687
 5672W        W22520   6.582  11.901   1.582 -0.2935  0.3805 -0.5192
 5673W        W22521   5.411  12.053  12.796 -0.3706  0.0849  0.2258
 5674W        W22522   4.565  14.746   4.894  0.0982 -0.2740 -0.0523
 5675W        W22523   9.824  16.728  14.228  0.4017  0.0673  0.0308
 5676W        W22524   7.356  14.254   0.852  0.2759 -0.2687  0.1593
 5677W        W22525  13.856   0.261   5.041  0.1659  0.2654 -0.0441
 5678W        W22526   1.544  16.636   3.505 -0.0496  0.1476 -0.0713
 5679W        W22527  12.409  13.924   4.823 -0.2525 -0.0535 -0.2924
 5680W        W22528   7.985   7.805   3.710  0.1666 -0.1607  0.1271
 5681W        W22529   8.281   7.049  14.262 -0.1769 -0.0191 -0.2596
 5682W        W22530  16.756   2.079   0.319 -0.0135 -0.0190  0.0023
 5683W        W22531  12.916  15.297   0.074  0.0649  0.0931  0.2561
 5684W        W22532  13.819  14.044  14.251  0.1656 -0.1521 -0.3448
 5685W        W22533   7.066  15.580  14.201  0.1409 -0.2955  0.0175
 5686W        W22534  11.157   7.543  16.629 -0.0856 -0.1095  0.2326
 5687W        W22535  17.187  15.401  14.771 -0.2939  0.0455 -0.1238
 5688W        W22536   7.113   5.766  13.385  0.1469 -0.0491 -0.0627
 5689W        W22537  14.092  15.270  11.782  0.1826  0.2720  0.0269
 5690W        W22538  12.544  16.515   5.246 -0.2633 -0.2450  0.1199
 5691W        W22539  14.104  14.051   4.348 -0.2361  0.5746  0.2359
 5692W        W22540  14.655   3.728   4.930  0.2132  0.2003  0.4682
 5693W        W22541   5.589   9.322  14.847 -0.0024  0.1764 -0.0090
 5694W        W22542   1.305   7.262   0.192 -0.0562 -0.2354  0.1563
 5695W        W22543  16.230   2.555   1.042 -0.1231  0.2708  0.0276
 5696W        W22544   8.752  12.505   0.190 -0.0016 -0.1669  0.0105
 5697W        W22545   0.312  14.139  12.147 -0.1470  0.4218 -0.0755
 5698W        W22546   5.905   3.796  14.044 -0.0666  0.0587 -0.0857
 5699W        W22547  12.133  11.497  12.596 -0.0961  0.0521 -0.1625
 5700W        W22548  10.772   1.277  15.044  0.1282 -0.2248 -0.4063
 5701W        W22549   4.193  15.637   4.449  0.2651  0.0013 -0.0582
 5702W        W22550   5.004  13.782   3.289  0.1215  0.0778  0.0099
 5703W        W22551   4.706   9.987   3.429 -0.0886  0.0784  0.0429
 5704W        W22552   6.737   2.776  13.958 -0.1804 -0.2875  0.1379
 5705W        W22553   6.403   3.609  14.669 -0.2187 -0.2039  0.1027
 5706W        W22554   2.633   8.552   3.934  0.0948  0.2768  0.2910
 5707W        W22555   7.104  15.059  13.908  0.1551 -0.2359  0.1367
 5708W        W22556   0.749  17.428   3.907 -0.1554  0.0941  0.0194
 5709W        W22557   4.030  10.427   2.545 -0.0723  0.3597 -0.0780
 5710W        W22558   5.523  13.962  14.542  0.2434 -0.2339  0.1586
 5711W        W22559   6.914   7.148   4.305  0.0131  0.1376  0.0050
 5712W        W22560  12.583   2.196   0.352  0.1536 -0.2355  0.0943
 5713W        W22561  13.163   4.746  15.513  0.1024  0.0895  0.0610
 5714W        W22562   6.381  11.643  12.029  0.2423 -0.2493  0.2255
 5715W        W22563  17.825   2.409   0.911  0.1550  0.2803 -0.0764
 5716W        W22564  12.172   3.707   3.377 -0.3285  0.1342 -0.2993
 5717W        W22565  17.682  11.564   0.007  0.2473  0.0864  0.0307
 5718W        W22566   2.962   8.715  12.210  0.1731 -0.2742 -0.0814
 5719W        W22567   8.311   0.875  14.880 -0.0286 -0.1115  0.0005
 5720W        W22568   1.993   8.102  11.943 -0.1381 -0.0214 -0.0420
 5721W        W22569  12.281   5.701  13.983  0.0863  0.1748  0.4421
 5722W        W22570   3.027   9.269   1.397 -0.0626 -0.1345 -0.1783
 5723W        W22571  10.495   1.909  15.476 -0.2150  0.0018  0.1197
 5724W        W22572   3.444   1.570  12.234  0.0172 -0.1762 -0.0255
 5725W        W22573   0.466   3.036  11.866  0.0669  0.0368 -0.1120
 5726W        W22574   5.438   7.433  16.081 -0.0611  0.4285  0.0905
 5727W        W22575  14.914  16.382  13.211 -0.0662 -0.0954 -0.1601
 5728W        W22576   5.272   1.480   4.449 -0.5254 -0.1714  0.1782
 5729W        W22577   0.188  10.440   0.824  0.0534  0.1221 -0.2333
 5730W        W22578   7.047   9.555  12.044 -0.0935  0.1963 -0.0846
 5731W        W22579   4.827  15.888  13.390  0.1302  0.2151 -0.3375
 5732W        W22580   8.432   9.316   4.132  0.0202 -0.1851 -0.1681
 5733W        W22581  12.324   8.822   0.257  0.0184 -0.0271  0.2172
 5734W        W22582   3.689   8.514   4.317  0.0928 -0.0582  0.0665
 5735W        W22583   4.498  10.630  16.251  0.3005 -0.1052  0.0052
 5736W        W22584   8.327  17.446  14.614 -0.0443 -0.1468  0.0013
 5737W        W22585   2.094  12.666  15.718  0.1459  0.1653  0.4758
 5738W        W22586  12.004  17.394  15.675  0.3256  0.0001 -0.0708
 5739W        W22587   6.753   1.858   3.785  0.2198  0.2632 -0.1568
 5740W        W22588   9.901  10.849   1.138  0.0015 -0.1288 -0.0452
 5741W        W22589  10.218   5.917  14.121 -0.1094  0.2391 -0.0184
 5742W        W22590   8.508  15.096   3.344  0.2655  0.0346 -0.4373
 5743W        W22591   9.415   3.929  15.629 -0.1232 -0.0303  0.0089
 5744W        W22592   7.173  11.788  11.695  0.1105  0.2710 -0.0448
 5745W        W22593  11.901   4.637   2.691 -0.1319 -0.0730 -0.1766
 5746W        W22594   6.599   9.355  10.654 -0.1107  0.1117 -0.3881
 5747W        W22595   2.662  14.295   2.287 -0.5179 -0.1563 -0.1097
 5748W        W22596   2.710   0.001  15.395 -0.0261  0.2003  0.0749
 5749W        W22597   5.871   9.097   5.002  0.3836 -0.1819 -0.2289
 5750W        W22598   8.873  10.531   1.172  0.2300  0.1171 -0.0605
 5751W        W22599   8.413  14.154  12.120 -0.2209  0.1282  0.1971
 5752W        W22600  11.710  16.806   1.621  0.0479  0.4760  0.0359
 5753W        W22601   4.454   6.189  13.165 -0.0204 -0.0470 -0.0461
 5754W        W22602   1.123   2.718  10.305  0.1282 -0.0823  0.3084
 5755W        W22603   4.944  13.281   1.546  0.1389 -0.0428  0.2303
 5756W        W22604   5.616  15.960  11.908 -0.0228 -0.1530 -0.0701
 5757W        W22605   5.960  16.399  12.655  0.2499  0.1888 -0.1870
 5758W        W22606  17.194   6.436  14.869 -0.1807 -0.1290 -0.0004
 5759W        W22607   0.003   7.646   0.510 -0.0372 -0.0681  0.2496
 5760W        W22608   0.097  12.726   4.074  0.0114 -0.3353 -0.2747
 5761W        W22609   4.349   1.470  14.905 -0.0793 -0.1225 -0.4656
 5762W        W22610  15.642   6.364  12.981  0.0430 -0.0880  0.0980
 5763W        W22611  12.084   0.423   4.063 -0.1311  0.0088  0.1348
 5764W        W22612  17.175  13.435   0.634  0.0190  0.0175 -0.1029
 5765W        W22613   6.892  10.643  13.947 -0.1503 -0.1587  0.0144
 5766W        W22614   6.464   2.994   3.285  0.0187 -0.1086  0.2885
 5767W        W22615  12.600   4.754   4.979  0.2082 -0.2596 -0.1599
 5768W        W22616  15.705   3.401  12.281  0.0774 -0.2404 -0.0891
 5769W        W22617  12.176   4.683  12.250  0.0114  0.3590  0.1305
 5770W        W22618   3.758   1.934   1.096 -0.1254 -0.0630  0.1440
 5771W        W22619   6.034  14.367  11.506 -0.1079 -0.0561 -0.0598
 5772W        W22620   5.492   1.816  13.400 -0.1450 -0.0908  0.1776
 5773W        W22621   9.258  13.681   4.336  0.1331  0.0786 -0.2084
 5774W        W22622  15.843   8.005  14.039  0.0108 -0.1947 -0.0347
 5775W        W22623  13.844  16.628   1.617  0.0613 -0.1274 -0.2801
 5776W        W22624   7.482  11.866   1.868  0.0558 -0.0753 -0.0534
 5777W        W22625  11.104   7.816   3.609 -0.0943  0.5677  0.0962
 5778W        W22626   9.995   3.734   4.629 -0.0459 -0.0978 -0.1976
 5779W        W22627   5.445   6.698  14.379  0.0425  0.2947 -0.0497
 5780W        W22628  13.768   9.991  14.639 -0.0681  0.1032 -0.0615
 5781W        W22629   2.738  11.618  14.308 -0.0463 -0.2185 -0.0855
 5782W        W22630  12.751   4.825   2.275  0.0406 -0.3075  0.1290
 5783W        W22631  14.057   8.621   0.484  0.0576 -0.2688  0.0037
 5784W        W22632  13.457  14.938  14.819  0.0470  0.1922  0.3930
 5785W        W22633  13.782  11.912  15.314 -0.0643  0.1054 -0.2613
 5786W        W22634   9.232  14.048   2.153 -0.2154 -0.1939  0.5178
 5787W        W22635  11.526   8.416  12.634 -0.1276  0.1493 -0.3974
 5788W        W22636   4.156   5.844   4.167  0.2908 -0.1015  0.3053
 5789W        W22637  17.112   7.478  11.172  0.2584  0.1203 -0.2099
 5790W        W22638  14.361  12.964   1.723 -0.0300  0.1373 -0.1986
 5791W        W22639  13.009   4.963   5.686 -0.0814 -0.0063  0.1691
 5792W        W22640   8.630  14.983   0.800 -0.2586  0.0783  0.0253
 5793W        W22641   1.454  10.066   2.510  0.1040 -0.0187 -0.0137
 5794W        W22642   1.159  12.917  11.698  0.1015  0.1499  0.1561
 5795W        W22643  13.319  17.107   3.694  0.1452  0.0138  0.2978
 5796W        W22644  15.685  16.381   1.035 -0.0129  0.1777 -0.3157
 5797W        W22645  16.734   3.287  11.958  0.3732 -0.0623 -0.1316
 5798W        W22646  10.081  14.143   3.205  0.2313  0.1510 -0.0940
 5799W        W22647   0.229   1.820  14.876  0.0514 -0.0499 -0.0011
 5800W        W22648  10.870   7.652   0.367  0.1460  0.0684  0.0743
 5801W        W22649   4.632  10.509  15.656  0.2589  0.0651 -0.1485
 5802W        W22650  12.883   8.396   4.980  0.3464 -0.2160 -0.2061
 5803W        W22651  17.713   9.827  14.280 -0.1594 -0.0163 -0.2462
 5804W        W22652   6.329  12.897  12.952  0.0876  0.2279  0.1868
 5805W        W22653   6.801  12.916  16.231 -0.4253 -0.3362 -0.0559
 5806W        W22654   4.853   8.762   1.204 -0.0852  0.1200  0.3014
 5807W        W22655   3.337   0.309   5.279 -0.2740  0.1170  0.3492
 5808W        W22656  14.835   8.239   4.166 -0.0367 -0.0791 -0.0485
 5809W        W22657   4.314   6.200   0.497  0.0734 -0.1018 -0.0642
 5810W        W22658  14.012  16.875  11.947 -0.2194 -0.0493 -0.2235
 5811W        W22659  15.559   4.023   5.252 -0.0350  0.3202  0.2421
 5812W        W22660   7.799  15.860  13.776  0.0084 -0.3501  0.0548
 5813W        W22661   9.722   4.474  16.391 -0.1803 -0.1863 -0.1549
 5814W        W22662   7.589   9.123  10.949 -0.0450 -0.0308  0.0088
 5815W        W22663  14.353   4.566  13.926  0.1232 -0.1535 -0.0868
 5816W        W22664  17.332   3.003   0.032 -0.1884  0.1050  0.1679
 5817W        W22665   0.612  15.357  13.186 -0.0883 -0.1225  0.1124
 5818W        W22666   3.962   1.417   1.308  0.0994 -0.1128  0.0492
 5819W        W22667  16.713   8.154   1.407 -0.0310 -0.0739 -0.0790
 5820W        W22668  15.744  17.025   3.593 -0.2890 -0.3903 -0.0565
 5821W        W22669  15.140   9.983   2.862  0.3020  0.0274 -0.2555
 5822W        W22670  17.284   1.967  11.981 -0.1393  0.2027  0.0556
 5823W        W22671   1.328   4.504  11.781 -0.1172  0.5529 -0.2234
 5824W        W22672  14.970   3.773  11.352 -0.2492 -0.0484 -0.1153
 5825W        W22673  11.409   9.219  13.178  0.2165 -0.0066 -0.1431
 5826W        W22674  15.439  14.332   0.690  0.2314  0.2074 -0.2023
 5827W        W22675   3.196   2.298  14.486  0.3189  0.0961 -0.5171
 5828W        W22676  10.172   3.368  12.909 -0.2261 -0.5185  0.1817
 5829W        W22677   8.946   2.168  12.364  0.2611 -0.0915 -0.2141
 5830W        W22678  17.402   9.625   0.745 -0.0904  0.0829 -0.1398
 5831W        W22679   5.089   7.248  12.234 -0.1331 -0.0803  0.0476
 5832W        W22680  14.860   6.855   2.737 -0.0694  0.1013 -0.0417
 5833W        W22681   6.225   4.766  13.351  0.0630  0.1741  0.1917
 5834W        W22682   7.484  13.368  12.747 -0.0341 -0.0976 -0.1026
 5835W        W22683   4.693   8.129  12.184  0.0642 -0.1218  0.1038
 5836W        W22684   1.915   6.687  14.101 -0.0753  0.0117  0.1598
 5837W        W22685   9.038   4.782  15.711 -0.1465 -0.2120  0.0609
 5838W        W22686   6.230  17.425   5.376 -0.0455  0.2118  0.0802
 5839W        W22687   3.571   5.265  12.882  0.0969  0.0121 -0.5086
 5840W        W22688   8.513  16.838  13.296 -0.1513 -0.0425  0.1900
 5841W        W22689  11.517   6.993   3.345  0.1832  0.0904  0.0343
 5842W        W22690   7.262  10.696  14.419  0.2705 -0.0560 -0.0787
 5843W        W22691  15.860   9.298   2.067 -0.1631 -0.1915  0.2537
 5844W        W22692   1.960  13.453  13.434 -0.2333 -0.0601  0.0502
 5845W        W22693   2.618   5.285  16.059  0.2045 -0.3938 -0.1733
 5846W        W22694  14.970  17.354   1.988 -0.0574  0.0925 -0.0042
 5847W        W22695   4.967   6.719  14.576 -0.3312  0.0547  0.1550
 5848W        W22696   9.886   3.558   4.139  0.0744  0.1244  0.2481
 5849W        W22697  14.054  11.728  13.351  0.2694 -0.1210 -0.0583
 5850W        W22698   3.710   7.608  14.984  0.0134 -0.1514 -0.3386
 5851W        W22699   7.480   7.188  16.251 -0.5425 -0.0365  0.1054
 5852W        W22700  17.374   6.269   1.440  0.0574 -0.1901  0.1130
 5853W        W22701   1.810   4.031  10.447 -0.4479 -0.0932  0.1889
 5854W        W22702  13.066   1.173   3.202  0.0693  0.0531 -0.0548
 5855W        W22703   1.130   4.143   4.523  0.4391 -0.2039 -0.0862
 5856W        W22704   3.185   9.641   5.856  0.0771  0.0421  0.0126
 5857W        W22705   9.740  10.489  13.965  0.1793  0.0748 -0.0227
 5858W        W22706  12.069   7.611  11.809 -0.1825  0.0109  0.0004
 5859W        W22707  11.583  11.858  16.155  0.1394 -0.1119  0.0064
 5860W        W22708  12.823   9.758  13.502  0.0349  0.1446  0.0508
 5861W        W22709  17.269   9.437  14.889  0.2433  0.1354  0.1086
 5862W        W22710   4.390   5.316  14.176 -0.2121  0.0105 -0.1758
 5863W        W22711   8.795  17.677   0.013  0.2309 -0.0246 -0.2447
 5864W        W22712   8.000  12.563  14.564 -0.0866  0.2765 -0.2128
 5865W        W22713   0.627   8.673   1.673 -0.3717 -0.2579  0.1129
 5866W        W22714   1.991   9.686  15.991  0.2485 -0.1452  0.0576
 5867W        W22715   3.302  11.786   0.120 -0.0379  0.0315 -0.0575
 5868W        W22716   1.196  16.688   3.089  0.1083  0.1647  0.1306
 5869W        W22717   5.262  10.238   2.078  0.1773 -0.0613 -0.0563
 5870W        W22718  11.533   3.149  14.043 -0.0117 -0.0836  0.1052
 5871W        W22719  13.635   9.822  13.678 -0.1605 -0.0839 -0.1406
 5872W        W22720   6.155   6.037   0.221 -0.0122 -0.0459  0.0785
 5873W        W22721  13.013  17.670  13.008 -0.1897  0.0137  0.0485
 5874W        W22722  10.046  13.255   2.111 -0.0354 -0.0685 -0.3390
 5875W        W22723  14.243  16.796  15.602 -0.1557  0.0151 -0.1053
 5876W        W22724   5.391  17.334   3.560  0.2969 -0.0362 -0.0794
 5877W        W22725   7.379   4.270  13.495 -0.2135 -0.0639 -0.0388
 5878W        W22726   8.592   7.498  16.257  0.2001 -0.3357  0.1179
 5879W        W22727  12.884  16.707   2.074  0.4168  0.0719 -0.3039
 5880W        W22728   0.322  16.620  16.464 -0.1545 -0.1661  0.0403
 5881W        W22729   6.419  12.356  15.211 -0.0251 -0.1891  0.0384
 5882W        W22730   1.704  16.667  15.328 -0.5362  0.2468 -0.0991
 5883W        W22731   6.887  12.131   1.958  0.0497  0.2695 -0.0203
 5884W        W22732  14.412   5.309   0.166  0.0812  0.0863 -0.2711
 5885W        W22733  10.734  15.075   5.218  0.2929 -0.1233  0.1206
 5886W        W22734   6.451   3.255  12.641  0.1335 -0.1012 -0.1473
 5887W        W22735  10.168  12.302  14.146  0.1135  0.2158  0.1632
 5888W        W22736  16.151   8.607   2.585 -0.3115  0.0907  0.2713
 5889W        W22737   9.543   7.002   3.914 -0.0174  0.1878 -0.1873
 5890W        W22738   7.073   3.584   0.765  0.2424 -0.4675 -0.0400
 5891W        W22739   8.986   6.664   2.482 -0.0110 -0.2625  0.0687
 5892W        W22740   9.895   9.609   3.017  0.0884 -0.0548 -0.1553
 5893W        W22741  11.870  13.684  12.426  0.0567  0.1227 -0.1063
 5894W        W22742  16.795   6.567   1.642 -0.0158  0.0536 -0.1261
 5895W        W22743   4.997  17.528   1.810  0.0228  0.1201  0.0930
 5896W        W22744  11.275   5.283  15.231  0.1282  0.0934  0.0470
 5897W        W22745   2.553   5.113  12.162  0.1525  0.0967  0.2510
 5898W        W22746   8.227   5.681  13.942 -0.0829  0.0016 -0.0690
 5899W        W22747  10.926  10.062   0.001  0.2325  0.1565  0.4043
 5900W        W22748  14.359   3.343  12.037  0.1218 -0.2959 -0.2039
 5901W        W22749  17.004   2.267   3.406 -0.0890 -0.0107 -0.0329
 5902W        W22750   5.566   4.578  14.756  0.1637  0.3892 -0.2569
 5903W        W22751   6.109   2.949  15.831 -0.0982 -0.3352 -0.0367
 5904W        W22752   3.197   4.071   4.736 -0.2353  0.1134  0.0041
 5905W        W22753  11.283   4.848   3.012  0.1191  0.0188 -0.1776
 5906W        W22754  15.657  11.886   0.715 -0.1521  0.0753 -0.0413
 5907W        W22755  13.628   1.958   0.368  0.0127  0.1891  0.1586
 5908W        W22756  14.913   8.380   1.113 -0.3753 -0.2245 -0.1203
 5909W        W22757   8.342  11.622  13.369  0.2911 -0.1615 -0.2924
 5910W        W22758   7.875   6.370   2.572 -0.0490 -0.3409  0.2842
 5911W        W22759  11.322  17.306  14.170  0.0828  0.2670  0.3712
 5912W        W22760  16.534   2.760  13.363 -0.0576 -0.1322 -0.4575
 5913W        W22761  12.850   0.097  12.602  0.1613  0.1472  0.0596
 5914W        W22762   6.623  10.691   0.728 -0.0930  0.0236  0.1393
 5915W        W22763   9.127   9.771  15.333 -0.0280  0.1768  0.4268
 5916W        W22764   7.557  16.724   1.702 -0.0806 -0.2753 -0.2124
 5917W        W22765  15.789  11.130  15.967 -0.0151 -0.0062 -0.1326
 5918W        W22766   6.584   8.185  15.741 -0.4709 -0.0532 -0.1236
 5919W        W22767  13.169   5.387   4.531  0.0963  0.1665  0.1004
 5920W        W22768   2.609   1.153   1.790 -0.0507  0.1437  0.1559
 5921W        W22769  11.305   3.170   2.628  0.0835  0.0536  0.3347
 5922W        W22770   9.127   2.561  12.165  0.2742  0.0815 -0.3032
 5923W        W22771   0.720  12.315   1.820  0.0703 -0.2441  0.0657
 5924W        W22772  13.440   5.008  15.152 -0.0681 -0.1018  0.3380
 5925W        W22773   7.127  15.618  15.598  0.1786 -0.0345 -0.0315
 5926W        W22774   4.511   2.760   3.151 -0.1287  0.2572 -0.0702
 5927W        W22775  15.796  13.678   3.723  0.3090  0.1358  0.0490
 5928W        W22776   0.872  16.806  13.485  0.1001 -0.0267 -0.1982
 5929W        W22777  12.976   4.266   1.309  0.1742  0.0029  0.0980
 5930W        W22778  13.036   2.203  12.008  0.0060 -0.0406 -0.0565
 5931W        W22779   4.691  13.940   0.280  0.1332 -0.4053 -0.1917
 5932W        W22780   8.854   5.478   0.873 -0.2572 -0.1365  0.0161
 5933W        W22781  10.169   5.211   1.972 -0.1144 -0.3499  0.0039
 5934W        W22782   6.347   5.109  14.776  0.1218 -0.2355  0.4867
 5935W        W22783  17.776   4.461  13.893 -0.2597 -0.0102 -0.3584
 5936W        W22784   4.393   0.706   0.085 -0.0958 -0.0818 -0.1168
 5937W        W22785   8.381   5.898  15.655  0.0123 -0.1145 -0.1776
 5938W        W22786   4.620   2.181  16.251  0.3103  0.3666 -0.2224
 5939W        W22787   2.194  12.531  10.839  0.3506 -0.1394 -0.1615
 5940W        W22788  12.751   1.287  16.440  0.1272  0.3003  0.0104
 5941W        W22789  10.584   8.040  14.671  0.2244 -0.0833  0.1469
 5942W        W22790   0.522   7.068  16.166 -0.2283 -0.2171 -0.2004
 5943W        W22791  14.812   3.278   2.629  0.0344 -0.1204 -0.0961
 5944W        W22792   8.745  13.020   5.884 -0.2111  0.1623  0.1957
 5945W        W22793   1.807  14.333   1.867  0.4188 -0.0541 -0.0405
 5946W        W22794   4.269  15.855  13.767 -0.0811 -0.1278 -0.0197
 5947W        W22795  15.887  11.598  15.700 -0.1053 -0.2227  0.0417
 5948W        W22796  13.462  11.560   4.278  0.0683  0.1582 -0.2366
 5949W        W22797  13.340   1.150  15.249 -0.2721 -0.1266  0.1136
 5950W        W22798  16.366   7.380  13.476 -0.1411  0.0726 -0.0835
 5951W        W22799   7.827   0.372   1.246  0.1378  0.1189 -0.1041
 5952W        W22800  16.072  10.626   3.850 -0.3405  0.1878 -0.0774
 5953W        W22801  17.223  12.864   0.492  0.1232  0.1458 -0.4940
 5954W        W22802   9.807  10.719   4.052  0.1181  0.2599 -0.0108
 5955W        W22803  10.306   6.097  14.602  0.0759  0.0816  0.0705
 5956W        W22804  16.974  15.996  14.821  0.0958  0.2065 -0.0667
 5957W        W22805  16.766   0.047   1.400  0.0902  0.0992 -0.1586
 5958W        W22806   2.635   6.340  13.333  0.3917 -0.1618 -0.0255
 5959W        W22807   4.566   4.146   1.384 -0.2284 -0.1118 -0.0062
 5960W        W22808   1.942  16.819  11.001 -0.1492  0.1960 -0.0252
 5961W        W22809  16.474  15.077  11.345  0.0206  0.1591 -0.1423
 5962W        W22810  12.676  17.825  16.236 -0.4464 -0.0939 -0.2311
 5963W        W22811  15.433   4.516  15.910  0.0815 -0.0878  0.1774
 5964W        W22812   9.501   0.082   0.361  0.1676  0.0421  0.1918
 5965W        W22813   7.386  11.386   3.776  0.2233 -0.1466  0.0535
 5966W        W22814  15.112  11.673  11.685 -0.1824  0.6080  0.2223
 5967W        W22815   0.677   4.652   2.945  0.0603  0.0754 -0.1848
 5968W        W22816   2.716  17.426  12.250  0.0761 -0.1803  0.0310
 5969W        W22817   4.272   7.659  11.737  0.1688 -0.0985 -0.0880
 5970W        W22818  11.939   5.883  13.184  0.1581  0.0218  0.2308
 5971W        W22819  14.495  16.686  12.028  0.0622  0.3845  0.0428
 5972W        W22820  12.254  17.336  13.135 -0.0608  0.2882 -0.2427
 5973W        W22821  11.711  13.473   1.393 -0.0581  0.0546 -0.1198
 5974W        W22822   8.652   4.118   4.346 -0.1102  0.1608  0.3320
 5975W        W22823   3.714  14.188   5.220  0.0065 -0.0285 -0.1033
 5976W        W22824  13.181   1.343  14.111 -0.1121  0.2181 -0.1520
 5977W        W22825  15.176  14.169  13.925  0.0747 -0.1328 -0.2379
 5978W        W22826  16.480   8.375   3.419 -0.0753 -0.1077 -0.2049
 5979W        W22827  14.235  11.666   5.482 -0.2535  0.1054  0.0860
 5980W        W22828   5.917   2.335   2.997  0.2991  0.2689 -0.1405
 5981W        W22829  13.123  11.843  12.317 -0.0073  0.1713  0.0481
 5982W        W22830  15.437  14.143   2.080  0.0068 -0.2675 -0.1405
 5983W        W22831   5.457   9.911  10.833  0.0785  0.3840 -0.1156
 5984W        W22832  10.988   9.221  14.504  0.0815 -0.1881  0.1455
 5985W        W22833   3.205  17.718  12.146 -0.0561  0.0479 -0.2562
 5986W        W22834   2.306   0.120   0.985  0.1281 -0.1173 -0.2296
 5987W        W22835   0.331  10.311   2.682  0.0968 -0.2624 -0.2242
 5988W        W22836   4.088   8.714   1.497  0.1250  0.1150 -0.0248
 5989W        W22837   0.345  15.669  15.469 -0.3675  0.1106 -0.1540
 5990W        W22838  11.099   2.424  16.460  0.1900 -0.0818  0.0657
 5991W        W22839  10.007   5.762   2.996 -0.1859 -0.1773  0.3136
 5992W        W22840   6.048  16.811   2.341 -0.2172  0.0244  0.3128
 5993W        W22841   6.355   1.240   3.376  0.2975  0.0755 -0.0742
 5994W        W22842   0.189   0.631   3.170 -0.1373  0.3192 -0.0060
 5995W        W22843  11.080   2.380  12.026 -0.2795 -0.0051 -0.1337
 5996W        W22844   1.254   5.895   3.981 -0.0279  0.0164 -0.0916
 5997W        W22845  14.056   9.617  14.991  0.2445 -0.0793  0.0988
 5998W        W22846   1.301   7.563  14.327 -0.0090  0.1964 -0.2664
 5999W        W22847   8.359   8.141   1.118  0.3978 -0.0972 -0.2094
 6000W        W22848  10.543   6.512   2.630  0.0639 -0.1014  0.0160
 6001W        W22849   3.348  10.084  15.617  0.1549 -0.2588 -0.3761
 6002W        W22850  16.406   4.637  16.065  0.0131  0.0930 -0.2789
 6003W        W22851   6.005   4.615   3.595  0.1249  0.1327 -0.1636
 6004W        W22852  10.416   2.405  12.473  0.1392  0.0061 -0.0378
 6005W        W22853  16.953  16.458  11.388 -0.0865  0.0876  0.2573
 6006W        W22854  13.578   2.662   5.519 -0.1305  0.3580  0.1384
 6007W        W22855   6.931  13.575  10.572  0.0930  0.0731 -0.1256
 6008W        W22856   4.698  15.123   4.388  0.0903  0.1152  0.2683
 6009W        W22857   8.009  14.577  10.732 -0.0755  0.4204  0.2044
 6010W        W22858   3.431  17.571  13.349  0.1456 -0.5548 -0.0285
 6011W        W22859   9.349   3.806  13.562  0.3803  0.0842  0.1495
 6012W        W22860  15.999   9.507   3.677  0.0427  0.2556 -0.1313
 6013W        W22861   3.113   8.073  13.458 -0.0275 -0.1522  0.1490
 6014W        W22862   1.588   3.203   3.907  0.2147 -0.3581 -0.2166
 6015W        W22863   2.547   7.592   1.797  0.1318  0.1719  0.0983
 6016W        W22864   8.582   7.385  12.728  0.0655 -0.0203 -0.1597
 6017W        W22865   7.248  15.917  12.976  0.1332 -0.0091 -0.1453
 6018W        W22866   9.519  13.249   4.073  0.0554 -0.0017 -0.1970
 6019W        W22867  10.786   0.456   2.690 -0.0737  0.0885  0.0743
 6020W        W22868  13.792  15.355  14.754  0.0149 -0.2109 -0.0677
 6021W        W22869   3.094  12.768   3.329  0.0870 -0.1888 -0.2314
 6022W        W22870   1.355  11.460   4.725  0.1350  0.1831 -0.1826
 6023W        W22871   4.800   3.869   3.718 -0.0925  0.3082  0.4197
 6024W        W22872   3.520  11.902   2.401 -0.0720  0.4370  0.0444
 6025W        W22873  16.864   0.546   0.712  0.1366  0.2619  0.0548
 6026W        W22874   8.014  13.576   5.128  0.1136 -0.0666 -0.0416
 6027W        W22875  13.676   5.132  12.545  0.0838 -0.1497 -0.1244
 6028W        W22876  17.296   9.634   1.644 -0.0894 -0.1862  0.0159
 6029W        W22877  15.333  11.003   1.232 -0.0540  0.1729  0.0896
 6030W        W22878   6.770  11.198   0.681  0.1154  0.0549  0.0371
 6031W        W22879   5.899   6.809  12.734  0.0236 -0.1207 -0.0235
 6032W        W22880  14.095   8.147  12.648 -0.0017  0.0558 -0.3465
 6033W        W22881   5.930  13.812  14.226 -0.1267  0.0745  0.1873
 6034W        W22882   6.216   4.066  15.880 -0.1530 -0.1396  0.2075
 6035W        W22883  12.907   0.431  15.911 -0.0862 -0.2823  0.1292
 6036W        W22884   3.948   3.816   4.658  0.1870 -0.1370  0.1833
 6037W        W22885  15.442   6.442  12.524 -0.2134  0.0646 -0.3196
 6038W        W22886   2.454   4.015  12.970 -0.0431 -0.2838  0.1048
 6039W        W22887  10.953  11.114   1.383  0.0285 -0.1703  0.0708
 6040W        W22888   6.187   0.753  15.006 -0.2255 -0.0814  0.3837
 6041W        W22889  16.449   0.863  13.741  0.0825 -0.0756 -0.0982
 6042W        W22890  12.012  11.243  15.496 -0.1420 -0.0181 -0.1101
 6043W        W22891  12.122   2.369  16.248 -0.0848 -0.0081  0.0140
 6044W        W22892  17.003   2.177  15.124  0.1725  0.1548  0.0387
 6045W        W22893  11.449  13.924   4.616 -0.0573  0.1479  0.0528
 6046W        W22894   7.000   1.113   1.435  0.3964  0.0869 -0.2460
 6047W        W22895   3.172   7.272  15.671  0.0001 -0.2509  0.1422
 6048W        W22896  17.462  10.504  12.574  0.4389  0.0565  0.3180
 6049W        W22897   3.511  13.774   5.736  0.1089  0.0398 -0.0879
 6050W        W22898   7.720   7.397  15.332 -0.2972  0.0351 -0.1230
 6051W        W22899   5.655   4.761  12.180 -0.3491 -0.0228 -0.1632
 6052W        W22900  12.906   7.954  16.610  0.2671  0.3095  0.0596
 6053W        W22901   8.839  11.657   0.502  0.0969 -0.1293 -0.5805
 6054W        W22902   0.834  11.360   5.079  0.3086  0.0621  0.1627
 6055W        W22903  10.414   2.652  14.738  0.1967  0.1506  0.1039
 6056W        W22904  16.618  17.416  14.784  0.3781  0.1482 -0.0344
 6057W        W22905  12.862   2.726   4.066 -0.0737  0.1186 -0.1286
 6058W        W22906  16.344   9.540   4.489 -0.2339 -0.2131  0.3646
 6059W        W22907   1.595  11.759   2.472  0.0987  0.0824  0.2275
 6060W        W22908  15.751  17.403  14.510  0.0608  0.0791  0.0577
 6061W        W22909  16.768  10.821   4.446 -0.2871 -0.3466 -0.0838
 6062W        W22910   0.223   1.132   3.855  0.0879 -0.1957 -0.1387
 6063W        W22911  12.584  17.118  14.126  0.0814  0.0117  0.4567
 6064W        W22912  16.620  10.805   1.114  0.0716 -0.1462 -0.3030
 6065W        W22913  16.462  15.637  11.327  0.0791  0.0860  0.1561
 6066W        W22914   1.521  11.363   0.352  0.1326  0.1778 -0.3843
 6067W        W22915  14.201  15.228  15.135  0.1786  0.1683  0.0559
 6068W        W22916   6.906   8.171   4.560  0.3062 -0.0765 -0.4095
 6069W        W22917   3.185   8.075  14.320  0.1122  0.1044  0.2395
 6070W        W22918  10.653  14.310   0.263 -0.0783  0.0922  0.2415
 6071W        W22919  10.413  15.017  11.967 -0.0859 -0.2377 -0.0727
 6072W        W22920  15.082   1.658   1.586  0.0992 -0.1199 -0.1295
 6073W        W22921   4.631   6.340   1.027  0.1574  0.0122  0.1869
 6074W        W22922  11.854   9.344   4.766  0.0392  0.1562 -0.0161
 6075W        W22923  12.304   7.540   0.602 -0.3176  0.1821  0.2473
 6076W        W22924   2.402   5.486   3.222 -0.1808 -0.1430  0.4984
 6077W        W22925  15.901   0.282  15.751  0.1186  0.0804  0.0262
 6078W        W22926  14.633   5.286   3.143 -0.1020  0.1184  0.1081
 6079W        W22927  11.802  12.743   5.205 -0.2290  0.2847  0.0314
 6080W        W22928   4.872  10.359   2.972  0.1940 -0.1991 -0.3207
 6081W        W22929  15.523   7.443   2.062 -0.2303 -0.0341 -0.0594
 6082W        W22930   7.542  13.785   0.725 -0.0747  0.0991  0.1750
 6083W        W22931   2.462  17.669  15.875  0.1068  0.2558 -0.2866
 6084W        W22932   8.765   1.181  13.613 -0.0405 -0.3782 -0.0836
 6085W        W22933   0.772   0.741  16.559  0.1521 -0.0708  0.0040
 6086W        W22934   8.686   1.331   5.113  0.0705 -0.1332 -0.2984
 6087W        W22935  17.733  10.719  11.944  0.1275 -0.0532  0.0832
 6088W        W22936   4.680   5.597   5.733  0.1538  0.1263  0.0707
 6089W        W22937  15.309   9.771  12.433 -0.0482  0.1363 -0.0291
 6090W        W22938  16.505  14.506  13.893  0.0060 -0.1802  0.1937
 6091W        W22939  16.588   2.399  12.294  0.2730  0.1078 -0.1408
 6092W        W22940   6.006   0.914   3.544  0.1669  0.1655  0.2284
 6093W        W22941   8.232   8.143  15.660 -0.0833  0.3208  0.2031
 6094W        W22942  14.283   3.528  14.864 -0.0016 -0.0042 -0.1526
 6095W        W22943   2.572   3.499   0.500  0.2465  0.0651  0.2849
 6096W        W22944  10.800  12.054   2.312 -0.0019  0.0797  0.0310
 6097W        W22945  14.778  14.997  13.232 -0.1564 -0.1730  0.1129
 6098W        W22946  15.776  13.339   1.780 -0.0970  0.0089  0.0398
 6099W        W22947   8.106   1.195   5.006 -0.0681  0.2452  0.2922
 6100W        W22948   3.087  11.606   2.554  0.0845 -0.3386  0.0673
 6101W        W22949   0.848  15.121   3.950  0.1969  0.1703 -0.0748
 6102W        W22950   7.222  17.698   2.748  0.0834  0.0428  0.0642
 6103W        W22951  10.358  10.602   5.547 -0.0151 -0.0550 -0.0383
 6104W        W22952  12.524   1.979  11.890 -0.3011 -0.2525 -0.0340
 6105W        W22953  17.135   4.906   4.190  0.2567  0.1122 -0.0113
 6106W        W22954  15.901  16.171  12.956 -0.0894  0.0922  0.4228
 6107W        W22955   0.863   2.706   4.220  0.0996 -0.0962 -0.0284
 6108W        W22956  14.995   4.229   3.485 -0.0010  0.3245 -0.1110
 6109W        W22957  16.588  16.900  11.263 -0.0679 -0.2004 -0.2248
 6110W        W22958  14.797  11.779   4.122  0.1113 -0.1813  0.1508
 6111W        W22959  17.105  12.157   4.149 -0.3548  0.0631 -0.0734
 6112W        W22960   1.764   8.174  11.229  0.0403  0.0711 -0.1951
 6113W        W22961   9.227   6.900  11.906 -0.1991  0.1259 -0.2807
 6114W        W22962  11.062  10.999  10.868  0.0538  0.2006 -0.3777
 6115W        W22963  15.117   7.941   0.445  0.1284 -0.0660  0.0124
 6116W        W22964  14.375  15.702  15.409  0.6440 -0.0163 -0.1088
 6117W        W22965  13.114  13.408   0.849  0.1415  0.4772 -0.1259
 6118W        W22966  11.085  11.208  13.562  0.0949  0.5105 -0.1693
 6119W        W22967  16.413  10.202  10.593 -0.1145 -0.0836  0.2402
 6120W        W22968  14.605   4.625  12.461  0.2573 -0.3328 -0.2320
 6121W        W22969   2.993   5.496   4.774  0.0940  0.0275  0.0114
 6122W        W22970  15.409   2.893   1.503  0.2356 -0.0822  0.0546
 6123W        W22971  16.999  17.295   2.643  0.0534 -0.0116 -0.0306
 6124W        W22972   0.284   1.737   4.615 -0.0912  0.1013  0.3431
 6125W        W22973   1.943  11.525   5.159  0.2411 -0.2036 -0.0685
 6126W        W22974   5.003   7.551  15.067 -0.0475 -0.2302 -0.1522
 6127W        W22975   0.810   6.063   2.140  0.0635 -0.1887 -0.0068
 6128W        W22976   9.947   7.158  15.754 -0.0780 -0.2082  0.1052
 6129W        W22977  15.576  17.582   1.008 -0.1076 -0.2478 -0.1978
 6130W        W22978   0.465   9.323   2.406  0.1527  0.1324 -0.0176
 6131W        W22979   2.561  13.755  16.510  0.2304 -0.2921  0.0729
 6132W        W22980   2.392   5.670  15.807  0.2449  0.0724  0.0252
 6133W        W22981  17.800   5.382   0.291  0.1053  0.2520  0.0105
 6134W        W22982   6.448   4.421  14.318  0.0623 -0.0570  0.1631
 6135W        W22983  12.873  10.966  12.898  0.1597 -0.2479  0.0237
 6136W        W22984   1.973   2.920   4.216  0.0520  0.3004 -0.1667
 6137W        W22985   5.775   0.018   6.117 -0.0659  0.0839 -0.1103
 6138W        W22986   6.285  10.724   4.751 -0.1071 -0.1643 -0.0180
 6139W        W22987  10.040   1.120   2.077  0.2450  0.0625 -0.0052
 6140W        W22988   1.528  13.267  11.769  0.0297  0.3202 -0.1041
 6141W        W22989   3.035  11.663   3.665 -0.0363  0.5006 -0.1707
 6142W        W22990  11.391   9.785   5.378  0.2577  0.2633 -0.2915
 6143W        W22991  15.357  11.253  15.791 -0.0300 -0.1277  0.1503
 6144W        W22992   9.329   5.073   2.988  0.0360  0.1413 -0.0342
 6145W        W22993  16.547   2.426  12.797  0.2172 -0.1354  0.0536
 6146W        W22994   1.606   1.157   1.835 -0.0540  0.3041  0.3256
 6147W        W22995   1.486  14.903  11.311 -0.0646  0.0648  0.2267
 6148W        W22996   3.464  10.413  14.633 -0.1347 -0.1356  0.0900
 6149W        W22997  14.939   7.495   0.295  0.2401 -0.1024 -0.0737
 6150W        W22998  15.173   0.813   0.137  0.0237  0.2476  0.1165
 6151W        W22999  13.628   5.031   3.329  0.0470  0.0093 -0.5216
 6152W        W23000   0.950   8.855  11.365  0.0654  0.0019 -0.2697
 6153W        W23001   8.850   6.663  13.252 -0.0464  0.0702  0.4005
 6154W        W23002  15.091   0.337  11.158  0.3470  0.0055  0.1378
 6155W        W23003   3.722  15.205   6.573  0.1037 -0.2714 -0.0621
 6156W        W23004   3.466  11.176   4.978  0.0658 -0.0626 -0.1049
 6157W        W23005  11.271  13.665  16.546  0.0406 -0.0597  0.1983
 6158W        W23006   9.891   8.187  13.471 -0.0991 -0.0795  0.3959
 6159W        W23007  11.915  11.013  13.434 -0.2801  0.1571  0.0429
 6160W        W23008   8.064   0.311   0.775 -0.0189 -0.1684  0.2020
 6161W        W23009   2.950  16.836   0.571  0.2023 -0.0056  0.1816
 6162W        W23010  16.442   6.227   2.707  0.0855 -0.3303  0.1213
 6163W        W23011   2.737   5.712   3.429  0.2331  0.0339  0.1008
 6164W        W23012  11.036   5.039  16.406  0.3693  0.3316  0.1105
 6165W        W23013  14.741   6.110   0.732 -0.3003 -0.3650  0.2832
 6166W        W23014   0.540   7.531  13.230 -0.0410  0.0374 -0.2457
 6167W        W23015  10.203  16.270   3.579  0.1187 -0.2973 -0.0320
 6168W        W23016   0.897  14.851   3.213  0.1825  0.0169  0.2873
 6169W        W23017   0.352   8.594  12.760 -0.1798  0.2956  0.1374
 6170W        W23018   7.973   8.447   3.639 -0.4535  0.1489  0.0196
 6171W        W23019  15.931   7.367   0.058 -0.0633  0.0918 -0.0201
 6172W        W23020   2.297   9.588  13.071  0.0790 -0.1708 -0.1707
 6173W        W23021   6.182   6.197  13.331 -0.1928 -0.2751 -0.0846
 6174W        W23022  14.763  13.068   0.772 -0.2122  0.1243  0.2139
 6175W        W23023  14.437   6.595   0.692 -0.2059 -0.3516  0.1054
 6176W        W23024   0.799   6.305  12.280 -0.0496 -0.1561 -0.3978
 6177W        W23025  15.116   7.118   2.253 -0.0633 -0.2064 -0.1279
 6178W        W23026  11.718   1.988   1.618  0.0853  0.0098 -0.2694
 6179W        W23027  13.322   9.932   2.082  0.0702  0.0717 -0.2657
 6180W        W23028   5.577  14.283  15.519 -0.4281  0.0920  0.2099
 6181W        W23029   2.337  15.044   5.613  0.0664 -0.1410  0.0284
 6182W        W23030  14.452  11.781  13.088  0.0670 -0.0175  0.0682
 6183W        W23031  16.344  12.925  12.537  0.2898  0.0884 -0.0315
 6184W        W23032   8.335  12.289   4.614 -0.1037  0.0276  0.0424
 6185W        W23033   6.320   8.475  14.369  0.1667 -0.0110  0.0928
 6186W        W23034   2.827  11.171   2.313  0.1301 -0.1828 -0.0008
 6187W        W23035   2.131   2.409  14.282  0.2851 -0.0814 -0.2085
 6188W        W23036   6.950   0.611   1.770 -0.0093 -0.0312  0.1095
 6189W        W23037   4.445   8.004  13.360  0.1541  0.0045 -0.1047
 6190W        W23038   5.173  17.182  12.252 -0.2994  0.0636  0.2394
 6191W        W23039   3.435  10.511  11.540  0.0998 -0.0197  0.2456
 6192W        W23040   7.935  14.083   3.046  0.3115  0.0464  0.0105
 6193W        W23041  13.017  14.828   4.872  0.0164  0.0016  0.1084
 6194W        W23042  13.510  16.356   1.414 -0.0455  0.0152 -0.1426
 6195W        W23043   5.877   4.358  14.223  0.0106 -0.2145 -0.2229
 6196W        W23044  11.003  12.430  12.970 -0.2741 -0.2528  0.0652
 6197W        W23045   7.854   8.189  16.357  0.2848  0.3952 -0.2369
 6198W        W23046  12.399  11.155  13.884 -0.3222 -0.2482 -0.0100
 6199W        W23047   7.953  12.579  13.044 -0.1338 -0.1886 -0.0118
 6200W        W23048   9.170   5.118   0.977 -0.0776 -0.0033 -0.0479
 6201W        W23049   6.464   0.634   1.663  0.2095 -0.0306 -0.2126
 6202W        W23050   2.396   6.815  14.027  0.0822  0.2276  0.1679
 6203W        W23051  15.930  15.872   2.753  0.3272 -0.2054  0.2719
 6204W        W23052  13.115  10.801   1.123 -0.3121 -0.1848  0.0590
 6205W        W23053   2.299   5.883  13.464  0.0848 -0.1745  0.0533
 6206W        W23054   7.215  13.428   0.328 -0.5522 -0.0745  0.1683
 6207W        W23055   6.726  14.607  15.438 -0.4232 -0.2061 -0.0401
 6208W        W23056   9.432  14.275  14.483 -0.0830  0.1137 -0.0389
 6209W        W23057   3.749  10.981  11.571 -0.3007 -0.1007 -0.2326
 6210W        W23058   2.177  14.434   1.319 -0.0330  0.0440 -0.1112
 6211W        W23059  10.530   3.323  14.234  0.0536 -0.1004  0.0098
 6212W        W23060   1.797   3.242   3.464 -0.2061  0.1652  0.0819
 6213W        W23061   0.137   1.879   2.692 -0.1562  0.4060 -0.0716
 6214W        W23062  13.318   6.269  14.876  0.1308  0.1685  0.1165
 6215W        W23063  15.319   3.498   2.798  0.2253  0.1238  0.0520
 6216W        W23064  10.238   9.393  10.675  0.0012  0.0010  0.0281
 6217W        W23065   3.435   0.239  13.425 -0.2657  0.0596 -0.2121
 6218W        W23066   2.910  17.536  13.099 -0.0110 -0.2385 -0.1913
 6219W        W23067   5.903   6.537  14.428 -0.1801  0.2195  0.3535
 6220W        W23068  11.274   0.162   3.644 -0.2828 -0.1014  0.1509
 6221W        W23069   3.582   6.045   0.207  0.3413  0.2251 -0.1147
 6222W        W23070   2.575  11.859   1.807  0.3725 -0.2485  0.0544
 6223W        W23071  10.634  17.255  11.402  0.1146 -0.1981 -0.1908
 6224W        W23072   5.612  11.817   1.094  0.1563 -0.2907  0.1506
 6225W        W23073   4.152   1.243  13.756 -0.2225 -0.0605  0.1175
 6226W        W23074  15.382  11.994  16.413  0.1088 -0.1130  0.0833
 6227W        W23075   6.356   0.974  14.094  0.0481  0.0114  0.2765
 6228W        W23076   5.628   0.885  12.318 -0.2268  0.0731 -0.2688
 6229W        W23077  17.255   4.484   0.630  0.0847 -0.0367 -0.1527
 6230W        W23078   1.105   4.404   3.650 -0.0871 -0.1591 -0.4347
 6231W        W23079  14.136   8.655   5.473 -0.3194  0.1080 -0.0844
 6232W        W23080   4.164  11.866  10.595  0.1384 -0.1178 -0.2052
 6233W        W23081   4.494  16.922  15.316  0.0722  0.1967  0.1124
 6234W        W23082   2.300  17.810  16.365 -0.2926 -0.4281  0.0307
 6235W        W23083  10.062   3.107   3.812  0.1096  0.0312  0.3339
 6236W        W23084  15.784  16.101  11.768 -0.0420  0.0160  0.0140
 6237W        W23085   8.766  11.570  14.956 -0.2275  0.2865  0.0507
 6238W        W23086   9.153   7.911  13.051  0.3378  0.4001 -0.1889
 6239W        W23087   2.473   8.122   4.839 -0.1214 -0.4439  0.1592
 6240W        W23088   3.309   9.084  15.066 -0.0328 -0.3212 -0.0017
 6241W        W23089  15.929  12.805   4.190 -0.1010  0.2788  0.0673
 6242W        W23090   2.790  12.212   4.637 -0.0134 -0.2713 -0.3955
 6243W        W23091   6.294  13.174   1.146 -0.1443  0.0064  0.1023
 6244W        W23092  14.537   0.216  14.233 -0.1146  0.1784 -0.1063
 6245W        W23093   3.221  10.515   2.988 -0.1692 -0.0396 -0.1552
 6246W        W23094  14.465  13.654  12.159  0.3137 -0.3340 -0.2288
 6247W        W23095  12.495  16.548  15.936  0.2718 -0.1527  0.1475
 6248W        W23096  14.852   8.230   4.682  0.3639 -0.0337  0.1394
 6249W        W23097  10.740   8.590  13.053  0.1565  0.0570 -0.0873
 6250W        W23098   4.496  14.957   1.168 -0.1904 -0.1945  0.3037
 6251W        W23099   1.053  14.563  13.064 -0.0034 -0.2403  0.0112
 6252W        W23100   1.076   9.652  11.365 -0.2661  0.1465 -0.0249
 6253W        W23101   0.555  12.944   3.977  0.2826  0.0581  0.2245
 6254W        W23102   1.553   6.911  13.490  0.2210 -0.1196  0.5169
 6255W        W23103   6.502   2.292   3.642 -0.0548 -0.0282  0.1666
 6256W        W23104   3.793   8.707   1.140  0.1036 -0.0006 -0.0506
 6257W        W23105   0.423  15.655  16.469  0.0160  0.0393  0.0984
 6258W        W23106  15.381  17.604   0.291 -0.2702 -0.1433  0.2733
 6259W        W23107   2.335  12.834  12.198 -0.0425  0.0661 -0.1888
 6260W        W23108   6.047   0.060   3.490  0.0677 -0.1165  0.0179
 6261W        W23109   6.078  11.340  15.605 -0.0986 -0.0387 -0.1227
 6262W        W23110  15.495  10.032   2.475  0.2294  0.0425  0.2133
 6263W        W23111   5.254   3.018  16.135 -0.2512 -0.0186  0.1862
 6264W        W23112  11.141   8.038   0.526  0.1427  0.0426 -0.2905
 6265W        W23113  10.608   2.163   4.483 -0.0919 -0.0514  0.2137
 6266W        W23114   0.693   2.861  12.771 -0.0711 -0.0479  0.2532
 6267W        W23115   3.366   1.086  14.334  0.0179 -0.2284 -0.1507
 6268W        W23116  15.727   9.332  15.351  0.0693  0.3135 -0.0120
 6269W        W23117  16.295   1.943   0.104 -0.2624 -0.2722 -0.2440
 6270W        W23118   8.079   0.453  13.563  0.1260  0.1373  0.2488
 6271W        W23119   7.088   0.907   5.185  0.1906  0.3027  0.2104
 6272W        W23120   8.651  15.292   4.338 -0.1668  0.2509 -0.0193
 6273W        W23121  16.821  11.712  16.529  0.4145  0.0202 -0.0384
 6274W        W23122  15.778  16.628   3.252 -0.1101  0.1721  0.1914
 6275W        W23123   4.871   1.612  15.041  0.0674 -0.1809 -0.0563
 6276W        W23124   3.595  15.123  11.579 -0.1137 -0.2319 -0.0714
 6277W        W23125  14.691   0.282  12.008  0.1476  0.0846  0.0139
 6278W        W23126  17.526  15.146   3.981 -0.0675 -0.2310  0.0338
 6279W        W23127   1.441   0.280  11.506  0.3849 -0.0205  0.0932
 6280W        W23128   1.782   8.603  12.546  0.1643 -0.0566  0.1288
 6281W        W23129   9.236   0.277   4.519  0.1332  0.1038  0.1979
 6282W        W23130   1.343   2.542   0.580  0.0530 -0.1439 -0.5058
 6283W        W23131   9.188   6.530  15.497  0.2270  0.0237  0.0806
 6284W        W23132   6.786   5.371  13.564  0.1537  0.0586 -0.0217
 6285W        W23133   0.001   8.697  14.525  0.0607 -0.1026 -0.0689
 6286W        W23134  13.963   7.307  12.902 -0.0556 -0.0495  0.0813
 6287W        W23135   0.700  13.176   5.426  0.0250 -0.0409  0.1260
 6288W        W23136   5.643  12.718   1.038  0.1768 -0.1959  0.0221
 6289W        W23137   8.026  12.742  12.558  0.1432  0.1762  0.2351
 6290W        W23138   4.008  17.082   5.807 -0.3132  0.0947  0.0308
 6291W        W23139   3.472  16.021   3.419 -0.3527 -0.1006  0.3174
 6292W        W23140  10.501  13.383  14.948 -0.2129  0.0228  0.1664
 6293W        W23141   0.720  14.636   4.022  0.0867  0.0474  0.0243
 6294W        W23142  15.730   1.617   3.240 -0.1801  0.2083  0.2677
 6295W        W23143  13.286  14.743   1.203  0.1461 -0.0236  0.1903
 6296W        W23144  13.464  11.694   1.382  0.0428 -0.0125  0.2646
 6297W        W23145   6.342  10.144   6.043  0.0184  0.2292  0.0253
 6298W        W23146  11.910  14.728   4.494 -0.1475 -0.2409 -0.0252
 6299W        W23147   7.554   7.654  14.778 -0.0928 -0.0821  0.0841
 6300W        W23148   7.780   7.865  15.140 -0.1061  0.0371 -0.1964
 6301W        W23149   0.005  12.945  16.127  0.2027  0.2254  0.2607
 6302W        W23150   9.962  13.073  16.312 -0.0796  0.2600  0.1023
 6303W        W23151  15.858   7.312  13.312  0.0319 -0.0593  0.1994
 6304W        W23152  10.423   9.743   2.426 -0.0317 -0.1258  0.1345
 6305W        W23153   2.511   5.592   4.807  0.1535  0.0813 -0.0590
 6306W        W23154   5.719   5.914  15.593 -0.1832  0.1124 -0.0360
 6307W        W23155  12.839  13.748  13.303 -0.4747  0.0389  0.0016
 6308W        W23156  15.156   2.406   1.316 -0.3439 -0.0382  0.2589
 6309W        W23157   7.482   6.300   2.867  0.0610  0.1428 -0.2953
 6310W        W23158   4.820  15.068   2.441 -0.1917 -0.2493  0.0004
 6311W        W23159  16.769  11.616  15.159 -0.2120 -0.1589  0.3772
 6312W        W23160  16.132   3.077  14.418 -0.2481 -0.0658 -0.1029
 6313W        W23161  13.853   8.099  14.094 -0.2910 -0.1044 -0.4180
 6314W        W23162  16.629   1.886   4.800 -0.1221 -0.0778  0.0445
 6315W        W23163   5.512   4.105  12.400 -0.1977 -0.0587 -0.1857
 6316W        W23164   6.049   6.397  13.848  0.0028 -0.0229 -0.0216
 6317W        W23165   1.813   1.593   1.797  0.0322 -0.0836 -0.0928
 6318W        W23166   4.279   2.801  16.040 -0.0882  0.1095  0.0779
 6319W        W23167   1.645  11.234  10.299  0.2651  0.0002 -0.0835
 6320W        W23168   1.874   4.295  13.543  0.0611  0.0374 -0.0697
 6321W        W23169   2.134  13.973  15.316 -0.0481  0.1505 -0.0631
 6322W        W23170   1.434   3.314  11.801  0.1579 -0.1198 -0.0156
 6323W        W23171   3.528  10.656   3.360 -0.1464  0.0786  0.0767
 6324W        W23172   6.060  15.440   2.644 -0.0668  0.2565 -0.1685
 6325W        W23173   4.982   4.082   0.953  0.0326  0.1646 -0.0705
 6326W        W23174   5.060  12.519   2.651  0.0272 -0.3347  0.1028
 6327W        W23175   0.059   2.588  10.936  0.3732 -0.1475  0.1414
 6328W        W23176   3.787   4.238  12.100 -0.0336 -0.2052 -0.2615
 6329W        W23177  10.901  11.141  15.684 -0.3335  0.0550  0.2864
 6330W        W23178   8.536   2.027  15.744 -0.3788 -0.0370 -0.2818
 6331W        W23179  14.164   7.728  13.806 -0.0841  0.0687 -0.1188
 6332W        W23180   8.461  10.487  11.847  0.1809 -0.0583 -0.0061
 6333W        W23181  11.764  16.233   4.395  0.0827  0.1908  0.0048
 6334W        W23182   2.071  14.234   4.993  0.0621  0.1355  0.1496
 6335W        W23183  16.422   5.847  14.678  0.0159  0.0552  0.1031
 6336W        W23184   2.877   6.520   2.903  0.0061  0.1607  0.0982
 6337W        W23185  14.786  17.524   0.412  0.0192  0.2405 -0.2648
 6338W        W23186  10.417   0.830   4.429 -0.1136  0.1991  0.1585
 6339W        W23187  13.053   3.206   6.287  0.1249  0.0645  0.1964
 6340W        W23188  11.150   5.998   4.061  0.0116  0.1263 -0.1364
 6341W        W23189   2.438   4.489  14.520  0.0269  0.2591 -0.0737
 6342W        W23190   0.094   4.721  15.239  0.0917  0.1159  0.2545
 6343W        W23191   9.167  17.454  15.530 -0.1154 -0.2465  0.1662
 6344W        W23192   2.446   1.400  15.193 -0.0497  0.0522 -0.3478
 6345W        W23193  12.919   5.034  13.745  0.1072 -0.1826 -0.4854
 6346W        W23194   7.381   0.582   1.306  0.1001 -0.0048  0.0400
 6347W        W23195   1.216   8.883   3.020  0.2082  0.1411 -0.2375
 6348W        W23196  15.578  11.935  11.981  0.0093  0.1314  0.4347
 6349W        W23197  10.610  17.196  11.882  0.1609 -0.2664 -0.0771
 6350W        W23198  17.312   8.727  16.448 -0.0696 -0.0400  0.2127
 6351W        W23199   1.913  12.781   1.355 -0.3082  0.0251 -0.3057
 6352W        W23200   4.749  10.068  11.324 -0.0339  0.1078  0.2674
 6353W        W23201   3.085  14.758   0.293 -0.1475 -0.0007  0.1830
 6354W        W23202   2.845  17.607  16.173  0.0486  0.2033 -0.0754
 6355W        W23203   8.805  16.907   1.299 -0.0852  0.0180 -0.0747
 6356W        W23204   3.201  15.938   4.731  0.0182 -0.0200 -0.1037
 6357W        W23205   6.215   2.522  15.166 -0.1359 -0.0742 -0.1214
 6358W        W23206  13.684  12.280   4.797  0.3385 -0.1537  0.0909
 6359W        W23207   4.205   7.972  11.357  0.1014  0.1256 -0.1345
 6360W        W23208   6.858   0.613  15.378  0.3101  0.0827 -0.0012
 6361W        W23209   3.552   9.702  13.299 -0.0803 -0.0693 -0.1408
 6362W        W23210   1.828   7.185  13.932 -0.1997 -0.0821  0.2193
 6363W        W23211   8.768  16.048  11.787 -0.0480  0.1511 -0.0886
 6364W        W23212   5.168  17.054   1.437 -0.3390 -0.1078 -0.0465
 6365W        W23213  15.774  11.612  13.668  0.0458  0.2512 -0.2876
 6366W        W23214   1.358  16.001   3.855 -0.2171  0.1338 -0.0215
 6367W        W23215  13.210  12.485   1.558 -0.0552  0.0372  0.1765
 6368W        W23216  11.407   2.639   1.430  0.0823  0.1765  0.0590
 6369W        W23217   9.591  14.776  14.464 -0.0834 -0.0338 -0.0030
 6370W        W23218   4.072  13.561  16.247 -0.1599 -0.2372 -0.0018
 6371W        W23219   8.937   6.042  14.808 -0.2637 -0.2920 -0.0876
 6372W        W23220  12.735   2.504  14.937 -0.0809  0.4337 -0.1602
 6373W        W23221   7.713   5.420   3.027  0.0831  0.3412 -0.0897
 6374W        W23222  13.713  16.756  12.398 -0.0004 -0.2057  0.1150
 6375W        W23223  12.901  15.764  12.229  0.1617  0.0420 -0.0816
 6376W        W23224   3.912   4.173   4.177 -0.1313 -0.2305 -0.2155
 6377W        W23225   8.926   2.869  13.406  0.0840  0.1044 -0.0518
 6378W        W23226   8.880   4.461   4.608  0.1104 -0.2493 -0.2153
 6379W        W23227   9.626   4.796  14.581  0.1350  0.1027  0.0740
 6380W        W23228   2.378   9.727   5.397  0.1456 -0.1263 -0.2214
 6381W        W23229   6.473  12.354   5.271 -0.1305 -0.0561  0.3621
 6382W        W23230   5.590  13.337   1.729 -0.2735  0.1354 -0.2662
 6383W        W23231  13.257  15.889  14.410 -0.2758 -0.3256  0.1562
 6384W        W23232   3.552   5.453  15.761  0.1591 -0.3091 -0.1131
 6385W        W23233  15.232   4.371  11.667 -0.2219 -0.1383 -0.0091
 6386W        W23234   8.474   2.222   2.696  0.0094  0.0847 -0.1274
 6387W        W23235   7.206   4.654  11.577 -0.1183 -0.1419  0.1095
 6388W        W23236   6.331  14.602  14.604  0.2092  0.1761  0.0990
 6389W        W23237  15.612   8.583  16.105 -0.0343 -0.0587 -0.0499
 6390W        W23238  17.674   8.332   4.030 -0.0443 -0.0516  0.0027
 6391W        W23239   4.471  16.531   1.170 -0.2050  0.2594 -0.1518
 6392W        W23240   1.948  10.177   2.393 -0.0813 -0.0487 -0.1715
 6393W        W23241  15.755   2.192   2.716  0.1308 -0.2670  0.0451
 6394W        W23242   7.624  10.400   2.325 -0.0696  0.0454  0.2968
 6395W        W23243   8.497   7.336   4.476  0.3107 -0.3061 -0.1366
 6396W        W23244  11.900   2.134   2.166  0.1963 -0.0355  0.0175
 6397W        W23245  12.032  17.082   4.178 -0.2787  0.2592  0.2147
 6398W        W23246   3.091   8.627  14.425 -0.1416 -0.2745 -0.0122
 6399W        W23247  13.585  16.879  14.739 -0.0856  0.1124  0.1864
 6400W        W23248   1.364   5.799   2.764  0.0254 -0.1756 -0.0761
 6401W        W23249   3.617   0.342   2.087  0.3061 -0.0851 -0.1865
 6402W        W23250   1.846   5.825  15.016 -0.2670 -0.0682  0.1066
 6403W        W23251   8.674   8.801  14.445 -0.2410  0.0970  0.1436
 6404W        W23252   4.232  12.224  16.357  0.2652  0.2659 -0.0473
 6405W        W23253   5.012  13.223   3.216 -0.3637 -0.0737 -0.4688
 6406W        W23254  14.831  11.995   3.499  0.1702  0.1339  0.0737
 6407W        W23255   9.558   6.978   3.391  0.2924  0.1051 -0.0615
 6408W        W23256  12.614  17.818   1.492 -0.1219 -0.0842  0.1377
 6409W        W23257   3.303  13.505  11.832 -0.0057 -0.2095 -0.1332
 6410W        W23258  14.990  15.345  14.037  0.3832 -0.1969  0.2946
 6411W        W23259   1.621  14.627   5.356 -0.0737 -0.1063  0.0105
 6412W        W23260   9.020  13.392  10.931 -0.2757 -0.2837  0.0587
 6413W        W23261   1.954   6.701  16.044 -0.1258  0.0236 -0.0584
 6414W        W23262  11.311   0.460  11.998  0.0554 -0.0301 -0.0719
 6415W        W23263   1.695  11.849  14.282  0.2473  0.1342 -0.0270
 6416W        W23264  10.079   2.029   5.388 -0.1083 -0.0957 -0.1263
 6417W        W23265  10.911  15.778  15.824  0.3709 -0.2290  0.0602
 6418W        W23266   8.278   0.880  13.730 -0.2378 -0.1349  0.3820
 6419W        W23267   6.904  14.907  15.945 -0.0157 -0.0436 -0.1796
 6420W        W23268  14.628  15.777   0.706 -0.2746 -0.1318  0.1440
 6421W        W23269  16.975  11.656  12.054  0.2902 -0.0611 -0.2392
 6422W        W23270  13.295   4.684   1.246  0.5272  0.1286  0.0381
 6423W        W23271  11.057   9.385   3.477  0.2068  0.1293  0.0701
 6424W        W23272  15.400  10.355   0.978  0.1991  0.2910  0.0164
 6425W        W23273  10.014   8.622   3.063 -0.1123  0.1677  0.1454
 6426W        W23274   7.459  11.916  14.520 -0.2885  0.2423  0.0689
 6427W        W23275   2.264   0.685  14.794 -0.1454  0.0178 -0.1223
 6428W        W23276   3.030  10.864   3.402 -0.1260  0.0023 -0.1625
 6429W        W23277  10.663  16.165  16.015 -0.2391  0.0135  0.0218
 6430W        W23278  15.151   5.097  13.047 -0.1089  0.1270 -0.0348
 6431W        W23279  13.861   4.862   2.094  0.0911  0.0766  0.0784
 6432W        W23280  10.909   8.186   1.034  0.0177  0.3850 -0.1461
 6433W        W23281  17.513   4.689  11.344  0.1383  0.2443 -0.0198
 6434W        W23282  10.369   4.268  13.979 -0.1328  0.2899 -0.0385
 6435W        W23283   1.090   5.903   1.039  0.0615  0.0821  0.1205
 6436W        W23284  17.594  13.925   0.001  0.0475 -0.0643 -0.2852
 6437W        W23285   3.140   5.543  15.481 -0.3042 -0.3049 -0.2973
 6438W        W23286   3.895   2.185  12.088  0.2441  0.3059  0.1222
 6439W        W23287   2.691   1.884  13.141 -0.0443  0.1585 -0.2726
 6440W        W23288   4.626   0.715  14.988  0.3077  0.0340 -0.0052
 6441W        W23289   9.717   0.654  12.182  0.2167  0.3278  0.1408
 6442W        W23290  10.251  14.785   2.346 -0.2199 -0.0800  0.1945
 6443W        W23291  15.381   8.154  16.358  0.1804  0.3058 -0.2286
 6444W        W23292   5.641  10.680  14.825 -0.0028 -0.1308  0.3230
 6445W        W23293   4.060  16.739   3.387  0.0441  0.0793 -0.2380
 6446W        W23294  10.457   5.232  14.507  0.0337 -0.1453 -0.2741
 6447W        W23295  10.578   8.679   2.203  0.0697  0.3018 -0.2243
 6448W        W23296   7.476  14.837  12.788  0.0181  0.0345 -0.1352
 6449W        W23297   3.276  16.026  11.814  0.0528  0.0740 -0.1753
 6450W        W23298  10.010   5.149  14.658  0.1304  0.0787  0.0442
 6451W        W23299  10.792  16.149  14.283 -0.2669 -0.0081  0.1011
 6452W        W23300   9.289  16.685   3.865  0.2144 -0.0670 -0.0222
 6453W        W23301   7.204  11.115  15.146  0.1273  0.1753  0.0861
 6454W        W23302   6.797   8.793  13.223  0.0467  0.0106  0.1787
 6455W        W23303   9.701  16.566   0.237 -0.2057 -0.1788  0.0802
 6456W        W23304  15.540   0.573   2.388  0.1346 -0.0353 -0.1753
 6457W        W23305   5.514   0.213  12.586  0.1288 -0.2416 -0.0604
 6458W        W23306  16.955  12.500  15.766  0.2209 -0.3521  0.0466
 6459W        W23307   1.175   4.837  14.770 -0.2660 -0.1157 -0.0605
 6460W        W23308  10.826   1.361   0.019  0.4315  0.0289  0.0421
 6461W        W23309   4.229  12.113  15.751 -0.0641 -0.1128 -0.1214
 6462W        W23310   9.208  10.557   2.706 -0.1006 -0.0594 -0.4124
 6463W        W23311  10.614   7.989  16.625  0.0030  0.2690  0.0291
 6464W        W23312   8.900   7.717   2.607 -0.2050  0.1396  0.1327
 6465W        W23313   8.362  14.373  13.594  0.1451  0.0857 -0.0726
 6466W        W23314  10.817  15.715  14.511 -0.0141  0.0630  0.0430
 6467W        W23315   2.778   9.764   0.701  0.0181 -0.0350  0.1938
 6468W        W23316   3.163  13.577  15.927 -0.0296 -0.4126 -0.0779
 6469W        W23317   8.071   8.622  16.535  0.1300  0.1764 -0.0754
 6470W        W23318  12.547   4.993  13.250  0.2793  0.0180 -0.3871
 6471W        W23319   4.771   0.424  14.546  0.1174  0.0465  0.1007
 6472W        W23320  13.749   5.044  13.611  0.2053 -0.0036 -0.0068
 6473W        W23321  17.357   0.846   4.277  0.1221 -0.4400  0.1957
 6474W        W23322  10.690   9.608  14.689 -0.2179  0.2887  0.0474
 6475W        W23323   2.931   5.874  11.770  0.1960 -0.2165 -0.2224
 6476W        W23324   4.177   7.606   4.459  0.1871  0.1646  0.1776
 6477W        W23325   3.688   7.208   0.849  0.3051  0.1015 -0.1334
 6478W        W23326   3.862   0.824   4.121  0.1067  0.1348  0.0628
 6479W        W23327   1.727   2.580  13.349  0.1769 -0.2894  0.1306
 6480W        W23328   1.531   3.734  13.957  0.0743 -0.5008 -0.5897
 6481W        W23329  16.279  10.663   0.689 -0.1170  0.1006  0.0029
 6482W        W23330  14.101  15.551  13.501  0.1542 -0.1920  0.1583
 6483W        W23331   5.921   9.657  16.536  0.0374 -0.0569 -0.2594
 6484W        W23332   7.861   3.432   4.614  0.1373 -0.1271  0.2313
 6485W        W23333   9.787   9.857   3.953 -0.3654 -0.2599  0.1719
 6486W        W23334  15.387  16.384   1.892  0.0064  0.0984 -0.0196
 6487W        W23335  11.003   3.004   3.113  0.0874 -0.2898 -0.2738
 6488W        W23336   6.825   6.953  15.523 -0.2138  0.3076 -0.0529
 6489W        W23337   0.265   2.595   2.691 -0.0083  0.2002 -0.0901
 6490W        W23338  14.136  15.441   2.267 -0.3689 -0.0713 -0.1316
 6491W        W23339  12.007  11.046   1.414 -0.1380 -0.0793  0.0320
 6492W        W23340   6.334   3.173   0.507 -0.0625  0.2811  0.1318
 6493W        W23341   5.948   6.048  14.446  0.2130  0.0144 -0.0642
 6494W        W23342   7.263   1.629   2.657 -0.0387  0.2665  0.1066
 6495W        W23343  17.003   0.101   0.966  0.0181  0.2001 -0.1118
 6496W        W23344   3.380   0.737   4.237  0.1295  0.0587  0.1430
 6497W        W23345  15.058   4.236   0.817 -0.0371  0.2905  0.2195
 6498W        W23346  14.980   5.652  13.290 -0.2133 -0.0081  0.0266
 6499W        W23347   5.967   2.077  14.334 -0.0143 -0.1004  0.1575
 6500W        W23348   8.601  16.188   3.447 -0.0227  0.0818  0.0960
 6501W        W23349  14.632   3.672  13.759  0.1940 -0.2126  0.1875
 6502W        W23350  11.213  12.004   0.562  0.0603  0.0634  0.2615
 6503W        W23351   0.443  15.167  14.818  0.0600 -0.0853  0.1224
 6504W        W23352   7.771  17.239   1.986  0.0493 -0.0016 -0.0399
 6505W        W23353   7.749   4.335  15.923  0.0417 -0.1017  0.1803
 6506W        W23354  11.694   1.686   2.419 -0.0780  0.1153 -0.1031
 6507W        W23355  17.535  10.959  13.725  0.4337  0.2186  0.3023
 6508W        W23356   6.122  15.358  16.362 -0.1961  0.0992  0.3642
 6509W        W23357  16.864   1.349   1.390  0.2082  0.0329  0.1405
 6510W        W23358   0.447   7.020  13.664  0.2671 -0.1026 -0.1093
 6511W        W23359   5.550   4.329  11.901  0.0533 -0.0120 -0.0861
 6512W        W23360  17.414   3.274   2.381 -0.0074 -0.2606 -0.1126
 6513W        W23361  17.194   8.165  11.604  0.1238  0.2273 -0.2365
 6514W        W23362   0.280   8.538   4.785 -0.1450  0.2449  0.0697
 6515W        W23363  10.161   6.703   4.601  0.4334 -0.1751 -0.0087
 6516W        W23364  17.248   1.672   0.530 -0.3496  0.2294 -0.0928
 6517W        W23365  15.348   0.284   1.614 -0.2456 -0.1642 -0.0588
 6518W        W23366  16.962   2.479   4.657  0.1201 -0.1571 -0.2602
 6519W        W23367   1.945  11.225   1.943 -0.0166 -0.2437 -0.1307
 6520W        W23368  11.430   5.373   2.402 -0.0054 -0.1855 -0.0693
 6521W        W23369  12.220   7.490   6.353  0.3310  0.2599 -0.2182
 6522W        W23370  14.507   2.348   5.214 -0.1122 -0.0053 -0.0843
 6523W        W23371   8.202   1.317  14.611 -0.1425 -0.2060  0.0693
 6524W        W23372   1.387   1.621   5.411  0.2975 -0.1590  0.1381
 6525W        W23373  17.089   3.949   2.893 -0.0619 -0.3826  0.0407
 6526W        W23374  15.476   1.462   5.102  0.0745 -0.1261 -0.1320
 6527W        W23375   5.420  12.412  11.805  0.2387 -0.0375 -0.1312
 6528W        W23376   9.269   5.792  14.486  0.0382 -0.1813 -0.1572
 6529W        W23377   0.798   7.205   3.225  0.0000 -0.1686  0.1050
 6530W        W23378   1.119   5.123   3.402  0.0723 -0.1203 -0.1280
 6531W        W23379   8.135   5.957  13.175 -0.1422  0.2635  0.0567
 6532W        W23380   0.305   0.695  16.376  0.0498 -0.2571  0.1347
 6533W        W23381  13.127   3.082  15.548  0.0483 -0.0858  0.0245
 6534W        W23382  10.127   8.780   1.741  0.2964  0.2614  0.1703
 6535W        W23383  15.529   6.309   1.619 -0.1482 -0.0980 -0.0494
 6536W        W23384   3.969  13.250   0.990  0.1392  0.0180 -0.2126
 6537W        W23385  16.326  14.229  15.229 -0.0349  0.0108 -0.0031
 6538W        W23386   5.880  13.155   3.747 -0.3288  0.1439  0.0173
 6539W        W23387  16.025  10.823   1.672 -0.2301  0.2884  0.0217
 6540W        W23388   0.616   1.249  13.576  0.0072 -0.1874  0.0311
 6541W        W23389  15.934  17.803   0.079  0.0476 -0.1238 -0.1013
 6542W        W23390   4.797   7.457  11.858  0.1075  0.1630 -0.0235
 6543W        W23391  13.002   6.429   4.726  0.3316  0.1116 -0.2526
 6544W        W23392  14.947   9.916  11.551  0.1536 -0.0132 -0.0172
 6545W        W23393  16.113   2.356   0.369 -0.0502 -0.1632  0.0273
 6546W        W23394   6.386  15.457   1.764 -0.1421 -0.1530 -0.0161
 6547W        W23395  13.398   4.002   1.318  0.1336  0.2225 -0.0256
 6548W        W23396   5.017  14.103   6.088  0.1857  0.1217  0.1896
 6549W        W23397  16.767   8.861  16.395 -0.1603 -0.0615  0.0535
 6550W        W23398  14.583  14.573  14.061  0.0781  0.1930 -0.0864
 6551W        W23399  11.864   5.118  13.464 -0.0207 -0.1456 -0.0018
 6552W        W23400  16.264   1.521  15.818  0.1053 -0.4239 -0.0150
 6553W        W23401   4.673  10.810   3.335  0.0211 -0.1350 -0.1031
 6554W        W23402   8.274   6.781   5.115 -0.1440  0.1188 -0.0701
 6555W        W23403   2.213   5.980   2.136  0.0860 -0.1425 -0.1109
 6556W        W23404   1.960  17.841   2.982  0.3155 -0.1047 -0.1213
 6557W        W23405   8.555  13.131   0.928  0.5204  0.1583 -0.2136
 6558W        W23406   3.079  10.918  16.291 -0.1841 -0.1735 -0.0157
 6559W        W23407  15.662  14.578   1.916  0.0833  0.0706  0.1112
 6560W        W23408   2.554   2.369  16.435 -0.2328 -0.0560  0.6014
 6561W        W23409   1.005  13.227   2.380 -0.2194 -0.2867  0.0220
 6562W        W23410  17.081  17.174   3.796  0.2470 -0.2707 -0.0660
 6563W        W23411   4.039   8.938   2.301 -0.0115 -0.2128 -0.5825
 6564W        W23412  13.073  17.769  15.257  0.0100  0.2817  0.4429
 6565W        W23413   4.313   5.771  12.746  0.0234  0.1141  0.0305
 6566W        W23414  17.082   5.131  14.008  0.1939  0.0438 -0.1968
 6567W        W23415  15.282  17.271   3.514 -0.0509  0.1687  0.1192
 6568W        W23416   5.771   1.808   3.741  0.2459  0.1336 -0.2725
 6569W        W23417   2.884  15.226   4.914 -0.1662 -0.1579 -0.2061
 6570W        W23418  10.422  15.973   4.281  0.0786  0.2858 -0.1624
 6571W        W23419   0.963   4.638  12.535  0.1024  0.0551  0.2089
 6572W        W23420   9.484   1.892   2.546 -0.1122  0.3709 -0.0780
 6573W        W23421   0.068   7.883   4.021 -0.0267  0.0871  0.1372
 6574W        W23422   8.676  11.226   4.135  0.2803 -0.2196  0.2763
 6575W        W23423  10.024  13.132   0.346  0.1344 -0.4903  0.1311
 6576W        W23424  15.012   6.712  12.556 -0.2646  0.2756  0.1297
 6577W        W23425   3.040  16.824   3.180 -0.2044 -0.0920  0.6090
 6578W        W23426  17.322  11.113  15.819 -0.1828 -0.4175 -0.2001
 6579W        W23427   0.546  10.218  15.121  0.2182 -0.0446 -0.4013
 6580W        W23428  14.387   4.303  14.435  0.4517 -0.0191  0.0100
 6581W        W23429   1.903   6.725  16.559 -0.0751 -0.0365 -0.1839
 6582W        W23430   4.434  17.450   3.823 -0.1752  0.5238  0.0410
 6583W        W23431   3.319  16.433  16.422  0.2346  0.0799  0.0764
 6584W        W23432  14.885   2.159  16.111 -0.1750  0.0933 -0.4428
 6585W        W23433   8.740   9.849  11.970 -0.0468 -0.0196 -0.2527
 6586W        W23434   0.007  14.742  13.412  0.1245  0.0708 -0.0931
 6587W        W23435   3.596   8.053   3.275  0.0311  0.1491 -0.3089
 6588W        W23436   7.433   6.331  14.341  0.0512 -0.0067 -0.4760
 6589W        W23437   2.975  14.322  14.288  0.0010  0.0395 -0.1123
 6590W        W23438  10.974  15.710   4.342 -0.0076  0.0405 -0.0340
 6591W        W23439   2.589   0.385  16.363  0.1458 -0.1814 -0.1798
 6592W        W23440   1.935   4.318  12.293  0.1302 -0.2746 -0.0056
 6593W        W23441  15.794   6.309   4.286 -0.0698 -0.1670  0.4327
 6594W        W23442  13.252   2.627  11.720 -0.0160 -0.0194 -0.1201
 6595W        W23443   7.002   2.343   3.849  0.0724 -0.2578  0.0325
 6596W        W23444   8.116  16.031   0.189  0.0692 -0.2840  0.1256
 6597W        W23445  11.296   5.464   1.104 -0.0820  0.1727 -0.1326
 6598W        W23446   2.188   2.551   0.373  0.0319  0.0850  0.2021
 6599W        W23447   6.098   8.323   0.047  0.1193  0.2440 -0.0558
 6600W        W23448   4.360   3.232  13.553 -0.1021 -0.2772 -0.3356
 6601W        W23449  15.890   3.108  15.503 -0.1036 -0.3081 -0.1098
 6602W        W23450   4.845  16.476  11.575  0.1159  0.0704  0.1320
 6603W        W23451   8.969  10.692  11.558  0.1083 -0.1106 -0.1460
 6604W        W23452   4.393   8.096   0.497  0.0954 -0.0177  0.4416
 6605W        W23453   9.838  16.351   1.880  0.1572 -0.1016  0.1146
 6606W        W23454  16.269   3.722   1.930 -0.0832  0.1751  0.0440
 6607W        W23455   0.596  11.722  11.311 -0.1036  0.2603  0.1781
 6608W        W23456   7.202  15.802   3.785  0.2198  0.3264 -0.2044
 6609W        W23457  11.952  11.520   1.546  0.3398 -0.0429  0.2934
 6610W        W23458  14.672   4.548   3.276  0.0245  0.1036 -0.1136
 6611W        W23459  15.231  12.558  13.820  0.1913  0.2946  0.0738
 6612W        W23460   5.141   2.003  16.493 -0.0148  0.2432 -0.0104
 6613W        W23461   7.191  16.412   0.892  0.0574 -0.2069 -0.0069
 6614W        W23462   7.614  12.717  15.734  0.0824  0.0725  0.0731
 6615W        W23463   2.850   6.010  15.948 -0.1871  0.1814  0.2034
 6616W        W23464  15.684  15.955  16.007  0.2381 -0.0127 -0.1883
 6617W        W23465  11.478   4.646   3.800  0.0221 -0.2778 -0.1723
 6618W        W23466   3.101   8.998  13.676 -0.1214 -0.2454 -0.0419
 6619W        W23467  16.587   3.482   0.281  0.1780  0.0647  0.1918
 6620W        W23468  17.024   7.624  14.195  0.1079  0.0135 -0.1517
 6621W        W23469   5.496   1.379  14.947  0.0414  0.0705  0.4159
 6622W        W23470   9.248   7.395   3.720 -0.0411  0.0822 -0.0503
 6623W        W23471   8.779   9.373  15.200 -0.2177  0.0266 -0.0071
 6624W        W23472  14.619  15.047  14.242 -0.2846  0.0270 -0.2460
 6625W        W23473   7.518  14.892  15.291  0.3074  0.0891  0.4127
 6626W        W23474   2.790   8.551  14.064 -0.3652 -0.2077 -0.2420
 6627W        W23475   6.417   5.306   0.859 -0.1382 -0.0160 -0.1112
 6628W        W23476   9.923   7.788  13.960  0.2226  0.1186  0.3169
 6629W        W23477  11.170  13.595   1.340  0.1672 -0.1168 -0.2553
 6630W        W23478  15.337   9.251  13.231  0.0383 -0.0801 -0.0331
 6631W        W23479   3.140   4.976  11.126  0.1636  0.6105 -0.1353
 6632W        W23480   1.411  14.711   3.399 -0.0862  0.2646 -0.1648
 6633W        W23481  14.106  16.913  14.141  0.2741 -0.1260  0.0527
 6634W        W23482   5.334   1.382  12.545 -0.2428  0.1168 -0.0029
 6635W        W23483   2.267   1.992   3.812 -0.0395  0.0366 -0.1826
 6636W        W23484  16.296  17.260   5.757 -0.0524  0.1804 -0.0477
 6637W        W23485  16.871  12.955  12.615  0.0530 -0.1225 -0.0287
 6638W        W23486  11.028  16.163  13.815 -0.1346  0.0530 -0.1000
 6639W        W23487   1.713   2.954  12.054  0.0696 -0.1274 -0.0027
 6640W        W23488   5.816  14.939   0.910  0.1249  0.1679  0.1282
 6641W        W23489  11.623   5.855   0.288 -0.3412 -0.0583 -0.0861
 6642W        W23490   3.953   6.876   2.855  0.3056  0.0020  0.0471
 6643W        W23491   7.105   2.413  12.303 -0.0991 -0.2910 -0.1703
 6644W        W23492   9.999   8.269  14.040  0.3717 -0.1142  0.1149
 6645W        W23493   3.865   7.344  14.598  0.1349 -0.0878  0.1553
 6646W        W23494   2.348  14.390  13.379 -0.1587  0.0755  0.1406
 6647W        W23495   1.637   4.877  14.532  0.4128 -0.0149  0.3306
 6648W        W23496  11.695   8.202   3.270  0.0543 -0.1741  0.3549
 6649W        W23497   0.223   3.907   0.005 -0.2310 -0.0151  0.1569
 6650W        W23498  16.137   5.626  16.403 -0.3090  0.1479  0.2006
 6651W        W23499  16.053   0.584  13.799 -0.0150 -0.2918 -0.2212
 6652W        W23500  11.062  16.962   4.356  0.2713  0.1374  0.2402
 6653W        W23501   7.912  10.608   1.465  0.2854  0.1488  0.2150
 6654W        W23502   7.749   8.287   4.033  0.2452  0.2108 -0.1920
 6655W        W23503  11.414   6.090   3.214  0.3367 -0.1572  0.2916
 6656W        W23504  11.554  15.568  15.832 -0.1330  0.0178  0.0323
 6657W        W23505  14.348   3.874  11.437 -0.0492 -0.1585  0.0484
 6658W        W23506   7.176   3.174  10.741 -0.0979  0.2810 -0.1960
 6659W        W23507  11.146  10.345  15.830 -0.0355 -0.1107  0.0149
 6660W        W23508   0.214  13.210   1.530  0.0532  0.2136  0.0261
 6661W        W23509   7.508   3.258  14.280  0.0070 -0.0588  0.3100
 6662W        W23510   8.462   8.601   2.404 -0.0288 -0.1283 -0.1613
 6663W        W23511  10.186   1.754   4.349  0.0744  0.1396 -0.3222
 6664W        W23512  15.179  15.802   4.919  0.0822  0.1922 -0.2927
 6665W        W23513  17.495   9.849   2.354 -0.1638  0.1054  0.1771
 6666W        W23514   8.235  13.448  16.033  0.1325 -0.1889  0.0927
 6667W        W23515   2.044   5.291  11.297  0.2716  0.0636 -0.2570
 6668W        W23516  12.348  14.179  16.235 -0.1371  0.0586 -0.2579
 6669W        W23517   8.299  13.136   2.429 -0.0328  0.0186 -0.0166
 6670W        W23518   8.338   8.681   1.566  0.5255 -0.0924 -0.0607
 6671W        W23519  12.053  16.609   4.423 -0.1826 -0.3430 -0.4977
 6672W        W23520   6.683   2.667  16.408 -0.1301  0.0029  0.0500
 6673W        W23521  15.340  10.102   2.033  0.3480  0.2341  0.1541
 6674W        W23522   6.043  10.715  15.494  0.1502 -0.1317 -0.0409
 6675W        W23523   3.195   3.554   0.017 -0.2152 -0.3054  0.0513
 6676W        W23524  17.309   7.498   4.400 -0.1132  0.0500  0.1182
 6677W        W23525   5.622   0.295   1.197  0.0031  0.0936  0.0966
 6678W        W23526  17.042   8.005  11.156 -0.0194 -0.0109 -0.1770
 6679W        W23527  14.979  10.588  15.748  0.4109 -0.0803  0.2866
 6680W        W23528   8.846  13.876  12.122  0.1857 -0.0369  0.1685
 6681W        W23529   2.002  10.619   3.248  0.1577 -0.2788 -0.1485
 6682W        W23530  11.898   2.385  15.106 -0.0292  0.0145 -0.4204
 6683W        W23531  13.971   2.297  14.868  0.2882  0.2338 -0.3869
 6684W        W23532   7.235   6.915   3.400 -0.2218 -0.1289 -0.0008
 6685W        W23533  12.654  14.567   1.659 -0.1148  0.6913  0.0823
 6686W        W23534  14.876   0.894  15.517 -0.0749 -0.2294  0.2806
 6687W        W23535  14.114  17.604   2.017 -0.2541 -0.0590 -0.1504
 6688W        W23536   7.989   6.115  14.736 -0.1185 -0.1495 -0.1261
 6689W        W23537   6.160  16.985   3.433 -0.1716 -0.3545 -0.1642
 6690W        W23538  17.411   7.816  15.627  0.0515  0.1294  0.0175
 6691W        W23539   2.792   0.220   0.993  0.1825 -0.1597  0.1515
 6692W        W23540   0.140   0.974  16.028 -0.2313 -0.0934 -0.1120
 6693W        W23541   2.541   9.440  14.980  0.0187  0.3143 -0.2086
 6694W        W23542   9.178  13.921  13.275 -0.2178  0.1951 -0.0875
 6695W        W23543  13.632   4.101  16.257  0.0474  0.2462 -0.2466
 6696W        W23544   7.822  12.351   1.167  0.1718  0.0834 -0.2706
 6697W        W23545  13.154   2.292   5.408 -0.1822 -0.2751  0.5198
 6698W        W23546   6.634   8.559   4.769 -0.1433  0.0001  0.1111
 6699W        W23547  16.757   0.586  12.690  0.3312 -0.0434  0.1539
 6700W        W23548   0.220   0.838   0.268 -0.2761  0.2981  0.0635
 6701W        W23549  13.340  13.093  15.802  0.0345 -0.0891  0.2231
 6702W        W23550   3.779   7.289  15.893  0.2705  0.0509  0.1941
 6703W        W23551  17.572  12.185  13.370  0.2026 -0.2217 -0.1028
 6704W        W23552  11.186  12.314   2.013 -0.0064 -0.0026 -0.1403
 6705W        W23553  10.467   7.581  12.457  0.3721  0.1762 -0.1813
 6706W        W23554  16.623   6.645   0.333 -0.3172  0.0115 -0.0643
 6707W        W23555   3.804   0.329   4.226 -0.3318  0.0277  0.0806
 6708W        W23556  10.237   6.032   3.720 -0.0430 -0.0978 -0.2026
 6709W        W23557   7.538  15.456  12.105 -0.3920 -0.1404  0.0967
 6710W        W23558  16.927  13.899   1.751  0.0639  0.0294 -0.2229
 6711W        W23559   0.217   3.866  12.557 -0.3218 -0.0912 -0.1915
 6712W        W23560  15.288   2.357  11.889 -0.1696  0.2227 -0.2018
 6713W        W23561   6.976  15.032   5.031 -0.1401 -0.1975 -0.0364
 6714W        W23562  16.185   0.830   1.919 -0.3131 -0.1819 -0.0792
 6715W        W23563  11.029  11.234  11.568 -0.0993  0.2694  0.0317
 6716W        W23564   7.734  12.222  14.295  0.1093 -0.3494 -0.2917
 6717W        W23565  11.027  14.032  15.659 -0.0447  0.1948  0.0315
 6718W        W23566   6.895  17.599   1.383 -0.0750 -0.0034  0.0683
 6719W        W23567   4.902  16.577  16.308 -0.1164  0.0693 -0.0685
 6720W        W23568  13.045  17.832   0.003  0.0365 -0.0247 -0.0306
 6721W        W23569   5.834   9.281  15.325  0.3393  0.1855  0.0727
 6722W        W23570  17.525  16.361   5.532  0.2057 -0.1587 -0.0099
 6723W        W23571   7.788   6.892   2.459  0.2015 -0.1201  0.0362
 6724W        W23572  12.729  11.421  12.936 -0.0639 -0.0054 -0.1905
 6725W        W23573   9.032   6.005  13.418 -0.3338  0.2395  0.2085
 6726W        W23574  15.134  13.751  14.333  0.1536 -0.0219 -0.0935
 6727W        W23575   9.643  16.934   3.149 -0.2349 -0.1723  0.0851
 6728W        W23576   6.184  10.573  11.035  0.0225 -0.0831 -0.2590
 6729W        W23577  11.762   3.266  16.144  0.3397 -0.3666  0.1702
 6730W        W23578  16.624  16.626   1.597 -0.3852  0.1142 -0.2176
 6731W        W23579   5.920   5.496   0.994 -0.1068 -0.1601 -0.2805
 6732W        W23580   5.214   9.691  14.867  0.1272  0.2850 -0.0699
 6733W        W23581  17.261   6.397   0.872  0.2337  0.3002 -0.1710
 6734W        W23582   8.196   2.745  16.081  0.2273  0.0258  0.0661
 6735W        W23583   7.156  11.998  13.134 -0.3149 -0.0414 -0.0232
 6736W        W23584   9.149  10.736   1.511 -0.1126  0.3069  0.0702
 6737W        W23585   9.948   2.294   0.662  0.2214  0.1592 -0.0322
 6738W        W23586  15.028   9.794   2.404  0.1552 -0.0440  0.1685
 6739W        W23587  17.150   3.279  14.467 -0.0677 -0.1079 -0.2030
 6740W        W23588  17.181  13.387  12.941  0.1613  0.0959  0.1059
 6741W        W23589  14.247   1.457   5.297  0.0626  0.2796 -0.0550
 6742W        W23590   6.076   7.229  16.484  0.0615  0.1887  0.1365
 6743W        W23591   1.138  10.195   2.155 -0.1324 -0.1847  0.1142
 6744W        W23592   0.256   2.683   4.926  0.3017 -0.0955 -0.2683
 6745W        W23593   8.219   8.467   4.873 -0.0446 -0.2853  0.3380
 6746W        W23594  12.550   2.068  15.159 -0.2366 -0.0751  0.1000
 6747W        W23595  17.230  15.414  11.449 -0.1383  0.0282 -0.3874
 6748W        W23596   0.839   3.695   4.528 -0.0606 -0.0991  0.3091
 6749W        W23597   5.017   1.764  11.749 -0.0119  0.2120 -0.2064
 6750W        W23598  12.110   4.620   3.632  0.0795  0.0406 -0.2015
 6751W        W23599  10.611   0.835  11.470  0.0704 -0.1072  0.1456
 6752W        W23600  10.339  17.473   2.650  0.0533 -0.0414 -0.0924
 6753W        W23601  15.949  16.814  12.219 -0.2448  0.1685  0.2168
 6754W        W23602   1.551   1.281   5.037  0.2166  0.0110  0.3461
 6755W        W23603  10.702  12.854  13.070 -0.1751  0.1739  0.1435
 6756W        W23604   5.447   9.372  12.442  0.1952 -0.2677 -0.1955
 6757W        W23605  11.850   4.589  16.459  0.0584 -0.1392  0.3977
 6758W        W23606  17.526   1.345  13.424  0.2257  0.1145 -0.2007
 6759W        W23607  10.996   6.929  11.580 -0.1242  0.1925 -0.1398
 6760W        W23608  10.760  11.764  13.300  0.2265 -0.3308  0.1501
 6761W        W23609  15.141  15.360   3.499  0.0201  0.0431 -0.0874
 6762W        W23610   6.836   0.834  14.077 -0.3832  0.3904 -0.1078
 6763W        W23611  17.369  13.141   1.113  0.3932  0.2478 -0.0529
 6764W        W23612   6.683  16.600  14.606 -0.0343  0.0518 -0.3265
 6765W        W23613  17.508  16.654   5.963 -0.0742 -0.0404 -0.0928
 6766W        W23614   0.477   0.613   2.177  0.2179 -0.2160  0.0534
 6767W        W23615   6.990  15.384   3.936  0.1357  0.0356 -0.0793
 6768W        W23616   2.942  15.460   3.338 -0.1325 -0.4098  0.0651
 6769W        W23617   1.817   1.143   4.280 -0.2708 -0.1946  0.2577
 6770W        W23618  17.604  10.391  11.186  0.2515 -0.1737  0.2367
 6771W        W23619   5.168  14.086   1.131 -0.3329 -0.1463  0.1544
 6772W        W23620   3.381   8.500  12.655  0.3166 -0.2304  0.1071
 6773W        W23621  14.243   6.008   0.785  0.3028 -0.1453 -0.0724
 6774W        W23622  17.355   9.646  15.324 -0.0619  0.2829  0.4445
 6775W        W23623  15.413  16.857   4.525 -0.3111 -0.0451  0.0777
 6776W        W23624  12.870  10.597   0.679 -0.2336  0.3025  0.2333
 6777W        W23625  11.311   7.179   0.959  0.1295 -0.1667  0.2289
 6778W        W23626  13.892   1.612   4.998  0.1907  0.2371 -0.1046
 6779W        W23627   8.829  11.848  15.528 -0.0444 -0.0476  0.0298
 6780W        W23628  10.676   2.613   3.151  0.1874  0.0762 -0.1340
 6781W        W23629  15.959   3.310  15.969  0.4429 -0.2542  0.0704
 6782W        W23630   8.582  12.696   3.872 -0.0111 -0.1274 -0.0354
 6783W        W23631  15.527  11.094   1.682  0.0477  0.0376 -0.5014
 6784W        W23632   2.339   2.047  11.385 -0.0538  0.1698  0.2324
 6785W        W23633  14.760  13.725  13.132 -0.4175 -0.2575  0.0003
 6786W        W23634   5.118  17.729  13.795  0.4234 -0.1030  0.2287
 6787W        W23635   8.853   0.751   2.764 -0.2231  0.0492 -0.0067
 6788W        W23636  12.523   6.238   4.712 -0.0367 -0.0280 -0.3857
 6789W        W23637   7.161  13.638  11.015  0.2852 -0.0454  0.2856
 6790W        W23638  15.034   0.789   4.601  0.2584  0.0235  0.0682
 6791W        W23639   2.534  11.419   1.229  0.0725 -0.0529 -0.0714
 6792W        W23640   7.486   2.471  11.961  0.0018 -0.2667  0.0141
 6793W        W23641  10.480   1.297   3.472  0.1330  0.2463 -0.0980
 6794W        W23642  14.777   3.137  11.989  0.0440 -0.0223 -0.1737
 6795W        W23643   9.375  16.016   2.751  0.0165  0.3295  0.0684
 6796W        W23644  14.389   4.906   1.749  0.1383 -0.0733  0.2783
 6797W        W23645   8.084   3.726  13.382 -0.0453 -0.2315  0.0786
 6798W        W23646   2.254   6.908  11.883  0.0672  0.2137  0.0408
 6799W        W23647   2.889  13.956   2.875 -0.1559 -0.1812  0.0921
 6800W        W23648  17.107   3.584  15.387 -0.0189 -0.0524 -0.0165
 6801W        W23649  15.114  13.152  15.055 -0.1041  0.1549 -0.0578
 6802W        W23650   2.652  16.493   3.060  0.1124 -0.0728  0.5437
 6803W        W23651   7.909   2.208  16.456  0.2210  0.0185  0.0818
 6804W        W23652   1.259   5.906   2.289 -0.2607 -0.2490 -0.1486
 6805W        W23653   0.491   9.530   0.256  0.0425 -0.1962 -0.3858
 6806W        W23654   5.797   5.895  12.720 -0.4691 -0.0267 -0.2517
 6807W        W23655   6.638  14.922   3.872 -0.3616  0.1083  0.3557
 6808W        W23656   3.117  16.949  15.528 -0.1688 -0.2646 -0.1527
 6809W        W23657   6.855   0.318  13.881  0.0708  0.1889 -0.3048
 6810W        W23658   3.417   6.746  11.658  0.2614  0.0536 -0.1516
 6811W        W23659  14.558   8.793   3.737 -0.1126  0.1671 -0.1656
 6812W        W23660   6.210   3.007  15.271 -0.2208  0.0087 -0.1590
 6813W        W23661  15.353  17.692   5.583  0.3380 -0.1887  0.1293
 6814W        W23662  16.569   3.685   4.978 -0.1287 -0.2139 -0.0390
 6815W        W23663   6.253   7.249   5.195  0.1133 -0.3220 -0.3095
 6816W        W23664  12.864  13.998   0.225 -0.0046  0.0265 -0.0215
 6817W        W23665  16.022  10.424  12.159  0.2244 -0.1765 -0.0010
 6818W        W23666  13.376   0.197   3.203 -0.0861 -0.1901  0.0269
 6819W        W23667  14.162  11.579   4.614 -0.3934 -0.0921  0.0243
 6820W        W23668   7.953   0.387  12.312  0.2683 -0.1699  0.1709
 6821W        W23669  16.338   7.311   3.880  0.0111  0.1642  0.0006
 6822W        W23670   5.721   8.305   4.333  0.2621 -0.0279  0.1976
 6823W        W23671  12.048  15.628  16.270 -0.0449 -0.0381  0.0046
 6824W        W23672  13.891   9.557   2.294  0.1289 -0.1300  0.4680
 6825W        W23673  12.719   0.020   1.020 -0.1392  0.2088 -0.0751
 6826W        W23674   0.595  17.663  11.540 -0.1330 -0.0211 -0.1000
 6827W        W23675  14.583  12.054   2.577 -0.2037 -0.3230  0.1332
 6828W        W23676   3.727  14.626   5.984  0.0482  0.1096 -0.1011
 6829W        W23677  16.830  10.444  15.095 -0.0797 -0.0153  0.0223
 6830W        W23678   9.989   2.782  11.701 -0.1124 -0.1054  0.0169
 6831W        W23679   0.414  15.737   3.459 -0.0301 -0.1859  0.0019
 6832W        W23680  16.651  13.643  14.136  0.0309 -0.0604  0.2506
 6833W        W23681  16.704  11.443  14.699  0.0959 -0.0935 -0.1711
 6834W        W23682   1.359   6.945   3.543  0.2723 -0.0853 -0.0629
 6835W        W23683   7.858  13.517  13.128  0.0433 -0.1473  0.0849
 6836W        W23684   4.517   8.205   3.755  0.2366 -0.0766  0.1721
 6837W        W23685   5.848   1.706  15.099  0.1364  0.1236  0.0166
 6838W        W23686  15.525  12.066   2.088  0.0656 -0.0496  0.0194
 6839W        W23687  15.125   3.885   0.466 -0.2022  0.1216  0.0597
 6840W        W23688   1.785  15.801   0.549 -0.1430 -0.0238  0.1380
 6841W        W23689  11.250   8.262  16.081 -0.0627  0.1519 -0.1798
 6842W        W23690   1.801   8.237  12.873  0.0873  0.0872 -0.1615
 6843W        W23691  13.658   6.188  12.127  0.1264 -0.1486 -0.1103
 6844W        W23692  10.626  14.709   2.029  0.1699 -0.2807 -0.0158
 6845W        W23693  16.212  15.191  12.804 -0.1180  0.1087  0.0838
 6846W        W23694  16.161   2.102   1.956  0.1030 -0.3945  0.2229
 6847W        W23695   4.757  17.849   0.150 -0.0199 -0.1771 -0.0053
 6848W        W23696   1.479  11.306   2.131 -0.0767  0.1833 -0.0607
 6849W        W23697  14.757   8.433   1.633 -0.1988  0.0301  0.1938
 6850W        W23698  12.094  17.665   1.600  0.1083 -0.2677 -0.1750
 6851W        W23699   7.725   6.416  13.859 -0.2056 -0.2700 -0.1134
 6852W        W23700   2.463   2.506  11.187  0.1188  0.0752 -0.3917
 6853W        W23701  11.314   5.979   2.358 -0.0359 -0.0461 -0.1749
 6854W        W23702   0.850   4.130   2.297 -0.1175 -0.0062 -0.1481
 6855W        W23703   7.809  12.269   2.127 -0.0636  0.2649  0.0256
 6856W        W23704   0.417   6.022   4.969 -0.0267  0.1512  0.2534
 6857W        W23705  10.202   5.869  13.487  0.1692  0.1402  0.2485
 6858W        W23706  12.427   7.053  14.063 -0.3011 -0.1592  0.2378
 6859W        W23707   7.866   2.690   0.475  0.2792  0.2699  0.1825
 6860W        W23708   1.219   8.169   1.339  0.0146 -0.1534  0.0621
 6861W        W23709   7.760  13.166   4.868 -0.1688 -0.0963 -0.1453
 6862W        W23710   8.035  13.201  12.800  0.0096 -0.1251  0.2073
 6863W        W23711   7.739   5.748   4.097 -0.0685  0.1478 -0.1548
 6864W        W23712   8.570   5.627   0.438  0.3548 -0.1298 -0.0736
 6865W        W23713   1.249   4.145  14.890  0.1587  0.0872  0.1277
 6866W        W23714  11.506  14.659  14.345 -0.0263  0.2754 -0.1307
 6867W        W23715  15.969   8.799   4.016  0.0109 -0.1118 -0.0514
 6868W        W23716  11.996   6.941  13.866  0.1171 -0.0344 -0.0418
 6869W        W23717   6.759   3.987  10.582 -0.3224 -0.0900 -0.2623
 6870W        W23718   4.593   3.573   4.040 -0.0806 -0.1294 -0.1769
 6871W        W23719   7.173  10.209   4.680  0.1613 -0.1547 -0.1200
 6872W        W23720  11.455   5.661  13.373 -0.0896 -0.2387 -0.4169
 6873W        W23721  17.188   7.331   2.628 -0.0468 -0.0012 -0.5063
 6874W        W23722   5.026  14.166   4.136  0.0745  0.2929  0.1202
 6875W        W23723   9.448  14.092  12.809  0.1202 -0.2167 -0.0883
 6876W        W23724   3.446  13.378   0.943 -0.1052 -0.0089 -0.0733
 6877W        W23725   4.205   0.870   3.783 -0.1267  0.2281  0.1000
 6878W        W23726  15.154  10.089  13.197  0.1973 -0.2460  0.1872
 6879W        W23727   9.010  12.738   3.608  0.0422  0.1253 -0.0961
 6880W        W23728   3.300   8.227   4.447 -0.0596 -0.0275  0.0569
 6881W        W23729   3.908  12.519  13.884  0.1632 -0.1637  0.1540
 6882W        W23730  11.514   7.692   3.380  0.0729 -0.1263  0.0959
 6883W        W23731   5.090  11.716  12.519 -0.4430  0.2369  0.1224
 6884W        W23732  15.449  10.435   2.779  0.0419  0.1387  0.1111
 6885W        W23733  15.208   3.677   5.109  0.1331 -0.1311  0.0609
 6886W        W23734  16.455  13.015  13.059 -0.0316 -0.3547  0.1179
 6887W        W23735   5.078   1.792   0.854 -0.3313 -0.0647  0.0891
 6888W        W23736  15.847  17.708   0.566  0.3463 -0.3001  0.0171
 6889W        W23737  14.612  11.146   2.001  0.0773 -0.1729  0.2069
 6890W        W23738   9.639   7.487   1.156  0.1574 -0.0504  0.1208
 6891W        W23739   1.068   6.308  16.312 -0.1124  0.2428 -0.1166
 6892W        W23740  13.965   4.011   2.252  0.1402 -0.1427  0.1410
 6893W        W23741   2.550  12.786  15.839 -0.0658 -0.1807 -0.3523
 6894W        W23742   9.499  14.897   0.630  0.2651 -0.0014  0.3019
 6895W        W23743   2.381  17.070  14.586  0.1419 -0.0996 -0.1049
 6896W        W23744  13.538   5.842  13.594  0.0121 -0.0268  0.3542
 6897W        W23745   5.536   4.024  11.454 -0.1861  0.0366  0.4116
 6898W        W23746   3.492   5.186  11.848 -0.0077  0.4106 -0.0165
 6899W        W23747  15.919  16.429  14.211  0.0061  0.3594 -0.1391
 6900W        W23748   2.773  13.070   0.996  0.1341  0.2374 -0.0705
 6901W        W23749   4.688   6.549   0.539  0.0726 -0.0902  0.0848
 6902W        W23750   2.772  11.242  15.724 -0.0730 -0.0427  0.1285
 6903W        W23751   4.392  13.731   4.478  0.0316  0.1968 -0.5443
 6904W        W23752   3.752   2.188   2.704 -0.1682  0.1517  0.2392
 6905W        W23753   6.555   0.649  13.700  0.0709  0.0863 -0.2250
 6906W        W23754  13.039  10.770  13.757 -0.1826 -0.1912  0.1320
 6907W        W23755  10.946   4.594  16.078 -0.1595  0.0028 -0.1177
 6908W        W23756  13.927  14.960  13.120  0.2240 -0.2067  0.2173
 6909W        W23757   0.820  14.000  12.882 -0.0602  0.2327 -0.3216
 6910W        W23758  11.156   9.824  15.751 -0.0267  0.0441 -0.4691
 6911W        W23759   5.561   3.910   0.478  0.0985 -0.2925  0.1599
 6912W        W23760   9.789  13.307   2.545  0.1801  0.1207  0.2580
 6913W        W23761  15.401   4.329   5.711  0.1882  0.1507  0.0355
 6914W        W23762   7.705  13.480   3.936  0.0249  0.0841  0.0626
 6915W        W23763  15.876  17.653  15.580  0.1114 -0.1037  0.3051
 6916W        W23764  17.448   1.139  16.314 -0.1701  0.1312  0.5159
 6917W        W23765  15.647   7.222   2.471  0.2654 -0.1925  0.1962
 6918W        W23766   0.324   5.814  12.752  0.0020  0.1899  0.1795
 6919W        W23767  14.878   5.651  12.250  0.0521 -0.2522  0.3272
 6920W        W23768  11.060   7.204   1.471 -0.1179  0.4207  0.2932
 6921W        W23769  12.795  15.699  14.691  0.0226  0.0473  0.1079
 6922W        W23770   8.095   5.335   1.251 -0.3095 -0.1913  0.0178
 6923W        W23771   1.975   1.490  14.336 -0.4632 -0.2989 -0.0709
 6924W        W23772   3.530  15.828  14.678 -0.0066 -0.0905 -0.3272
 6925W        W23773   2.660  12.218  13.467 -0.2721 -0.3809 -0.0227
 6926W        W23774   0.056  11.594  11.536  0.2333 -0.0390 -0.1692
 6927W        W23775   1.645  14.016  16.420 -0.1747  0.0671 -0.1483
 6928W        W23776  16.875   3.029   5.917  0.2592  0.3362 -0.0305
 6929W        W23777  12.230  15.379  13.184  0.1166  0.0952 -0.0085
 6930W        W23778   9.252  16.677  13.184 -0.0472 -0.2987 -0.3910
 6931W        W23779   2.653   1.817   4.152  0.1266 -0.0635  0.1356
 6932W        W23780   2.071  16.265  11.940  0.0377 -0.0081  0.2120
 6933W        W23781   1.968   5.654   1.804  0.1807  0.3788 -0.0835
 6934W        W23782  12.160  14.720  16.183  0.0212 -0.1645 -0.1245
 6935W        W23783   2.321   8.613   2.978  0.0442  0.1235 -0.1438
 6936W        W23784  14.682   3.886  13.315 -0.1456  0.2240  0.2493
 6937W        W23785  10.577  14.818   1.412  0.1385 -0.0881 -0.0999
 6938W        W23786   9.030  14.926   4.236  0.3313  0.1852  0.2650
 6939W        W23787  15.964  15.745  11.399  0.4375  0.1987 -0.3233
 6940W        W23788  16.361  16.799   4.315  0.0695 -0.1625 -0.0915
 6941W        W23789   9.956   4.503  10.754  0.3022 -0.1553  0.0659
 6942W        W23790   6.542  16.958  16.422 -0.1138 -0.0814 -0.1394
 6943W        W23791  16.434   1.762   3.797 -0.0842 -0.3437  0.1050
 6944W        W23792  16.576   9.740   0.064  0.2754  0.1457 -0.0484
 6945W        W23793   5.927   3.332   4.800  0.1733 -0.4251 -0.1660
 6946W        W23794  16.956   1.951   3.795 -0.2564  0.0918 -0.1719
 6947W        W23795  17.231  16.211   4.063  0.1228  0.1821  0.1328
 6948W        W23796   7.057  10.752  13.150  0.0273 -0.1709 -0.1109
 6949W        W23797   9.842   3.769  15.369 -0.1859 -0.2412  0.0964
 6950W        W23798   6.025   6.420  11.259  0.2460 -0.1134  0.0136
 6951W        W23799  11.150  12.046  13.264  0.2374 -0.0146  0.1993
 6952W        W23800   7.357  15.348  11.420  0.0734 -0.0334  0.2827
 6953W        W23801  12.490  15.703  15.613  0.2488  0.0086  0.0236
 6954W        W23802  10.450  13.423   3.525  0.0413  0.0257 -0.4962
 6955W        W23803  16.409  14.843   1.123 -0.1519  0.1595 -0.1350
 6956W        W23804   4.356   9.223  13.473  0.0156 -0.2017  0.1414
 6957W        W23805   7.398  11.500  14.850  0.0416  0.1632 -0.1381
 6958W        W23806   9.462  12.674  12.459  0.3058  0.0128  0.2460
 6959W        W23807   5.409   8.896  14.633  0.2696 -0.0567  0.0762
 6960W        W23808   1.736  15.382   2.715  0.0743 -0.0510 -0.1801
 6961W        W23809  16.144  11.042  15.380 -0.0610  0.0858 -0.2927
 6962W        W23810  12.700  14.256   3.293  0.2168  0.0306 -0.3317
 6963W        W23811  12.286   3.068   2.281  0.0790  0.0402 -0.2600
 6964W        W23812   3.994   0.013   2.596  0.1250  0.3377  0.0157
 6965W        W23813   2.483   7.570   3.605 -0.1657  0.0690 -0.1746
 6966W        W23814  13.838   3.155   4.004  0.1051  0.0929  0.0070
 6967W        W23815   0.466  14.989  14.267 -0.3183  0.0324 -0.3416
 6968W        W23816   0.290  11.916  14.448 -0.0195  0.3066  0.1599
 6969W        W23817   6.805  12.922   0.877  0.4276  0.1092 -0.0054
 6970W        W23818   4.656   7.327  15.718 -0.0251 -0.3375  0.0833
 6971W        W23819   2.365  10.383  15.819  0.1773  0.1290  0.1471
 6972W        W23820  17.312   5.639   3.935 -0.0435  0.0176 -0.1686
 6973W        W23821  10.663  10.552  12.318  0.0595 -0.0480 -0.1059
 6974W        W23822   6.232   1.776   1.814 -0.0309  0.1208 -0.1620
 6975W        W23823  12.721  14.227  15.856  0.3774  0.0173 -0.0241
 6976W        W23824  16.961   0.435  14.308  0.0059 -0.2616  0.0361
 6977W        W23825   4.033   8.954   2.858  0.2418 -0.3987  0.1297
 6978W        W23826  14.834  15.915  16.274  0.1054 -0.1981 -0.1063
 6979W        W23827   7.875   2.994  12.958 -0.0906  0.3879 -0.1987
 6980W        W23828  14.682  13.062  15.300 -0.3408  0.3565 -0.1446
 6981W        W23829   1.892   3.432  11.715 -0.0750 -0.2741  0.0398
 6982W        W23830  10.362  14.598  12.304 -0.2572  0.0568  0.0972
 6983W        W23831   1.690  17.399   2.796  0.0190  0.0527  0.0634
 6984W        W23832  16.094   0.039   1.952 -0.0847 -0.4215  0.0894
 6985W        W23833  16.888   9.455  15.507 -0.0986 -0.0224 -0.2299
 6986W        W23834   5.911  15.524  15.521 -0.1949  0.0648 -0.2908
 6987W        W23835   0.833   1.286   1.351  0.0889  0.1034  0.1545
 6988W        W23836  16.485  16.770  12.320  0.2619 -0.1079 -0.0896
 6989W        W23837   3.243  12.712  13.513  0.1204  0.0221  0.0040
 6990W        W23838  12.869   9.117  14.731  0.0600 -0.1624  0.2401
 6991W        W23839  17.725   3.678   0.717  0.4393  0.2329 -0.1949
 6992W        W23840  17.018   6.867  12.943  0.0804 -0.1153 -0.0204
 6993W        W23841  15.473  17.453   1.804  0.2851  0.2247 -0.0895
 6994W        W23842   3.399   1.929  13.896 -0.0647  0.1781 -0.5722
 6995W        W23843   2.437  16.375   1.168 -0.2657  0.0460  0.0660
 6996W        W23844  15.728  13.225  13.323  0.1014  0.1251 -0.1598
 6997W        W23845   3.854   8.519   2.036  0.2499  0.0383 -0.0287
 6998W        W23846  15.133  12.426  15.036  0.1834 -0.1146  0.2637
 6999W        W23847   0.248  16.205  16.170  0.1806 -0.0115 -0.1302
 7000W        W23848  17.572   7.118   5.087 -0.1074 -0.1844  0.0172
 7001W        W23849  12.343  14.385   3.654 -0.0927 -0.0385 -0.0277
 7002W        W23850  11.540   2.464   2.436  0.0208 -0.2556  0.4108
 7003W        W23851  15.453  13.670   0.078 -0.0981  0.0278  0.2221
 7004W        W23852   4.050  15.023  15.047  0.0083 -0.1777  0.1353
 7005W        W23853   3.767  17.239   4.220 -0.0393  0.0573 -0.0957
 7006W        W23854   4.079  16.820  16.550  0.1196  0.2033 -0.1286
 7007W        W23855  12.592   3.087   5.589  0.2772 -0.0810 -0.0819
 7008W        W23856   4.468   3.168  15.219  0.0914 -0.1218 -0.0415
 7009W        W23857  12.956  15.769  16.452 -0.3006  0.0358  0.0934
 7010W        W23858   0.702   8.145  16.372 -0.1799 -0.1810  0.1763
 7011W        W23859   6.913   3.216   3.030  0.3078  0.3162 -0.0057
 7012W        W23860   8.542  16.474  14.069  0.1081  0.0668 -0.0969
 7013W        W23861  13.590  12.326   1.914 -0.0684  0.0178  0.0270
 7014W        W23862  14.792   9.313   2.086  0.1690 -0.0265  0.1642
 7015W        W23863   4.773   1.404   2.746 -0.2793  0.0923  0.0913
 7016W        W23864   6.187   6.079  15.796 -0.0544  0.0146 -0.0904
 7017W        W23865   3.482   9.003   5.047 -0.1732 -0.0742  0.1638
 7018W        W23866   3.036   2.409  15.423  0.1105  0.3470 -0.0264
 7019W        W23867   1.657  10.875   3.495 -0.1864  0.3222 -0.0483
 7020W        W23868   9.370  12.151   4.820 -0.2071 -0.0910 -0.3319
 7021W        W23869  10.604  16.638  13.158  0.0883 -0.1043  0.2033
 7022W        W23870  13.311   0.464   0.019  0.2702  0.1336 -0.0983
 7023W        W23871   9.354   2.360   5.723 -0.0303  0.0638 -0.0312
 7024W        W23872  16.394  14.404   5.724  0.0709 -0.1831 -0.1686
 7025W        W23873   6.123  14.835   5.250 -0.1703  0.0990  0.0910
 7026W        W23874   7.440  14.478   2.494  0.2819  0.0113  0.1105
 7027W        W23875   2.364  12.246  15.845 -0.0576 -0.5132 -0.0502
 7028W        W23876   5.451  10.458   5.817 -0.0588  0.2272 -0.2003
 7029W        W23877  13.126   8.078   5.327 -0.1247 -0.1043  0.0215
 7030W        W23878   5.978   4.040  11.763 -0.2142  0.5586  0.0533
 7031W        W23879  10.531   9.863   4.915  0.1885  0.0836  0.1742
 7032W        W23880  11.533  11.371  13.548 -0.0058 -0.1722 -0.1375
 7033W        W23881  17.398   2.534  16.629 -0.0081 -0.0479 -0.0418
 7034W        W23882  14.050  15.942  16.543 -0.3906 -0.0552  0.1569
 7035W        W23883   1.593  16.087  13.270 -0.2544  0.0474  0.0867
 7036W        W23884   7.497   6.311  11.991 -0.2835 -0.1574 -0.2633
 7037W        W23885  15.196   7.998   3.774  0.2937  0.0697 -0.1219
 7038W        W23886  13.172   5.000  16.401 -0.1021 -0.1504 -0.2029
 7039W        W23887   9.255  15.373  12.298  0.0972  0.1007 -0.0044
 7040W        W23888   5.389   8.822   0.375  0.0554  0.2962 -0.1387
 7041W        W23889   0.895  13.613  11.137  0.1654  0.0681 -0.0946
 7042W        W23890   8.652  10.702   4.026 -0.0783  0.2988  0.1423
 7043W        W23891   5.765  11.784   0.441 -0.0499 -0.2488  0.0073
 7044W        W23892  17.383  14.582  13.307 -0.0677  0.0905 -0.0347
 7045W        W23893  13.251  11.752  15.812 -0.0899 -0.3042 -0.2432
 7046W        W23894  15.614  17.647  11.657 -0.1403  0.0405 -0.0388
 7047W        W23895  10.275   0.749   1.597 -0.0250 -0.0377 -0.2687
 7048W        W23896  13.387   9.679   2.605  0.1335  0.3964  0.1649
 7049W        W23897   6.604   0.475  15.826  0.2598  0.0018  0.0050
 7050W        W23898   9.788   2.065   0.242 -0.1705 -0.3745  0.2185
 7051W        W23899   0.498   2.972   4.520 -0.1131  0.1224 -0.2135
 7052W        W23900   5.256  12.841  13.832  0.2528 -0.0667 -0.3479
 7053W        W23901   4.104   5.286   0.285  0.3695  0.1689 -0.0665
 7054W        W23902  12.322   6.806  11.220 -0.0786 -0.2331 -0.0655
 7055W        W23903   1.340  11.660  13.002  0.1284  0.2277  0.3622
 7056W        W23904  13.394  11.449  14.517  0.1205  0.2196  0.0697
 7057W        W23905  17.565   9.316  12.566 -0.2438  0.1316 -0.4611
 7058W        W23906  12.565  13.754  15.919 -0.1198  0.1200 -0.0444
 7059W        W23907  12.741  13.157   4.236  0.2382  0.1148  0.1806
 7060W        W23908   8.792   9.045  11.509 -0.2197  0.0283  0.0094
 7061W        W23909  17.607   0.484   2.063  0.5146  0.0057 -0.2714
 7062W        W23910   5.324   7.742  14.181 -0.0276 -0.3902  0.1076
 7063W        W23911   8.818   0.844   1.387  0.0497 -0.0957 -0.0140
 7064W        W23912  14.809  12.539  11.905 -0.0538 -0.1070  0.4730
 7065W        W23913   1.970   3.924  13.919  0.2313  0.1680  0.1882
 7066W        W23914   1.680   3.523  12.692  0.1470  0.1656 -0.1749
 7067W        W23915  17.325   3.847  14.415  0.0567 -0.2119  0.0187
 7068W        W23916   9.137   2.672   1.149  0.1864 -0.0100 -0.1155
 7069W        W23917  17.815  13.737  16.193 -0.3013 -0.0304  0.0751
 7070W        W23918   2.227  11.389  15.973 -0.0701 -0.0416  0.2659
 7071W        W23919   3.571   1.543  14.380 -0.1882 -0.0584 -0.0270
 7072W        W23920  11.065  14.753  14.259  0.2524  0.1787  0.1948
 7073W        W23921   2.995   9.861   5.035 -0.3150  0.3092 -0.1248
 7074W        W23922   0.680   1.835   5.459 -0.2048  0.0198  0.2836
 7075W        W23923   7.154   1.300   3.825  0.0971  0.1508 -0.1579
 7076W        W23924  12.365   2.732  11.845  0.1191  0.2126  0.2995
 7077W        W23925   0.455   4.792   5.735  0.0390  0.1782  0.0357
 7078W        W23926   2.423  16.683   2.664  0.0112 -0.0723  0.0960
 7079W        W23927  10.690  13.350  12.987  0.0566 -0.2478  0.0886
 7080W        W23928  11.366   7.624   2.808  0.2195  0.3016 -0.3129
 7081W        W23929  12.936  14.145  11.911  0.0435 -0.0162  0.2514
 7082W        W23930  13.774  15.015   3.193  0.0309 -0.0015  0.2781
 7083W        W23931  17.462  17.612  14.333  0.0067  0.4553 -0.0262
 7084W        W23932   4.634   6.541   1.602  0.1422  0.0303  0.1549
 7085W        W23933   0.695  15.042  16.151  0.1638 -0.2485 -0.1679
 7086W        W23934   3.126   4.836  11.716  0.0472 -0.0429 -0.1128
 7087W        W23935  11.604   7.954  14.503  0.0007  0.0945 -0.2442
 7088W        W23936   5.704  13.265   4.878  0.3572  0.0728  0.1662
 7089W        W23937  16.646   5.388   4.891  0.1222 -0.2119  0.1662
 7090W        W23938  13.136   2.900   3.198 -0.2533 -0.6188 -0.1070
 7091W        W23939   6.781   6.017   4.250  0.0118  0.1169  0.0998
 7092W        W23940   7.921  15.371   1.710  0.1239 -0.0529 -0.2046
 7093W        W23941  12.106   8.014  14.798  0.1192 -0.1086 -0.1089
 7094W        W23942   0.327   3.219  13.620 -0.1925 -0.0558 -0.0249
 7095W        W23943   2.670  14.835  16.603  0.5151 -0.1258  0.0153
 7096W        W23944   2.775   7.772   2.160 -0.2149 -0.0039 -0.1086
 7097W        W23945  13.382  16.039  11.908  0.0119  0.0985  0.0907
 7098W        W23946   3.512   9.268  13.547  0.2665 -0.1113  0.0543
 7099W        W23947  13.640   0.977  12.346  0.0507  0.1868 -0.0636
 7100W        W23948   4.270   9.886   3.215  0.3351  0.0857  0.0617
 7101W        W23949   2.780   3.662   3.489 -0.1216  0.1523  0.1312
 7102W        W23950   9.715   3.137   1.789  0.0194 -0.0476 -0.1092
 7103W        W23951  17.438   9.927   4.551  0.1311 -0.1212  0.1750
 7104W        W23952  11.779  17.395   3.891  0.1047 -0.0815 -0.1751
 7105W        W23953  12.722   0.809  15.256  0.2332 -0.0811  0.2274
 7106W        W23954  17.183  16.005   2.790 -0.0972 -0.3484 -0.0281
 7107W        W23955   4.195  15.132  14.556  0.0833  0.0964 -0.1549
 7108W        W23956   0.878   3.131  13.609  0.2578 -0.1338  0.0542
 7109W        W23957   1.019   6.901  11.158  0.0850  0.2878 -0.2028
 7110W        W23958  10.698   0.403   1.059  0.0285 -0.0225  0.2535
 7111W        W23959   7.630   6.671  13.434  0.3512 -0.1183 -0.3258
 7112W        W23960   7.096  17.743  11.662  0.0594  0.0955 -0.3659
 7113W        W23961  17.428   1.828  11.072  0.1636 -0.0643  0.1532
 7114W        W23962  11.945   7.808   4.684  0.1162 -0.1192  0.1626
 7115W        W23963   9.241   7.168   4.817 -0.1959  0.0584 -0.2827
 7116W        W23964  16.659   7.187  12.505 -0.0795 -0.1719  0.2170
 7117W        W23965  13.513   2.583  11.276  0.1233  0.2458  0.0503
 7118W        W23966   3.721   8.522   3.139 -0.0195  0.0678 -0.0734
 7119W        W23967   1.121  12.180  12.813  0.0256  0.0532 -0.3245
 7120W        W23968   9.946   0.063  13.592 -0.1610 -0.0119 -0.2079
 7121W        W23969   3.778   1.137   2.403 -0.1664  0.1565 -0.1575
 7122W        W23970  14.888   4.865  15.609  0.3226  0.0771  0.1457
 7123W        W23971   0.953  14.383   0.238  0.0303  0.1436  0.2351
 7124W        W23972  17.293   7.820  11.929  0.0308 -0.2276  0.1058
 7125W        W23973   1.831   9.215   0.231 -0.0052 -0.1781 -0.0487
 7126W        W23974  16.916   6.793   4.745 -0.3214 -0.1648  0.2064
 7127W        W23975  12.182  13.801   2.511  0.3687 -0.0745  0.3262
 7128W        W23976   6.509  16.974  15.885  0.0092 -0.1528 -0.0159
 7129W        W23977   2.938   7.694   0.243  0.0497 -0.3670 -0.2625
 7130W        W23978   8.639  16.839   0.809 -0.1633 -0.0783 -0.1003
 7131W        W23979   7.565   4.694  13.254  0.1912  0.3529  0.0843
 7132W        W23980  17.704   1.293  12.894  0.2057  0.2060 -0.0836
 7133W        W23981  10.174  15.344  15.267  0.0293  0.1792  0.1662
 7134W        W23982   5.738   7.457   5.913  0.1920 -0.0694  0.1197
 7135W        W23983  14.467   3.727  12.425 -0.3188 -0.1172  0.2017
 7136W        W23984   9.131   9.429  13.672 -0.2710  0.0129  0.2290
 7137W        W23985   0.480  16.506  15.431  0.3601 -0.1721 -0.2186
 7138W        W23986   1.060  12.520   2.825  0.1227  0.3563 -0.0533
 7139W        W23987   5.931   2.940  14.344  0.0442 -0.0328  0.1017
 7140W        W23988   4.030  10.764  16.316  0.0607  0.0699 -0.1818
 7141W        W23989   1.226   3.223   3.479 -0.0970 -0.1843  0.2455
 7142W        W23990  12.156  14.620   2.443  0.1699 -0.2566 -0.0126
 7143W        W23991   0.523   2.698   0.841  0.2487  0.0245 -0.1975
 7144W        W23992   0.641   2.431   3.001  0.3325  0.2460 -0.2189
 7145W        W23993   0.840  14.376  14.917 -0.0781 -0.0167  0.0110
 7146W        W23994  12.676  17.349   1.543 -0.2029  0.0078  0.0338
 7147W        W23995   6.247   0.517  11.506 -0.1059 -0.0989  0.1047
 7148W        W23996   0.987  16.700   4.986 -0.2643 -0.4089 -0.0608
 7149W        W23997   8.047   2.553  12.701 -0.1499 -0.3153 -0.1281
 7150W        W23998  14.520  11.125   3.521  0.3846  0.0203  0.0329
 7151W        W23999   8.112  13.119  12.260  0.0718  0.0014  0.0468
 7152W        W24000  10.366  15.743  14.278  0.1482 -0.0680 -0.0261
 7153W        W24001  12.409  15.817  10.706  0.0214  0.0040 -0.1221
 7154W        W24002   1.660  12.631  13.904 -0.0443 -0.4696 -0.0083
 7155W        W24003   5.918   0.371   4.695  0.1831  0.3375  0.0985
 7156W        W24004  14.844  17.428  14.764  0.2292  0.1429 -0.0594
 7157W        W24005  12.031  10.134  11.615 -0.4187 -0.2503 -0.1175
 7158W        W24006   7.939  16.661  15.855 -0.1341 -0.0714 -0.2001
 7159W        W24007  13.505  13.196   2.876  0.0133 -0.1623 -0.1539
 7160W        W24008   6.976   5.305  15.944  0.0118  0.3196 -0.0135
 7161W        W24009  14.465   0.430   1.907 -0.1160  0.1096 -0.3279
 7162W        W24010   2.593  11.882  13.861  0.1588  0.0529 -0.1353
 7163W        W24011   3.911  14.346  15.649  0.0600  0.1239 -0.0741
 7164W        W24012   9.997  14.760  15.982  0.1949  0.0588 -0.2599
 7165W        W24013  14.696  16.093  11.952 -0.1038  0.0862 -0.4555
 7166W        W24014   3.356   7.124   2.105 -0.0151  0.2748 -0.0526
 7167W        W24015   5.911  15.519  12.682 -0.0461 -0.1290  0.3192
 7168W        W24016  12.150   1.213   1.816 -0.0518 -0.1571  0.0479
 7169W        W24017  15.635  16.274   2.887 -0.0618  0.0680 -0.1041
 7170W        W24018   3.488  16.694   1.429 -0.2552  0.3494  0.0142
 7171W        W24019   8.496   8.757  13.567  0.0967 -0.0833  0.0551
 7172W        W24020   9.928  10.344  14.903 -0.1375  0.0096  0.2606
 7173W        W24021   1.571  14.170   3.452 -0.0442  0.0868 -0.0759
 7174W        W24022  16.011  16.303  16.457  0.1176 -0.3364 -0.0257
 7175W        W24023  11.081  12.370  16.295 -0.0355  0.0915 -0.2117
 7176W        W24024  15.411   0.068   4.488  0.1566  0.0475  0.1283
 7177W        W24025  15.985   8.661   5.488  0.0062 -0.0555  0.0644
 7178W        W24026  15.580   8.785  14.396  0.4628 -0.0913  0.1579
 7179W        W24027  10.330  14.539  15.690 -0.1717 -0.3223 -0.0697
 7180W        W24028  13.914  13.669  13.442  0.1521  0.1049  0.0360
 7181W        W24029  17.401   6.819  13.391 -0.1477  0.0716 -0.2626
 7182W        W24030  14.494   1.016  14.595  0.2304 -0.0796  0.1432
 7183W        W24031   8.865  15.940  16.049 -0.1654  0.0320 -0.1421
 7184W        W24032  14.186   8.139   0.567  0.0446 -0.2727 -0.1340
 7185W        W24033  13.153  12.551   2.115  0.0732 -0.0784 -0.1191
 7186W        W24034  12.153  13.982  14.501 -0.3072  0.0327 -0.2936
 7187W        W24035  13.226  16.665   4.702 -0.1591  0.0453 -0.0236
 7188W        W24036  14.732  14.602  12.698  0.3982 -0.1655  0.1433
 7189W        W24037  10.731   1.449  14.597 -0.0869  0.0382 -0.2756
 7190W        W24038  16.360  11.571   1.974 -0.0430 -0.1366  0.1070
 7191W        W24039   3.715  10.406  16.024  0.1888  0.0309  0.4380
 7192W        W24040   6.209   0.956  13.565 -0.1000  0.1152 -0.2229
 7193W        W24041   5.903   4.042  16.324  0.2871 -0.0653 -0.1706
 7194W        W24042   9.116  12.940   0.882 -0.4255  0.0826 -0.1277
 7195W        W24043   1.565   5.685  12.174 -0.4839 -0.1163  0.0615
 7196W        W24044   8.440  14.423   3.354 -0.2362  0.2404 -0.0483
 7197W        W24045  11.571   5.531  14.329  0.2295 -0.0767 -0.1637
 7198W        W24046   5.494   0.325  14.038 -0.2637 -0.0918 -0.0042
 7199W        W24047  16.564  10.737  11.351  0.2044 -0.0642 -0.1484
 7200W        W24048   2.830   4.127  11.297 -0.0821  0.0392 -0.1468
 7201W        W24049   4.447  12.496  13.835  0.1555  0.0151  0.1006
 7202W        W24050  16.741   3.268  15.479  0.0678 -0.0285 -0.3050
 7203W        W24051  14.261   2.987   4.253 -0.0135  0.0213 -0.4355
 7204W        W24052  15.128  17.425  11.689  0.2787  0.2502 -0.2147
 7205W        W24053   2.768   4.725  14.740  0.5447  0.0065 -0.0382
 7206W        W24054   5.432   4.555   1.939 -0.0142  0.3278 -0.1125
 7207W        W24055   7.737   0.425   3.211 -0.0405  0.1478 -0.0779
 7208W        W24056  17.353   9.881  16.279 -0.1418  0.1614  0.0131
 7209W        W24057   1.520   1.280  11.191 -0.1566 -0.0639  0.0251
 7210W        W24058  11.734  16.485  15.301  0.1564 -0.2289  0.0643
 7211W        W24059  14.963   1.448   5.918  0.0714 -0.5109  0.3530
 7212W        W24060   4.917  17.730  15.732  0.0542 -0.1777  0.2697
 7213W        W24061  12.947  13.069  15.461 -0.2285  0.1446  0.0684
 7214W        W24062  15.813  13.482   2.740 -0.0644 -0.2457  0.0045
 7215W        W24063  13.374   1.889  15.571 -0.1773  0.2484 -0.0289
 7216W        W24064   9.366  16.992   0.400  0.0548  0.2130  0.0306
 7217W        W24065   8.328  12.866  13.625  0.1992 -0.2777  0.1325
 7218W        W24066  12.365  11.253  15.133  0.2081  0.0746  0.3923
 7219W        W24067   2.728   5.810  15.431  0.0255  0.2564 -0.4421
 7220W        W24068   6.813   0.393  13.291 -0.0406 -0.1206  0.1038
 7221W        W24069   9.949  11.503   4.698  0.0315 -0.2041  0.1542
 7222W        W24070   8.813  10.821  12.045 -0.1509  0.1408 -0.1424
 7223W        W24071   3.936  17.007   2.874  0.4869 -0.0711 -0.1056
 7224W        W24072  10.502  10.790  12.827 -0.3863  0.0264 -0.0041
 7225W        W24073   7.335  12.231  14.935 -0.0520 -0.2220 -0.1707
 7226W        W24074  15.456   2.201   5.462  0.0050 -0.1256  0.0126
 7227W        W24075  13.588  12.351   2.438  0.0320  0.0325  0.0358
 7228W        W24076  11.115  15.254  12.238 -0.0827  0.1377  0.1240
 7229W        W24077  15.783  16.547   4.984  0.1143 -0.1282 -0.1603
 7230W        W24078   6.250  16.135   1.959 -0.1625  0.2575 -0.0827
 7231W        W24079  12.046   7.799  16.350 -0.0168  0.2563 -0.0203
 7232W        W24080   6.700   9.595   3.756 -0.0774 -0.0973 -0.0244
 7233W        W24081   7.134   9.562   3.227 -0.0127  0.0749  0.1942
 7234W        W24082   6.384   9.456  15.205 -0.3504 -0.1860 -0.1319
 7235W        W24083   1.473   4.599  16.361 -0.2293  0.0080  0.0076
 7236W        W24084   6.093  16.542   0.618  0.0008 -0.1450  0.0934
 7237W        W24085   4.497   0.952  15.957  0.0174  0.3378  0.1568
 7238W        W24086  13.021   5.602   4.965  0.1486  0.1101  0.0433
 7239W        W24087   9.175   4.332  11.267  0.0676 -0.0318  0.0653
 7240W        W24088   7.121  17.484   4.119  0.1789 -0.0022  0.0791
 7241W        W24089   5.320   0.596   1.659 -0.1549  0.2005  0.2674
 7242W        W24090  17.360  15.258   0.342  0.0564 -0.3949  0.1352
 7243W        W24091   4.897   3.906  11.877  0.1243  0.0346  0.2458
 7244W        W24092  12.264   2.113   1.227  0.0038  0.1952 -0.0267
 7245W        W24093  10.090  15.435   0.647  0.2481 -0.0161  0.1611
 7246W        W24094   1.704   3.919   4.043  0.0863  0.0623 -0.2771
 7247W        W24095   6.962  10.228  13.021  0.2986  0.0445  0.1576
 7248W        W24096   1.498   3.970  15.897 -0.0362 -0.1470 -0.1492
 7249W        W24097  15.801   1.692  14.455  0.1032 -0.0702 -0.1571
 7250W        W24098  14.945  13.618   3.864 -0.0627  0.1119  0.0097
 7251W        W24099  17.367   2.840  10.731  0.2269  0.0595  0.1212
 7252W        W24100  11.673  15.590   5.535 -0.0906 -0.0334 -0.0582
 7253W        W24101  12.309   2.204  11.455 -0.0911 -0.1668  0.1796
 7254W        W24102  13.932   1.851   3.632  0.1956  0.1444 -0.0278
 7255W        W24103   8.625   0.450   4.340 -0.1575  0.2472 -0.0947
 7256W        W24104   0.654   8.738  12.353 -0.1709  0.0364 -0.1283
 7257W        W24105   4.638  14.029   0.954  0.0959  0.0398 -0.3025
 7258W        W24106  12.628  13.554   2.543 -0.0464 -0.4882  0.4095
 7259W        W24107   5.666   2.211   2.510 -0.0919  0.0891 -0.0392
 7260W        W24108   8.778   2.896   4.044 -0.0865 -0.1236 -0.0015
 7261W        W24109   3.404   3.979  15.011  0.0985  0.0560  0.1958
 7262W        W24110  17.101   6.585  14.374  0.1902  0.0895  0.1018
 7263W        W24111  15.666   4.508   5.172  0.1792 -0.3389 -0.1097
 7264W        W24112   7.713  15.005  11.250  0.2893  0.4429 -0.0249
 7265W        W24113   6.822   0.061   2.710 -0.0424 -0.0574  0.0460
 7266W        W24114  17.063  12.337  14.708 -0.0728  0.0138 -0.0143
 7267W        W24115   6.424   1.384   1.566 -0.1635 -0.0302  0.1544
 7268W        W24116   5.157   6.079  13.320 -0.0495 -0.1372 -0.0100
 7269W        W24117  17.262  12.480   0.809  0.0919  0.1624 -0.1361
 7270W        W24118  14.026  15.372  15.636 -0.0178 -0.0244  0.4314
 7271W        W24119   1.256   8.572   4.358 -0.0182  0.3524  0.1326
 7272W        W24120  13.909   0.451  12.296 -0.1469 -0.0214 -0.1225
 7273W        W24121   0.592   8.583   1.178 -0.0198  0.1252  0.1362
 7274W        W24122   9.135   7.838  11.654  0.0958 -0.1712  0.0083
 7275W        W24123   0.629   7.491  14.700  0.0759 -0.2595  0.0848
 7276W        W24124   7.482   3.445   2.366 -0.1962  0.0142 -0.0424
 7277W        W24125  10.727  12.536   1.013 -0.0254 -0.0926  0.1341
 7278W        W24126   9.752   8.999   1.342  0.4842  0.2008  0.0883
 7279W        W24127  10.293  16.943   1.793  0.0085  0.1417  0.0419
 7280W        W24128   1.017   8.270  16.009 -0.0101 -0.0505 -0.2366
 7281W        W24129   1.651  11.539  13.514 -0.4636 -0.0872  0.0413
 7282W        W24130   6.052  14.717  13.976  0.0665  0.2029  0.2350
 7283W        W24131   1.986   8.745  15.578  0.1396  0.4713  0.3148
 7284W        W24132   7.924  16.878  12.581  0.3598 -0.1307  0.1568
 7285W        W24133  16.943  14.901  11.655 -0.3337 -0.0234  0.1629
 7286W        W24134   9.150  17.701   4.726 -0.1584 -0.1109 -0.2790
 7287W        W24135   8.547   9.439  11.336 -0.0072  0.1567  0.1274
 7288W        W24136   7.402   8.310   2.029  0.1975  0.0281 -0.1286
 7289W        W24137   6.827   8.942   0.559  0.1188 -0.1848  0.2012
 7290W        W24138   9.690  17.445  15.686  0.1755  0.0363 -0.2462
 7291W        W24139  13.701   8.023   1.617 -0.2679 -0.2397  0.0170
 7292W        W24140   2.664   8.653   2.570 -0.1034 -0.1003 -0.1243
 7293W        W24141  10.324   6.861  16.405  0.1051 -0.1588 -0.1071
 7294W        W24142  15.718  12.103  15.748 -0.3067  0.1225 -0.0429
 7295W        W24143   8.332   9.967  11.660 -0.2913 -0.1523  0.1245
 7296W        W24144   4.370   5.239  15.932  0.1085 -0.1377  0.1989
 7297W        W24145   1.081  10.091   3.491  0.1614  0.0271 -0.0195
 7298W        W24146  11.230   9.087  16.065  0.0445 -0.2324  0.0498
 7299W        W24147   2.365  10.524   5.206  0.0801  0.0736  0.2040
 7300W        W24148   1.219   9.500   4.034 -0.0261 -0.0297 -0.0449
 7301W        W24149  13.641  10.423  14.380  0.0940 -0.1662 -0.1357
 7302W        W24150   9.254  11.152  13.686 -0.1411 -0.3917  0.1062
 7303W        W24151   6.865  15.310   2.417 -0.0506 -0.0479  0.2773
 7304W        W24152   5.876  13.279   4.400  0.0938  0.1597 -0.4711
 7305W        W24153  11.867  10.567  13.151  0.0088 -0.2114 -0.1796
 7306W        W24154  10.634   0.045  14.001 -0.3338 -0.1346 -0.1081
 7307W        W24155  13.781   7.460  11.785 -0.0042 -0.1655  0.0448
 7308W        W24156   9.128  15.487   5.207  0.1865  0.0789  0.2223
 7309W        W24157   8.815  12.654   3.020 -0.0312 -0.0103  0.0328
 7310W        W24158  14.994  16.211   0.952  0.1634  0.1607  0.1427
 7311W        W24159   9.587   5.777   0.367  0.2944  0.1596  0.1359
 7312W        W24160  15.098  16.175  14.736  0.5263 -0.0106 -0.1585
 7313W        W24161  10.409   4.637   1.481  0.0051 -0.1352 -0.0031
 7314W        W24162  15.976  11.149  13.507  0.0971  0.0059 -0.1147
 7315W        W24163   7.665  16.998  10.614 -0.1281 -0.4409 -0.1867
 7316W        W24164  13.925  16.198   2.561 -0.0725  0.1188  0.0297
 7317W        W24165  14.949   1.074   2.881  0.1805 -0.2746 -0.0298
 7318W        W24166   6.052   1.030  15.334  0.1666  0.0353 -0.0818
 7319W        W24167   2.863   2.556  16.027 -0.0513  0.0057 -0.1743
 7320W        W24168   4.196  16.477   0.303  0.0878 -0.3974 -0.1796
 7321W        W24169  11.396  15.302  14.999 -0.1087  0.2877  0.0902
 7322W        W24170  12.347   2.460   2.621  0.1066 -0.1240 -0.1094
 7323W        W24171   2.517   0.089  13.193 -0.1287  0.0474 -0.1906
 7324W        W24172  12.871  11.196  11.595 -0.0159 -0.1696 -0.0627
 7325W        W24173   9.262   3.969   1.982 -0.0102  0.1981  0.0380
 7326W        W24174   4.485   9.288  16.416 -0.1284  0.2384 -0.1240
 7327W        W24175  12.431  10.367  14.327 -0.2469  0.3315 -0.1935
 7328W        W24176  10.508  12.059   3.187 -0.2666 -0.0625 -0.0130
 7329W        W24177   5.386   6.728  13.207 -0.0910  0.0059  0.2101
 7330W        W24178  13.319   4.580  13.726 -0.0163  0.0755  0.0913
 7331W        W24179   2.804  15.406   0.775  0.0169  0.2383  0.1201
 7332W        W24180  13.258   4.674   2.733  0.1843  0.0416 -0.1442
 7333W        W24181  16.594  17.789   1.965  0.1634  0.1586 -0.0078
 7334W        W24182   8.068   3.301  15.923 -0.1256  0.1762  0.3176
 7335W        W24183  10.986   5.369  14.160 -0.2151 -0.1702 -0.0736
 7336W        W24184   0.614  11.299  13.630 -0.1093  0.2275  0.1915
 7337W        W24185   5.694  15.011   5.020  0.2398  0.2183  0.1813
 7338W        W24186  11.907   9.881   2.562 -0.2745 -0.0488 -0.1873
 7339W        W24187   6.956  13.372   2.801 -0.1758 -0.0914  0.0858
 7340W        W24188   9.774   1.582  11.923  0.3486  0.2112 -0.1699
 7341W        W24189   4.979   1.449  13.319  0.0094  0.1571  0.0070
 7342W        W24190   7.223  15.208  16.334  0.0951 -0.2453 -0.1985
 7343W        W24191   3.285   5.694   5.211  0.0254 -0.0817 -0.3594
 7344W        W24192  11.822   6.568   3.997  0.0489  0.1881  0.0197
 7345W        W24193  11.540   6.871   4.328 -0.1222  0.0309  0.0310
 7346W        W24194   5.909   8.292   3.085 -0.1450  0.2728 -0.3623
 7347W        W24195   6.219   9.333   2.204  0.0724  0.0154  0.2022
 7348W        W24196   5.776   7.621   0.139 -0.0023  0.3257  0.1923
 7349W        W24197   5.950   9.328   0.316  0.2847 -0.1543 -0.3914
 7350W        W24198  10.084   4.232  15.259 -0.0842 -0.2742  0.3102
 7351W        W24199  14.997  10.734   0.924  0.0007  0.0295  0.4884
 7352W        W24200   8.889   4.875   2.736 -0.1565  0.1387  0.1848
 7353W        W24201   7.667  10.849  15.361 -0.0949  0.1924  0.3012
 7354W        W24202   2.298   3.523  15.554  0.2345 -0.0392 -0.1197
 7355W        W24203  17.295   7.320  13.954  0.3100 -0.0762 -0.1527
 7356W        W24204   6.233   2.819  16.548  0.0315 -0.0460  0.2461
 7357W        W24205   8.479   9.020  16.121 -0.1019 -0.3213 -0.0582
 7358W        W24206   8.866  17.031  11.797 -0.0029 -0.2313 -0.0205
 7359W        W24207   7.936  12.205   5.174 -0.0500  0.0262  0.0531
 7360W        W24208   6.953  13.784   1.342 -0.0864 -0.0243  0.0664
 7361W        W24209  16.909   0.417   1.735 -0.2671  0.0640  0.4271
 7362W        W24210   4.790  14.720  12.044  0.4647  0.0059 -0.0061
 7363W        W24211   9.990   3.974  13.795 -0.1933  0.1532  0.0572
 7364W        W24212   8.578  14.047  12.642  0.0128  0.0322  0.0853
 7365W        W24213   2.246   2.539  13.709 -0.1572  0.0979 -0.0842
 7366W        W24214  10.829  15.615   2.472 -0.1101  0.2390  0.1498
 7367W        W24215   0.187   5.357  14.577  0.1969 -0.1450 -0.1075
 7368W        W24216   8.070   8.646   4.071 -0.2361  0.0135  0.2196
 7369W        W24217   6.319   9.776   0.719 -0.1503 -0.0467 -0.0487
 7370W        W24218   2.829  12.787  12.546  0.2105  0.3901 -0.1014
 7371W        W24219   0.101  10.017   2.993 -0.0710  0.0414  0.0891
 7372W        W24220   8.267  15.608  14.992  0.1071 -0.2992 -0.2233
 7373W        W24221   6.207  10.182   4.624 -0.0199 -0.2656 -0.1176
 7374W        W24222   2.349   9.466   2.602 -0.0599 -0.0490 -0.0681
 7375W        W24223   5.660   3.380  12.026  0.1880 -0.0733  0.1614
 7376W        W24224   6.153   8.900  11.581 -0.4537 -0.3029  0.2166
 7377W        W24225  13.234   2.742  10.886  0.3418 -0.0470  0.0036
 7378W        W24226   1.674  17.841   2.153  0.0802  0.2123 -0.0235
 7379W        W24227   0.040   4.484   2.540 -0.0311 -0.1178 -0.2651
 7380W        W24228   5.452  15.478   4.256 -0.1866  0.0727  0.1199
 7381W        W24229  11.206  15.098   1.886  0.0086  0.5351 -0.0541
 7382W        W24230   7.941  17.326  14.963 -0.0081 -0.2943 -0.0097
 7383W        W24231   5.451   9.440  12.914 -0.1905 -0.3783  0.0423
 7384W        W24232  12.267   1.154   4.329 -0.3076 -0.1453 -0.2506
 7385W        W24233  12.858  10.445  15.246 -0.0534 -0.0358  0.0139
 7386W        W24234  11.229  11.996  12.723 -0.0221 -0.1715  0.1743
 7387W        W24235   9.417  16.336   4.195 -0.2036 -0.2525 -0.1490
 7388W        W24236  17.318  17.319  14.674 -0.0271 -0.0249 -0.2599
 7389W        W24237   8.794  12.770   1.274  0.0227  0.1713 -0.0635
 7390W        W24238   9.633   4.635  15.076 -0.0512 -0.2445 -0.0595
 7391W        W24239  10.377  11.220   4.911  0.0486 -0.2537 -0.1084
 7392W        W24240  10.221   0.594   2.660  0.3432  0.3122  0.1815
 7393W        W24241  15.348  15.781  13.805 -0.0783 -0.3013  0.1203
 7394W        W24242  13.666   2.106   5.621 -0.3130 -0.1384 -0.1202
 7395W        W24243  10.229  13.891  15.082  0.0080 -0.1158  0.0639
 7396W        W24244  13.311   3.902  12.776  0.1144 -0.1637 -0.2919
 7397W        W24245   2.130   8.287   4.528  0.0027 -0.0399 -0.2523
 7398W        W24246   4.558   8.837   0.746  0.1405 -0.1377  0.1402
 7399W        W24247  17.294   9.119   2.252 -0.3333  0.1813  0.0984
 7400W        W24248   4.305   2.559  16.475  0.2383  0.0511  0.2935
 7401W        W24249  17.212  15.658  16.590  0.1492 -0.1901 -0.1374
 7402W        W24250   9.967   8.069  16.025  0.2230 -0.2519 -0.1253
 7403W        W24251   8.786   5.442   0.023 -0.1467 -0.2167 -0.0790
 7404W        W24252  11.573   5.948  14.611 -0.3709  0.1075  0.0335
 7405W        W24253   1.883   8.457   0.773  0.2732 -0.1208  0.4340
 7406W        W24254   0.102  10.227   3.836  0.1744  0.0110  0.3630
 7407W        W24255  10.706   7.976   3.371  0.0390 -0.1879 -0.0302
 7408W        W24256  10.035   6.416   1.798 -0.0971  0.3091 -0.3670
 7409W        W24257   4.177   1.760  13.620  0.0124  0.0941  0.0431
 7410W        W24258  13.570  14.509  15.093  0.0327 -0.0007  0.1823
 7411W        W24259   2.231  15.705  14.962  0.2979  0.1763  0.0285
 7412W        W24260   8.649  13.486  15.502  0.1610  0.1073  0.3644
 7413W        W24261  10.121  12.157  13.311  0.7571 -0.0786 -0.0954
 7414W        W24262   1.344  15.662   2.809  0.0867 -0.1488  0.1848
 7415W        W24263  16.442   9.022   4.267  0.2891 -0.0922  0.0579
 7416W        W24264   0.990  15.803   1.175 -0.2059 -0.1240 -0.1546
 7417W        W24265  17.545  11.314   3.711  0.0387  0.1080 -0.0970
 7418W        W24266  17.191   9.965  13.466 -0.1402  0.0270 -0.2372
 7419W        W24267   7.886  11.711   2.648 -0.2025 -0.2922  0.3154
 7420W        W24268   9.410  11.222  11.534  0.1909 -0.1665 -0.3364
 7421W        W24269   0.039   5.457   4.303 -0.0763 -0.0948  0.0973
 7422W        W24270  16.873   9.861  15.223  0.0350 -0.0226  0.2948
 7423W        W24271  11.785  13.281  16.153  0.1985 -0.0334 -0.1419
 7424W        W24272  17.460  13.399  11.683 -0.0397 -0.0659  0.2122
 7425W        W24273   7.499  16.765   3.105  0.2822 -0.1670 -0.0447
 7426W        W24274   6.810   1.492   3.476  0.0248  0.1064  0.1681
 7427W        W24275   1.317   4.795  12.842 -0.3309 -0.1667 -0.4222
 7428W        W24276   4.639   6.515  12.286  0.1044 -0.0219 -0.2094
 7429W        W24277   9.149  17.383  14.194  0.2062 -0.0332  0.0327
 7430W        W24278   5.824  14.392   4.526 -0.0978  0.0335  0.1075
 7431W        W24279   2.131   1.196  16.141  0.0913 -0.0181  0.0792
 7432W        W24280  15.240  11.982   1.074 -0.0368  0.2096 -0.1339
 7433W        W24281   7.192   3.563  16.031 -0.1454  0.1706  0.0253
 7434W        W24282   3.584   0.032   4.933 -0.0785 -0.3589 -0.0087
 7435W        W24283  10.714  12.210   1.853 -0.1177  0.1524  0.3785
 7436W        W24284   3.216   7.424   5.757  0.0420  0.0027  0.0120
 7437W        W24285  11.872   0.092   3.609 -0.1759 -0.3702  0.0153
 7438W        W24286   5.731   3.724   0.058 -0.2983 -0.0135  0.0053
 7439W        W24287   3.786   6.850   3.360 -0.0020  0.2852  0.0763
 7440W        W24288   0.041   5.670   5.056 -0.0932 -0.0341  0.0745
 7441W        W24289  16.664   2.517   2.260  0.1053 -0.0671 -0.2988
 7442W        W24290   1.616  17.550   4.934 -0.1982  0.1033  0.2873
 7443W        W24291   7.325   3.860  12.716  0.0727 -0.0943  0.5056
 7444W        W24292  16.871  10.213  11.503 -0.1744  0.3682 -0.0223
 7445W        W24293   7.706  16.566  11.319  0.3514 -0.0518 -0.1380
 7446W        W24294   3.373   2.413  16.137  0.2316  0.1162  0.1053
 7447W        W24295  11.373   3.380   0.714  0.0733 -0.0573 -0.1179
 7448W        W24296   9.899   5.600   2.064 -0.1425  0.0101  0.0747
 7449W        W24297   1.256   7.088   4.107  0.1022  0.0691  0.0966
 7450W        W24298   9.857  14.628  14.082  0.1418 -0.0187  0.2129
 7451W        W24299   6.416  16.045   2.860  0.1090 -0.0833 -0.3764
 7452W        W24300   1.395  16.463  15.728  0.2669 -0.0548  0.1051
 7453W        W24301  15.755  12.303   1.031 -0.3202 -0.1368  0.1259
 7454W        W24302   2.763   0.608  14.734  0.0969 -0.0388  0.1973
 7455W        W24303  17.439   7.264   3.036 -0.2064  0.0018  0.0091
 7456W        W24304  10.435   1.090  11.842  0.0223  0.3738 -0.1892
 7457W        W24305   3.358  12.694   1.644  0.2755  0.2181 -0.0140
 7458W        W24306  17.195   0.643   2.930  0.0506 -0.0339  0.0850
 7459W        W24307   5.877  12.998  15.735 -0.2153 -0.0561  0.1073
 7460W        W24308   8.340  12.888  13.100 -0.0100  0.3561 -0.1522
 7461W        W24309   6.758   7.723   2.583  0.0325  0.0870 -0.2851
 7462W        W24310   1.487   0.783   2.165 -0.0296 -0.2151  0.2927
 7463W        W24311   0.990   4.575  13.350 -0.1169 -0.2026 -0.1272
 7464W        W24312  11.229   5.679   4.935  0.3112  0.2064 -0.5153
 7465W        W24313   5.993   6.512   3.578 -0.1813 -0.3499 -0.1205
 7466W        W24314   1.382   5.705   4.486  0.6089  0.0742  0.1042
 7467W        W24315   2.109   8.913   0.654  0.0131  0.0965  0.3712
 7468W        W24316   6.911   6.236   5.202  0.1209  0.1162 -0.0601
 7469W        W24317   6.325  10.619  14.553 -0.3210  0.0946 -0.0673
 7470W        W24318  15.195  16.683   3.516 -0.0520  0.1516 -0.1887
 7471W        W24319   7.786  15.892   1.595  0.3923  0.0401 -0.3696
 7472W        W24320   5.135   2.657   3.611  0.0633  0.0886  0.2660
 7473W        W24321   1.820   1.614   4.480  0.2973 -0.1582 -0.0012
 7474W        W24322   2.101   4.279  14.812  0.3019  0.3855 -0.2153
 7475W        W24323  11.427   9.759   5.858 -0.3500  0.1725  0.2386
 7476W        W24324   5.856  12.109  13.436 -0.2740 -0.0197  0.3230
 7477W        W24325  14.422  17.198   1.292 -0.0777 -0.1315 -0.1810
 7478W        W24326   0.202   0.386   4.699  0.1185 -0.3052  0.0584
 7479W        W24327   3.064  15.399   3.804  0.2388 -0.2062 -0.3238
 7480W        W24328  17.744  13.775   2.889 -0.2969 -0.0373  0.0887
 7481W        W24329  10.762  15.250   4.266  0.0726 -0.0903  0.2892
 7482W        W24330   1.776  10.929   0.122 -0.0333  0.2191 -0.2493
 7483W        W24331  11.997   8.185   5.649  0.2311  0.1813 -0.0007
 7484W        W24332   0.337  12.493   3.729  0.1045  0.0037 -0.1235
 7485W        W24333   4.575   4.972   1.048  0.1333  0.3027  0.1248
 7486W        W24334  11.146   0.666   4.495  0.1288 -0.0072  0.2934
 7487W        W24335   3.442  10.376   5.371  0.1165 -0.2407 -0.1636
 7488W        W24336   7.162   6.164  13.738 -0.0622  0.0777 -0.0323
 7489W        W24337   6.980  13.400   6.075 -0.2602  0.1126 -0.1295
 7490W        W24338  10.357  11.295   2.545  0.1422  0.0783  0.0336
 7491W        W24339   4.793   7.718   1.231 -0.2014 -0.1115 -0.0353
 7492W        W24340  12.211  10.301   2.527  0.1523 -0.1864  0.0800
 7493W        W24341  12.443  13.602   0.073  0.1130 -0.0218  0.1134
 7494W        W24342  16.632  14.958  12.507  0.2903  0.1536 -0.0508
 7495W        W24343   9.170   4.637   3.266 -0.1569  0.0860  0.1234
 7496W        W24344  11.327  16.685   2.767  0.0621  0.1470 -0.2835
 7497W        W24345  11.666   2.397   0.483  0.1305 -0.4401 -0.2151
 7498W        W24346  11.482  13.528  10.750  0.0503 -0.0880 -0.0882
 7499W        W24347   8.335  12.062   2.333  0.1313 -0.1606 -0.0973
 7500W        W24348   9.540   9.001   4.171 -0.1813  0.1003  0.3807
 7501W        W24349  13.217   8.104  15.641 -0.2822 -0.2000  0.1523
 7502W        W24350  16.002  10.507   4.700 -0.0050 -0.0961  0.1897
 7503W        W24351   9.350  13.122   3.614  0.1575 -0.1680  0.1660
 7504W        W24352  17.303   6.938  14.717 -0.3012  0.0910 -0.1874
 7505W        W24353  17.481   4.079   0.916 -0.0625  0.3771 -0.2700
 7506W        W24354   2.892   1.363  14.361 -0.0541  0.0136 -0.1092
 7507W        W24355   4.953  15.401   0.814  0.3511  0.0760 -0.1138
 7508W        W24356   0.103   1.599  13.186  0.1098 -0.1966 -0.2148
 7509W        W24357   6.749  16.033   0.244  0.1510  0.1007  0.1358
 7510W        W24358   2.985  12.144   1.806  0.0388  0.0544 -0.1260
 7511W        W24359   2.752   6.348  14.796  0.1699 -0.4054 -0.1540
 7512W        W24360   7.847   8.810  15.587  0.0538 -0.0554  0.0648
 7513W        W24361   0.183  14.302   4.637  0.0530  0.3057 -0.0737
 7514W        W24362  11.829  14.330  16.088 -0.1725  0.0450 -0.2115
 7515W        W24363   2.938   9.695  14.096  0.3454 -0.0700 -0.1303
 7516W        W24364   7.768   3.506  13.882  0.0452 -0.0974 -0.1006
 7517W        W24365  13.144   4.283  16.252 -0.0473 -0.0239 -0.1956
 7518W        W24366   6.677   9.832  11.753  0.2075  0.0906  0.4583
 7519W        W24367  15.759   9.550   5.538  0.2834  0.2096  0.0983
 7520W        W24368   1.409  17.741   1.330 -0.0503 -0.0508 -0.4889
 7521W        W24369   3.087   2.661  14.954  0.0617  0.0734 -0.1091
 7522W        W24370   0.857   0.415   3.627  0.0748  0.2350  0.1422
 7523W        W24371  17.343   4.407  16.205 -0.0927 -0.1698 -0.2321
 7524W        W24372   6.953  15.049  13.438 -0.0936  0.2027  0.1602
 7525W        W24373   6.198   8.788  16.454 -0.0444 -0.0151  0.1535
 7526W        W24374   5.806   6.621   0.815  0.0340 -0.0449  0.1024
 7527W        W24375   3.934   7.233   4.177  0.1707 -0.1230  0.1461
 7528W        W24376  11.531  11.184  15.412  0.0719  0.2503 -0.2151
 7529W        W24377  12.983   5.290   1.979  0.2173  0.2948  0.1920
 7530W        W24378  14.180   5.491   0.968  0.5213  0.0734  0.1682
 7531W        W24379   6.205   2.457  13.030  0.1548  0.3123  0.2948
 7532W        W24380  14.636  10.229   1.511 -0.1643 -0.2613  0.1440
 7533W        W24381   6.898   5.541   4.391 -0.2283  0.1066 -0.0477
 7534W        W24382   2.690   4.679   4.240 -0.0324 -0.3084  0.1668
 7535W        W24383   2.785   9.188   2.683  0.1790 -0.0871  0.0435
 7536W        W24384   9.030  16.407  15.855  0.1412  0.0024  0.1378
 7537W        W24385   4.355   5.842   2.430 -0.0777  0.1596 -0.2771
 7538W        W24386   8.036   7.346  12.916 -0.0143  0.1839 -0.1754
 7539W        W24387  16.376   5.150  12.010  0.3441 -0.0177  0.1032
 7540W        W24388   0.356  12.020   4.006 -0.3046 -0.2009 -0.0189
 7541W        W24389  11.681  11.499  14.435  0.2735 -0.2584  0.1751
 7542W        W24390  17.345  14.100   2.997  0.1068  0.3198 -0.0805
 7543W        W24391   6.294  13.534  14.052  0.2287  0.3064  0.1986
 7544W        W24392   4.360   4.236   1.975  0.2633 -0.1183  0.0377
 7545W        W24393   7.597  17.074   3.491  0.0921  0.0613 -0.0592
 7546W        W24394  13.759   3.962   3.999 -0.0783  0.1473  0.0846
 7547W        W24395  11.853  12.060  15.740 -0.3047  0.0243 -0.0544
 7548W        W24396  12.230  16.045   0.102  0.0266  0.2190  0.2205
 7549W        W24397  13.201   3.880  12.292 -0.1346  0.0578  0.0914
 7550W        W24398  11.364  10.601   5.628  0.0177 -0.1791  0.0118
 7551W        W24399   9.657  15.299  14.513 -0.0929  0.2973 -0.4164
 7552W        W24400  10.937   7.031  16.395 -0.0168  0.0540  0.2146
 7553W        W24401   8.229   4.080   3.609  0.4105  0.1983 -0.1553
 7554W        W24402  16.468   5.628  11.853  0.1084  0.1932  0.1559
 7555W        W24403  15.876  10.159  11.205 -0.1611 -0.2740  0.0725
 7556W        W24404   9.626   1.319   2.261 -0.1268  0.2032  0.1667
 7557W        W24405   9.225  11.213   1.974  0.1146  0.0542  0.1095
 7558W        W24406   5.315   5.770   1.347  0.0189  0.1299  0.0973
 7559W        W24407  16.080  14.757  16.555  0.0798 -0.0720  0.0800
 7560W        W24408  15.933  11.010   4.813 -0.1560 -0.1081 -0.2459
 7561W        W24409   8.374  14.799  11.638  0.0531  0.0497 -0.0611
 7562W        W24410   1.069  14.297   3.298 -0.2238  0.2065  0.0737
 7563W        W24411   2.277  12.060   2.207 -0.4337  0.1293  0.0414
 7564W        W24412  10.121   9.165  16.409  0.1422 -0.2294  0.6954
 7565W        W24413   2.203  17.086   1.269 -0.1141 -0.1941 -0.3556
 7566W        W24414   0.298   7.001  15.686 -0.0582  0.3093 -0.2449
 7567W        W24415  16.929   5.359   4.023  0.2047  0.1963  0.0502
 7568W        W24416  15.692  14.190   3.707  0.0274  0.0985 -0.0774
 7569W        W24417  14.174  11.133  15.858 -0.1658  0.1682 -0.3700
 7570W        W24418   2.216   4.577  12.588 -0.0268  0.2986 -0.1038
 7571W        W24419  13.143   1.419  15.631  0.1715  0.2666  0.1582
 7572W        W24420  11.086  15.179   2.757 -0.5310 -0.3416 -0.1766
 7573W        W24421  12.637   3.577   3.062 -0.0070  0.1852  0.0008
 7574W        W24422   0.640  11.657  14.668  0.1511  0.0653  0.0704
 7575W        W24423  17.149  17.472   1.367  0.1048  0.0740  0.0908
 7576W        W24424   6.703  15.897   1.172 -0.3051  0.1160 -0.5311
 7577W        W24425   2.713   0.956   0.188 -0.0862  0.1265  0.3249
 7578W        W24426  13.531   1.628   3.862 -0.4469  0.1460 -0.0859
 7579W        W24427   7.008   5.639  10.077  0.2123 -0.0779 -0.1023
 7580W        W24428   2.050  13.349  12.426 -0.0148 -0.1177  0.0946
 7581W        W24429  11.242  13.592   0.837 -0.1172 -0.2848  0.2290
 7582W        W24430  16.104  12.385  13.578 -0.1000 -0.2513 -0.0196
 7583W        W24431  15.879  14.654   0.363 -0.1356  0.2535 -0.1986
 7584W        W24432  14.086   0.179  14.387 -0.2975  0.0723 -0.0607
 7585W        W24433  13.563  10.911  14.572  0.1956 -0.0913 -0.1583
 7586W        W24434  12.933  16.294   3.899  0.1327  0.1101  0.0805
 7587W        W24435   9.458  13.263  12.652  0.0939  0.1135  0.0164
 7588W        W24436  14.845   3.659  12.078  0.0341 -0.1756  0.0134
 7589W        W24437  17.247   2.641  11.634  0.1797  0.0715 -0.2336
 7590W        W24438  13.406   9.505  13.968  0.2277 -0.0527 -0.0284
 7591W        W24439  15.454   1.766  15.452 -0.0776  0.0121  0.3771
 7592W        W24440   9.903   9.776   0.707 -0.2227  0.2199  0.0217
 7593W        W24441   0.600  10.397   3.522  0.1622  0.0219  0.5429
 7594W        W24442  16.666  14.055   0.838 -0.1450  0.0679 -0.0792
 7595W        W24443   4.387   2.243  15.367  0.1884 -0.0129  0.0415
 7596W        W24444  17.133   6.736   0.199  0.3749  0.0319 -0.3252
 7597W        W24445   4.768   2.232  11.530  0.5393  0.0116  0.0018
 7598W        W24446  14.774   8.663  15.912  0.0075 -0.0919  0.1153
 7599W        W24447   4.067   4.146   0.645  0.1514  0.0301 -0.0157
 7600W        W24448   8.296   8.656   5.373 -0.0762 -0.0742  0.4020
 7601W        W24449  15.265   0.963   5.120  0.2213  0.0396 -0.1106
 7602W        W24450  12.497   3.409   5.241 -0.3401  0.0803  0.1293
 7603W        W24451  10.820   7.460   2.633 -0.0951 -0.0746  0.0019
 7604W        W24452   4.236  14.260   1.948  0.0921  0.3308  0.0376
 7605W        W24453   1.952  14.485   3.450  0.2213  0.0150  0.1083
 7606W        W24454   9.722   2.221   2.258 -0.2610  0.2987  0.1711
 7607W        W24455   1.456  10.800  13.933 -0.1218  0.1428 -0.0881
 7608W        W24456   4.123   8.111   3.271  0.2983  0.1359  0.2504
 7609W        W24457   5.166  10.371   2.562  0.7405 -0.0575 -0.0879
 7610W        W24458  14.839  14.568  15.630 -0.2168  0.0663 -0.2264
 7611W        W24459  12.835  13.346  14.381 -0.1255  0.1144  0.2462
 7612W        W24460   0.249  13.380  16.025 -0.0215 -0.1994  0.1722
 7613W        W24461  16.999  17.532   5.165 -0.0049 -0.0600  0.0578
 7614W        W24462   1.841   0.062   1.557 -0.2228  0.0628 -0.1644
 7615W        W24463  16.973   3.016   5.369 -0.0571 -0.0156 -0.1746
 7616W        W24464   5.895   2.991  13.524 -0.0739  0.0860  0.1878
 7617W        W24465   5.786  12.519  11.113  0.0552  0.0883 -0.0283
 7618W        W24466   6.925  16.164   2.063  0.2931  0.1237 -0.0016
 7619W        W24467   3.339  17.238  12.950  0.1103  0.0105  0.0788
 7620W        W24468   0.365   2.447  11.326 -0.0024 -0.2820  0.1341
 7621W        W24469   0.633   5.884   0.927  0.0607 -0.1594 -0.0674
 7622W        W24470  16.568  11.230  12.050 -0.0874 -0.3582 -0.3423
 7623W        W24471  10.585  14.285  11.678  0.3706  0.0958  0.1050
 7624W        W24472   8.811  14.369   2.454  0.0399 -0.0577 -0.0162
 7625W        W24473  16.838  15.954   3.906  0.0810  0.0283  0.2995
 7626W        W24474  15.411   9.501  11.480 -0.0528 -0.0097 -0.0933
 7627W        W24475   5.278   2.829   1.565  0.0395 -0.1553 -0.0793
 7628W        W24476   7.043  17.005  12.943 -0.0549  0.0973 -0.1037
 7629W        W24477   9.522  13.289   4.571 -0.0855 -0.2386 -0.0034
 7630W        W24478   5.087  14.588  14.617  0.1627  0.0640  0.1685
 7631W        W24479  14.216  16.140  11.809 -0.0201 -0.1292  0.0621
 7632W        W24480   0.323   1.991   0.818 -0.0382 -0.1182 -0.1860
 7633W        W24481  13.218  11.494   1.028 -0.1668 -0.0858  0.0065
 7634W        W24482   7.672   9.314   4.687 -0.1681  0.0105  0.0761
 7635W        W24483   1.778  13.958  14.981 -0.0010  0.0671  0.1086
 7636W        W24484  17.619   4.198  11.565 -0.3446  0.1245  0.0017
 7637W        W24485   0.264   9.200  13.757  0.3193 -0.0438  0.3642
 7638W        W24486  16.579  10.752   5.391  0.1770 -0.0281  0.0344
 7639W        W24487   2.581  16.272  12.039  0.0051  0.1559  0.1043
 7640W        W24488   9.749   5.434   1.167  0.1371 -0.0074  0.0991
 7641W        W24489  13.460  15.772  13.927 -0.2260 -0.1550 -0.2764
 7642W        W24490   6.829  10.759   1.802  0.1630  0.2678  0.1830
 7643W        W24491   1.401   1.915   3.147  0.0120  0.0549 -0.0052
 7644W        W24492   7.592   4.927  15.808 -0.0640 -0.3585  0.1622
 7645W        W24493  12.299   1.727  12.979 -0.3318  0.0966 -0.3303
 7646W        W24494   7.232   5.826  14.669 -0.1236  0.3596 -0.1455
 7647W        W24495   8.252  17.438  14.079  0.2307 -0.0256 -0.0569
 7648W        W24496  15.968   7.165   1.141  0.1809  0.3143  0.2919
 7649W        W24497   1.148  13.140   0.765  0.1188  0.2859 -0.0555
 7650W        W24498  15.321  15.173  12.443 -0.1993  0.0456 -0.0111
 7651W        W24499   7.075   6.569  13.347  0.1005 -0.2142 -0.2650
 7652W        W24500   2.299  11.906  13.340  0.2751  0.1783 -0.0378
 7653W        W24501   9.579  11.049   2.837 -0.0553 -0.2371  0.2159
 7654W        W24502   1.984   3.788   1.720  0.2865  0.3001  0.0523
 7655W        W24503   2.904   1.453  13.070  0.1744  0.0733  0.0822
 7656W        W24504   5.564   2.039  16.274 -0.4144  0.0192 -0.2565
 7657W        W24505  11.191  10.065  14.102 -0.0550  0.0891  0.0868
 7658W        W24506   4.805   2.027   3.899  0.3237 -0.0628 -0.0837
 7659W        W24507  14.447   1.623   0.488  0.0190 -0.2739 -0.0251
 7660W        W24508   9.970  14.998  13.732  0.1282 -0.2465 -0.2451
 7661W        W24509  15.984   2.196   4.302  0.0692 -0.0466  0.3906
 7662W        W24510  11.776   6.454  14.803 -0.0722  0.0692  0.0921
 7663W        W24511  16.059  16.764  15.499 -0.2243  0.2636 -0.1684
 7664W        W24512   4.518   9.024   1.647 -0.3229  0.0489  0.2175
 7665W        W24513   3.152   4.801  14.348 -0.0235  0.0933 -0.2281
 7666W        W24514   9.513  16.479   2.874 -0.2124  0.3926 -0.1480
 7667W        W24515  15.842   1.924  11.757  0.0788 -0.0239  0.0428
 7668W        W24516   1.343  13.669  10.841 -0.1320 -0.4065  0.3226
 7669W        W24517  15.949  16.107  13.512 -0.2325 -0.1547 -0.0585
 7670W        W24518  12.264   4.710  16.179 -0.0738 -0.2711 -0.0105
 7671W        W24519  11.982  10.205   0.374  0.1744  0.0904 -0.1170
 7672W        W24520  12.267   5.022   2.708 -0.1412  0.1305 -0.1675
 7673W        W24521  11.547   2.333  15.581  0.1200  0.1881 -0.2765
 7674W        W24522   7.095  14.279  16.163  0.1954 -0.0263  0.3026
 7675W        W24523  17.162  14.743   3.558 -0.0540 -0.3216 -0.0044
 7676W        W24524  17.647  13.048   3.823  0.2308 -0.0884 -0.1262
 7677W        W24525   8.436  12.614  11.475 -0.1607  0.3020  0.0598
 7678W        W24526   2.127   1.155   1.693 -0.3219 -0.3364 -0.2171
 7679W        W24527   1.406  13.524   4.373 -0.4133  0.0239 -0.3018
 7680W        W24528   6.634   9.157  13.612  0.1893 -0.0150 -0.1013
 7681W        W24529   7.076  17.492   2.317  0.0337  0.0777 -0.0072
 7682W        W24530  14.233   9.816   3.824 -0.2682 -0.1704  0.1273
 7683W        W24531   2.744   6.842  15.515  0.0466  0.1915 -0.1338
 7684W        W24532  17.773   8.757  11.935 -0.0220  0.0657  0.1228
 7685W        W24533   2.076   6.149   1.138 -0.3503 -0.0910  0.2921
 7686W        W24534  16.558   3.143   0.649  0.1397  0.3204 -0.1193
 7687W        W24535  17.473  11.972   3.556 -0.1240  0.1175 -0.0923
 7688W        W24536   8.204   7.891  12.739 -0.0604 -0.3327 -0.3573
 7689W        W24537  12.267  11.319   1.128  0.3237 -0.1801  0.1999
 7690W        W24538   5.266   2.398  14.127  0.1992 -0.0944  0.2195
 7691W        W24539   8.737   0.793  13.982 -0.1565  0.2362 -0.1785
 7692W        W24540  13.034   8.801  14.027  0.2543  0.0679 -0.0924
 7693W        W24541   6.316   0.462   0.310 -0.3205  0.3660 -0.5001
 7694W        W24542  11.306   6.478   2.256  0.1844  0.0354 -0.0887
 7695W        W24543   9.421  14.911   2.614 -0.0442 -0.0351 -0.3705
 7696W        W24544   4.195   7.100  15.745  0.0239 -0.0058  0.2772
 7697W        W24545  17.195   6.791  13.837  0.2414  0.3222  0.0035
 7698W        W24546  14.083  17.168   5.151 -0.0817 -0.0291 -0.3546
 7699W        W24547  10.280   6.687   5.417  0.2469  0.0342  0.0772
 7700W        W24548   0.889  11.810  12.465 -0.0443  0.2587 -0.0250
 7701W        W24549   2.195  13.782  11.041  0.0371 -0.1529 -0.1887
 7702W        W24550  15.970   9.279   4.172 -0.1153 -0.1324 -0.0747
 7703W        W24551  11.321   9.833   1.718 -0.2730 -0.2184 -0.3202
 7704W        W24552   9.497   3.221   2.309 -0.2718 -0.1367  0.0461
 7705W        W24553  15.008  10.476  14.600  0.1049 -0.0640 -0.0582
 7706W        W24554   9.178  14.100   5.051 -0.1652  0.1521  0.0456
 7707W        W24555  13.410  17.092  15.883  0.1564 -0.2524 -0.0097
 7708W        W24556  11.079   9.864   1.116 -0.0176  0.0273  0.1409
 7709W        W24557  15.523  17.403  14.064 -0.3180  0.0521 -0.0698
 7710W        W24558   1.703   0.154  16.345  0.1727 -0.2945  0.1207
 7711W        W24559   0.301  16.490   3.583  0.1287  0.0934 -0.0669
 7712W        W24560  13.778  13.298  15.886  0.0643 -0.0173  0.0673
 7713W        W24561  17.683   6.648  14.835  0.0814  0.3703  0.1197
 7714W        W24562  10.446   2.873  16.527  0.0308  0.0051 -0.2965
 7715W        W24563   1.464   4.713  11.005  0.1298  0.0137  0.3985
 7716W        W24564   8.779   6.013   1.844  0.1562  0.0200 -0.1007
 7717W        W24565  17.701   9.731   4.187 -0.0355 -0.0794 -0.0792
 7718W        W24566   1.426   4.370   4.824 -0.5415  0.0850 -0.0371
 7719W        W24567  15.942   5.924   1.439 -0.2069  0.2264 -0.0195
 7720W        W24568   3.600   0.033  11.287 -0.0430 -0.0674 -0.2302
 7721W        W24569  16.986   1.573  14.235  0.0212  0.1643 -0.0055
 7722W        W24570  15.535   3.884  12.354  0.0390 -0.2535  0.0262
 7723W        W24571   4.640  10.807   1.935  0.1473 -0.0324 -0.1787
 7724W        W24572   8.719  13.380   2.526 -0.1367  0.2411 -0.1395
 7725W        W24573   7.334   0.697   4.321  0.0922 -0.0559  0.0034
 7726W        W24574   8.289   1.206  11.954 -0.1553  0.0246  0.0879
 7727W        W24575   3.433  13.875   0.125 -0.0150 -0.1434 -0.0855
 7728W        W24576  16.358   6.987   4.277 -0.2695  0.0052 -0.3349
 7729W        W24577  13.443   4.231   0.838  0.1928 -0.1413 -0.0177
 7730W        W24578  11.678  17.490   1.823 -0.0568 -0.0882  0.1547
 7731W        W24579  12.685   7.425   2.508  0.0563  0.0101 -0.2345
 7732W        W24580  11.764  12.286  12.348  0.0614  0.0078  0.0123
 7733W        W24581   1.916   3.796  11.333 -0.5258 -0.3102 -0.1023
 7734W        W24582   4.294   9.574   1.017  0.1431  0.0822 -0.0890
 7735W        W24583   9.556  16.589   4.598  0.0639 -0.2936  0.0508
 7736W        W24584   4.940  10.384   4.507  0.0372 -0.0406 -0.0648
 7737W        W24585   5.403   9.545  16.354 -0.0708 -0.1268 -0.1066
 7738W        W24586   9.927   0.838   0.530  0.1711  0.0846  0.0484
 7739W        W24587   0.508   4.079   4.593  0.2715 -0.0622  0.1388
 7740W        W24588  15.593  15.537   5.096 -0.1034 -0.3098 -0.1457
 7741W        W24589   4.711   2.640   0.316 -0.0679  0.0979  0.0239
 7742W        W24590   1.497  16.143   4.590 -0.1986 -0.2754 -0.0731
 7743W        W24591   8.819   6.820  11.672 -0.0418 -0.0734  0.3303
 7744W        W24592   8.303   3.449   4.924  0.2006  0.4113 -0.0408
 7745W        W24593   5.689   8.815   3.739 -0.0018 -0.0502 -0.1388
 7746W        W24594  16.855  14.472  11.944  0.1742 -0.0669 -0.1584
 7747W        W24595  15.010  15.022  15.761 -0.2036  0.0246  0.0753
 7748W        W24596  14.559  14.411   4.902  0.0837 -0.0131 -0.0918
 7749W        W24597  15.115  11.959   1.752 -0.1502  0.0756 -0.0811
 7750W        W24598  12.868   3.341   4.832  0.2554  0.0175  0.1108
 7751W        W24599   6.719  15.542   4.907  0.0413 -0.2795 -0.0295
 7752W        W24600   4.798   1.580   4.628 -0.3181 -0.3333  0.1465
 7753W        W24601   9.237  16.252   6.396 -0.0139 -0.3010  0.0424
 7754W        W24602  10.863   1.333   3.809  0.2116 -0.0386  0.0572
 7755W        W24603   1.260   5.083  13.313  0.2111 -0.0978  0.0331
 7756W        W24604   9.872   7.822   4.298  0.0729 -0.1088 -0.0372
 7757W        W24605  12.293  12.481   4.146  0.0551  0.4550  0.0886
 7758W        W24606   5.612   2.545   1.799  0.0794  0.1373 -0.1597
 7759W        W24607  16.608   9.655   1.612  0.2345 -0.1204 -0.0793
 7760W        W24608   0.639   9.703  14.563  0.0151 -0.0361 -0.0719
 7761W        W24609  15.095  15.876  13.202  0.0082  0.3457  0.0973
 7762W        W24610  15.916   2.231   0.870  0.1185 -0.0086  0.0085
 7763W        W24611   1.925   3.010  13.457 -0.3001  0.1554 -0.2258
 7764W        W24612  15.636  15.523  11.147 -0.0122 -0.0206  0.0280
 7765W        W24613  14.328   7.185   1.886  0.0913 -0.0155  0.0447
 7766W        W24614  15.440  14.025  15.018 -0.1830 -0.0055  0.0777
 7767W        W24615   6.057   2.709   0.927 -0.1410  0.1491  0.2260
 7768W        W24616   2.648   7.396  15.642  0.1292 -0.0105 -0.0624
 7769W        W24617  15.249   4.448  16.394  0.1383 -0.3127 -0.0276
 7770W        W24618  15.907  12.472   2.228 -0.0934  0.1432 -0.2006
 7771W        W24619  11.204   7.618   4.819 -0.2484 -0.2343 -0.2630
 7772W        W24620   2.697   4.686  11.900  0.2702  0.2414  0.0347
 7773W        W24621   2.508   0.437   1.306 -0.4260 -0.0216  0.2648
 7774W        W24622  15.518   7.450   0.973  0.3387 -0.2396 -0.0426
 7775W        W24623  16.980   0.182  13.000  0.4014 -0.0593 -0.0811
 7776W        W24624  13.712   3.026  14.234  0.0581  0.0507 -0.3041
 7777W        W24625  17.219   0.928  13.499 -0.0091 -0.0991 -0.0260
 7778W        W24626   1.820   6.787   3.449 -0.2521 -0.1240 -0.0473
 7779W        W24627  13.624   6.281   4.247 -0.1746  0.1822  0.4015
 7780W        W24628   5.566   1.288  11.228  0.2525  0.0151  0.2246
 7781W        W24629   2.959  12.034   2.807  0.0671 -0.1553 -0.0972
 7782W        W24630   4.126   8.990   0.846 -0.0200  0.2562  0.0309
 7783W        W24631   6.741   6.097  11.537  0.2209 -0.1248  0.1162
 7784W        W24632  17.052  17.328  11.397  0.3022  0.0563  0.3010
 7785W        W24633  13.544  14.028  11.947 -0.0240  0.3075 -0.1341
 7786W        W24634  12.819   1.199   2.792  0.1421  0.1467 -0.0295
 7787W        W24635   9.791  14.938  14.918  0.2076 -0.1290  0.0505
 7788W        W24636   3.427  10.451  13.751 -0.0694 -0.1805  0.2492
 7789W        W24637   8.048   4.029   4.136 -0.0086  0.1394  0.0722
 7790W        W24638  13.476   7.787  16.265  0.0519  0.0414 -0.0113
 7791W        W24639   4.501  12.249  15.334 -0.1318  0.0934  0.0513
 7792W        W24640   2.946   4.184  13.237  0.1289 -0.0228  0.0376
 7793W        W24641   2.090   2.153  15.149  0.0015  0.1749 -0.1546
 7794W        W24642   5.296  17.712   0.354  0.1624  0.0457 -0.1019
 7795W        W24643   4.886   7.435  13.944 -0.0580 -0.3567 -0.0538
 7796W        W24644   5.733  14.508  11.108 -0.2576  0.2355 -0.1713
 7797W        W24645   1.749  10.420   1.044 -0.0648  0.1150  0.2711
 7798W        W24646  12.494  10.285   2.095  0.4205  0.2644 -0.2302
 7799W        W24647   8.071  11.384   0.101 -0.0583  0.3443 -0.1601
 7800W        W24648  13.503  17.328  14.444 -0.0754 -0.0552  0.2104
 7801W        W24649   9.569   9.017  15.720 -0.3178 -0.0105 -0.2182
 7802W        W24650   6.645  11.061   1.129  0.0360 -0.1734 -0.0378
 7803W        W24651  12.584  15.999  12.600  0.1571  0.1631  0.0775
 7804W        W24652   2.101   2.542   3.994  0.2357  0.3021 -0.0047
 7805W        W24653   3.604   5.354  15.216  0.0581 -0.2801 -0.0446
 7806W        W24654   9.622   5.159  15.045  0.0439  0.2538 -0.0714
 7807W        W24655   9.281  11.009   6.422  0.2023 -0.0663  0.2258
 7808W        W24656   1.607   3.972  12.497  0.1202 -0.0901 -0.0005
 7809W        W24657   5.788  17.592   5.704  0.0916  0.3925 -0.0613
 7810W        W24658   3.794   0.890  14.594 -0.4257  0.2499  0.0682
 7811W        W24659  10.391   3.459   5.636 -0.0447  0.0481  0.0142
 7812W        W24660   4.653  13.936   2.959 -0.1607 -0.3079 -0.0252
 7813W        W24661   5.659  17.665  13.917  0.0920  0.0295 -0.3558
 7814W        W24662   0.776  17.016  14.314 -0.0042  0.0007 -0.0267
 7815W        W24663   7.730  15.274  16.254  0.0384  0.1646  0.2286
 7816W        W24664   1.378   7.910  12.020  0.0075 -0.1860 -0.0049
 7817W        W24665   2.755  16.075   2.691 -0.1206  0.0803 -0.3516
 7818W        W24666   1.788   8.527   3.108 -0.1670 -0.1485 -0.1924
 7819W        W24667  15.512   4.475  12.498 -0.0527  0.0529  0.2594
 7820W        W24668   5.541   1.643   1.766  0.0762  0.4936 -0.0199
 7821W        W24669   8.006   5.017   0.415 -0.2627 -0.0873  0.1586
 7822W        W24670   8.366   2.576  15.301  0.0014 -0.1737  0.2646
 7823W        W24671   7.470  15.537   0.945  0.1517  0.3305  0.0341
 7824W        W24672   0.409   4.697   4.666  0.2200 -0.2899 -0.1973
 7825W        W24673   8.635  11.926  14.614  0.2404 -0.0534  0.0241
 7826W        W24674   7.897  13.928   1.072  0.0164  0.0716  0.0329
 7827W        W24675  17.489   7.762  14.127  0.1197  0.1324  0.2281
 7828W        W24676   1.854   5.765  15.732  0.2885  0.0905 -0.1153
 7829W        W24677   9.342  11.423  14.723  0.1677 -0.0009  0.3005
 7830W        W24678  10.678  11.950  11.329 -0.1958 -0.1309  0.1264
 7831W        W24679  11.786  12.592   2.075 -0.4914 -0.1079 -0.0062
 7832W        W24680  10.096  17.815   4.751  0.0256  0.0107 -0.0402
 7833W        W24681   3.946   7.214   3.623 -0.0259  0.2801 -0.2361
 7834W        W24682   3.864   5.388  14.321  0.1993 -0.0369 -0.0074
 7835W        W24683  15.208  17.128   1.173 -0.3931 -0.0668  0.1228
 7836W        W24684   3.648  17.386  16.274  0.0169  0.0221  0.0716
 7837W        W24685   2.385   2.466  11.678 -0.2073  0.0313  0.0601
 7838W        W24686   8.215  17.427   1.830  0.0582  0.1695 -0.1264
 7839W        W24687  14.338   9.505   2.092  0.2283  0.1036  0.2397
 7840W        W24688   4.824   8.080  13.088 -0.1245  0.2873  0.1693
 7841W        W24689   6.504   8.398  11.461  0.1772  0.0005  0.1141
 7842W        W24690  12.644   6.600  14.188  0.1381 -0.0360  0.0122
 7843W        W24691  13.206   0.880   4.956 -0.1409 -0.0228  0.1096
 7844W        W24692  16.123   6.773  14.224 -0.0614  0.1212 -0.4095
 7845W        W24693   1.078   4.664   4.643  0.2469 -0.3147  0.1419
 7846W        W24694   0.389   2.763  13.795 -0.1012 -0.1169  0.2774
 7847W        W24695   6.556  12.409  16.198  0.2472  0.1808  0.0677
 7848W        W24696   5.715   6.284   0.378 -0.1128  0.1855  0.0864
 7849W        W24697  13.159  14.055  16.042  0.1078 -0.1348  0.1984
 7850W        W24698  10.035   5.460   0.768 -0.0277  0.1125 -0.0425
 7851W        W24699  11.174  11.724  13.605 -0.0913 -0.0503  0.0360
 7852W        W24700   8.773  12.700   4.513  0.5080 -0.0190  0.0645
 7853W        W24701   8.412  12.110  14.981 -0.3719 -0.0450 -0.0037
 7854W        W24702  17.835   9.757   1.454 -0.0710  0.2456 -0.3721
 7855W        W24703  11.849   7.375   3.546 -0.1930  0.1851 -0.0258
 7856W        W24704  10.327   0.357   4.985  0.0902 -0.2208  0.1018
 7857W        W24705  17.650  15.476  15.545  0.1845 -0.2739 -0.0533
 7858W        W24706  14.472   1.623   2.920 -0.0312  0.0740  0.1918
 7859W        W24707   6.111   6.793   4.911 -0.2620  0.3225  0.0682
 7860W        W24708  12.523  17.684  12.849 -0.2462 -0.1299 -0.1449
 7861W        W24709   2.801   9.533   3.024 -0.0095 -0.2839  0.2783
 7862W        W24710  17.827  16.509   0.352  0.1153 -0.0697 -0.2102
 7863W        W24711   0.447  10.513   1.592 -0.0267  0.1002 -0.1427
 7864W        W24712   1.381  16.386   4.151 -0.2927  0.2787  0.1888
 7865W        W24713  13.141   5.416   3.471  0.1369 -0.1345  0.0822
 7866W        W24714  14.674   3.398  15.158 -0.0358 -0.0101  0.1006
 7867W        W24715   2.067  17.812  12.902  0.1498 -0.0063  0.2238
 7868W        W24716   1.332  17.567  16.566  0.1767 -0.0935 -0.0892
 7869W        W24717   7.815  12.240   4.077  0.0728  0.1351  0.5022
 7870W        W24718  12.472  14.474  15.299 -0.0072  0.3267  0.1958
 7871W        W24719   4.861  11.510   1.024  0.0593 -0.1027 -0.1111
 7872W        W24720   5.876  10.338  12.802 -0.0730 -0.2835 -0.1076
 7873W        W24721  10.600  12.600   3.169 -0.1197 -0.1322  0.1973
 7874W        W24722   5.940  14.319  15.007  0.1937 -0.1713  0.1027
 7875W        W24723   2.643  11.786   2.456 -0.1308 -0.3926  0.2078
 7876W        W24724   4.490  16.475  12.152 -0.0477 -0.3189 -0.0198
 7877W        W24725  12.009  11.727  15.325  0.0636  0.2583 -0.0281
 7878W        W24726   3.045   3.893  16.309 -0.2534  0.1339 -0.1188
 7879W        W24727  14.116   7.807  11.592 -0.0723 -0.0748 -0.1767
 7880W        W24728  11.133  12.489   0.708 -0.1459 -0.0934 -0.1418
 7881W        W24729   4.983   8.598  11.342  0.0684 -0.0434 -0.4448
 7882W        W24730   2.047   1.812  11.863  0.0513  0.2034 -0.2217
 7883W        W24731   8.125  12.949   3.354  0.1646  0.4077  0.1036
 7884W        W24732   2.819   8.523  13.548 -0.0057  0.1851 -0.0793
 7885W        W24733   9.579  16.375  14.018  0.2459  0.4325 -0.0659
 7886W        W24734   7.334   3.360  15.200  0.1194  0.0660 -0.0248
 7887W        W24735  15.471   3.056  13.770  0.1052  0.3361 -0.1095
 7888W        W24736   6.853  11.255  16.092  0.2638 -0.2276  0.1485
 7889W        W24737  12.032  12.968  10.399 -0.0511  0.1873  0.1224
 7890W        W24738  11.609  10.848   3.109 -0.0578 -0.0433  0.2859
 7891W        W24739   2.881   3.492   0.916  0.3657 -0.0810  0.1301
 7892W        W24740   6.884  16.347  13.107  0.2004 -0.1082  0.0713
 7893W        W24741   2.107   0.607   1.573 -0.3587  0.2172  0.1616
 7894W        W24742   2.376  16.757  13.270  0.1052  0.2268  0.4602
 7895W        W24743   3.980   6.001  13.046  0.1539  0.1830  0.0758
 7896W        W24744   3.450  12.955  14.547 -0.0549 -0.2193  0.2069
 7897W        W24745   9.947   8.865  14.449 -0.0978 -0.2876 -0.2892
 7898W        W24746   2.271   1.798  12.308 -0.3178 -0.2450 -0.1894
 7899W        W24747  11.780  15.737   4.021  0.0763  0.0917  0.0003
 7900W        W24748   2.496   2.187  14.114 -0.3553  0.1285 -0.1049
 7901W        W24749  14.642   5.326  14.135 -0.2171 -0.0112 -0.3201
 7902W        W24750   4.721   4.907  12.946 -0.4092  0.1689 -0.0343
 7903W        W24751   8.151   1.115  15.826 -0.0310 -0.5019  0.1748
 7904W        W24752   0.576   0.415  15.139  0.3019 -0.0119  0.0031
 7905W        W24753   7.113  13.187  11.327 -0.1629 -0.2584  0.0827
 7906W        W24754  16.389  11.473   5.026  0.2432  0.1831  0.2532
 7907W        W24755  15.507  15.958   5.273 -0.0421 -0.1709 -0.0689
 7908W        W24756  10.429   0.373  14.336 -0.1882  0.1211 -0.2963
 7909W        W24757   0.315  10.216  11.221 -0.1918 -0.1878  0.0992
 7910W        W24758  11.028  12.070   5.255 -0.1023 -0.1276 -0.0004
 7911W        W24759  14.777   3.672   5.509  0.3961 -0.1736 -0.0755
 7912W        W24760  17.815   0.591   3.641 -0.0929 -0.0967  0.3302
 7913W        W24761  13.031  12.613  14.000 -0.2043  0.4101 -0.1423
 7914W        W24762   3.061   0.923  11.950  0.2796 -0.0913 -0.1389
 7915W        W24763   1.902  14.081  11.994  0.2633  0.0396  0.4800
 7916W        W24764  12.783  15.477  13.166 -0.1433  0.1316 -0.0775
 7917W        W24765  15.394  12.789  13.360 -0.0353 -0.1928 -0.1012
 7918W        W24766  12.292   4.088   3.877  0.1091 -0.0175  0.0147
 7919W        W24767   7.630  17.284  13.435 -0.0379 -0.1758 -0.4256
 7920W        W24768   7.490   8.116   2.541 -0.0270 -0.0059  0.2130
 7921W        W24769   3.484  11.800   3.440 -0.2039 -0.0796 -0.0775
 7922W        W24770  16.657   8.057  12.995  0.4693 -0.2335  0.0733
 7923W        W24771   5.104   4.298   3.400 -0.0275  0.2973  0.3446
 7924W        W24772  12.667  12.643  14.391  0.0806  0.0743  0.2660
 7925W        W24773  13.484   3.397   0.482  0.3003  0.0975  0.1554
 7926W        W24774   0.052   2.702   4.486 -0.1018 -0.0997 -0.0283
 7927W        W24775  11.592  14.779   1.627  0.3852 -0.0524  0.0133
 7928W        W24776   7.799  17.769  15.239  0.1213  0.2830 -0.0325
 7929W        W24777  12.790   5.572  11.512  0.2293 -0.3011 -0.1563
 7930W        W24778   5.940  16.608   4.033  0.2639  0.2347 -0.2871
 7931W        W24779  11.210  12.048  15.095 -0.0500  0.2457 -0.0777
 7932W        W24780   5.359  10.577  11.434 -0.1625 -0.2642  0.0457
 7933W        W24781   7.629   3.359  12.585  0.1839 -0.2096 -0.2051
 7934W        W24782   1.222  12.465  13.636 -0.0100 -0.0744  0.2057
 7935W        W24783  11.187   9.463  12.074  0.2082  0.0769 -0.1453
 7936W        W24784  12.418   2.836  12.370 -0.0206  0.0750  0.1466
 7937W        W24785  11.793  13.774  13.231  0.2276  0.2927  0.3617
 7938W        W24786   3.109  16.276  15.960  0.3088 -0.0951  0.1589
 7939W        W24787   8.804   2.136   0.350 -0.0869 -0.0359  0.0511
 7940W        W24788   3.439  13.447  14.900  0.3922 -0.0444  0.5050
 7941W        W24789   2.352  14.998  13.742 -0.1146  0.0055 -0.2973
 7942W        W24790   4.541   2.691  12.286  0.3611 -0.1887 -0.0736
 7943W        W24791  10.479  13.000  16.204 -0.1757 -0.0357 -0.1352
 7944W        W24792  11.903  10.412  15.086 -0.0540 -0.2584 -0.3179
 7945W        W24793   0.775   1.858   1.708  0.1410 -0.2820  0.1397
 7946W        W24794   0.820   3.552  14.416  0.2636  0.0768  0.1675
 7947W        W24795   0.611   6.119   3.539  0.1996  0.0025  0.1368
 7948W        W24796  10.303   5.720  10.810  0.1621  0.2463 -0.0242
 7949W        W24797  11.532   2.276  14.126 -0.3021  0.2670 -0.1677
 7950W        W24798  12.235   8.045   1.391  0.0905 -0.1694  0.1163
 7951W        W24799   2.628  17.268   1.383 -0.4728  0.2336  0.1482
 7952W        W24800  13.981   4.058   3.535 -0.1864  0.2421 -0.0080
 7953W        W24801   9.393  10.316  15.231 -0.0495  0.0564 -0.1561
 7954W        W24802   8.798  13.795  15.182 -0.0014  0.2572  0.1463
 7955W        W24803   5.068   2.321  16.071 -0.0356 -0.1998  0.3106
 7956W        W24804   7.914   0.721   4.981 -0.0770 -0.4133 -0.1374
 7957W        W24805   3.286  13.115  16.069  0.2373  0.3606  0.0872
 7958W        W24806  10.311  11.774   3.556  0.2372  0.1640 -0.0333
 7959W        W24807   2.047   3.397   2.006 -0.0398  0.2445 -0.2380
 7960W        W24808  15.809   6.653  11.254 -0.0228 -0.2078  0.3019
 7961W        W24809   7.750  15.011  10.752 -0.0229 -0.0538 -0.0242
 7962W        W24810  12.366  11.904  14.942  0.0345  0.1730 -0.0097
 7963W        W24811  15.217   2.824   0.335  0.2730 -0.0300 -0.0419
 7964W        W24812  16.207  17.069   0.577 -0.2384  0.0713  0.3264
 7965W        W24813   7.489   2.497  13.673 -0.1181  0.1312  0.0478
 7966W        W24814  13.956   8.418   2.073  0.0214 -0.3558 -0.3463
 7967W        W24815   5.993  12.642  12.641  0.0073 -0.2731  0.0360
 7968W        W24816   4.749  11.403  11.527  0.0965  0.0697 -0.1451
 7969W        W24817  13.539   7.047  15.670  0.0884 -0.0540 -0.1219
 7970W        W24818  17.062   2.274  14.578 -0.0750  0.1302 -0.0571
 7971W        W24819  17.141   9.343  14.129 -0.0643  0.0370  0.2347
 7972W        W24820   8.158  15.155   0.679  0.2222  0.1200  0.1897
 7973W        W24821  12.944  16.084   0.669  0.2492  0.2058  0.0281
 7974W        W24822   2.601   0.056   0.591 -0.2739 -0.0125  0.0572
 7975W        W24823  11.139   6.686  15.354  0.1100  0.3522  0.1576
 7976W        W24824   8.406  11.979  11.094  0.2603  0.1021  0.3462
 7977W        W24825  17.529   5.362  13.306 -0.0966  0.0443  0.0969
 7978W        W24826   8.454  12.879  15.384 -0.1009  0.1879 -0.3351
 7979W        W24827  10.469   0.971  14.758  0.3885  0.0497  0.2149
 7980W        W24828  11.141   2.998  15.985 -0.3981  0.1004  0.0901
 7981W        W24829  14.093   7.504  13.336  0.0979 -0.2143  0.2326
 7982W        W24830  10.262   3.988   0.641 -0.2416  0.0988 -0.1897
 7983W        W24831   5.051   7.252   1.220 -0.0077  0.1612  0.2169
 7984W        W24832   0.172  12.173  13.066  0.0377  0.0740 -0.0974
 7985W        W24833   9.563  11.274   0.937  0.0660  0.0442 -0.0094
 7986W        W24834  10.969  11.155   4.944  0.0352  0.3858 -0.1192
 7987W        W24835   8.092  10.985   5.169  0.3654  0.0123  0.0956
 7988W        W24836  11.819   1.573   1.911  0.1945 -0.1440 -0.1090
 7989W        W24837  17.042  12.166   3.632  0.1171 -0.2877 -0.0989
 7990W        W24838   7.131  17.648  15.918 -0.3275  0.2125  0.1701
 7991W        W24839  14.086   3.292   1.416  0.0641  0.1547 -0.4382
 7992W        W24840  12.781   2.146   2.383 -0.0685  0.0978 -0.0482
 7993W        W24841  10.120   4.132  16.440  0.2351  0.0957  0.2460
 7994W        W24842  14.291   1.857  13.503  0.0281 -0.1736 -0.1837
 7995W        W24843   6.993  15.686  14.736 -0.0702  0.1002  0.4145
 7996W        W24844  16.025  15.641   0.354 -0.0047 -0.1216 -0.1981
 7997W        W24845   0.086   0.721   4.173 -0.1002 -0.0190  0.1652
 7998W        W24846  11.837   9.036  14.473  0.0519 -0.0589 -0.1524
 7999W        W24847   1.617   0.358   3.059 -0.2870  0.2154 -0.1574
 8000W        W24848   0.982  17.343  14.037 -0.3622 -0.1203 -0.0538
 8001W        W24849  10.925   8.877  14.874  0.0927 -0.1409  0.2645
 8002W        W24850   3.856  12.462   4.967  0.0413  0.1055  0.3042
 8003W        W24851   5.654   3.142   2.422 -0.1294  0.0807 -0.0180
 8004W        W24852  15.339  13.085  12.403  0.0491 -0.0425 -0.3822
 8005W        W24853   0.609  15.124   5.584  0.2289  0.4559 -0.1189
 8006W        W24854   4.760  10.529   1.158  0.1356 -0.2869 -0.2103
 8007W        W24855   8.279   9.235   2.991 -0.1591  0.1264 -0.1695
 8008W        W24856  17.683   9.693  11.999  0.1765 -0.2162  0.1603
 8009W        W24857   8.714  12.263   4.167  0.0692  0.1772  0.0021
 8010W        W24858  14.306  17.701  15.866 -0.1162  0.0519 -0.2996
 8011W        W24859   5.644  14.417   0.762 -0.1058 -0.2909  0.0296
 8012W        W24860  15.935   7.785  12.289  0.2112  0.0560  0.1075
 8013W        W24861   5.924   8.735   1.291 -0.1532  0.1883 -0.0261
 8014W        W24862   7.424   0.174   2.399  0.0290  0.2030 -0.1490
 8015W        W24863  12.772  10.309   1.068  0.1273  0.2554  0.3237
 8016W        W24864   5.617  15.484   2.793 -0.3017  0.1311 -0.2950
 8017W        W24865  12.146   3.446   2.897  0.1822 -0.3700  0.2372
 8018W        W24866  11.386   3.597  14.297 -0.0119 -0.0540 -0.0499
 8019W        W24867   2.800   0.875   4.505  0.0014 -0.0063  0.2162
 8020W        W24868  10.417   5.203  12.896 -0.2773 -0.0370 -0.1080
 8021W        W24869   8.160   7.630   1.121  0.1835  0.0747  0.2763
 8022W        W24870   5.262   7.895  14.829  0.0518 -0.5215 -0.0461
 8023W        W24871  16.306  11.031  14.293  0.1627 -0.0284  0.4267
 8024W        W24872   2.486  15.512  13.185 -0.1916  0.2222  0.0510
 8025W        W24873  15.281  12.569  12.328 -0.0184 -0.0527  0.0958
 8026W        W24874   9.373   0.116   0.854 -0.2054  0.2345  0.0765
 8027W        W24875   5.184   8.757   3.704 -0.1727 -0.1452  0.1626
 8028W        W24876   0.327  15.085   3.154  0.1397  0.1153  0.4862
 8029W        W24877  16.270  10.021  12.034 -0.1988 -0.2819 -0.3461
 8030W        W24878   5.461  15.992  13.964  0.0972  0.0787  0.0150
 8031W        W24879   6.586  13.411  10.121  0.1389  0.0351 -0.1946
 8032W        W24880   7.755   7.862  15.716 -0.1959  0.1359 -0.1009
 8033W        W24881   4.245  13.665  13.515  0.2338  0.0973 -0.0655
 8034W        W24882   0.966   6.627  13.232  0.1769 -0.0015 -0.3124
 8035W        W24883  15.569  10.229  10.793 -0.1847 -0.1335 -0.0232
 8036W        W24884   4.717   6.904  12.688 -0.1988 -0.2132 -0.0689
 8037W        W24885   2.082   1.062   5.212 -0.4063 -0.0802 -0.1114
 8038W        W24886   4.477  17.639  11.562 -0.2190  0.0718 -0.0470
 8039W        W24887  12.128   4.394  15.419 -0.1055 -0.0978 -0.1494
 8040W        W24888   2.803  13.546   4.520  0.0601 -0.0755 -0.1618
 8041W        W24889   7.006   8.795  12.099 -0.0933  0.2515 -0.0904
 8042W        W24890   0.840   7.908  15.562 -0.1414  0.2223  0.1112
 8043W        W24891  10.962   6.825   4.242  0.1801 -0.0466 -0.3138
 8044W        W24892  12.304   8.840  11.573 -0.0354 -0.1147  0.0076
 8045W        W24893  13.845  17.844   4.019  0.2341 -0.0829  0.1592
 8046W        W24894   3.242   9.910   0.807 -0.2175  0.1169  0.2330
 8047W        W24895  16.301  15.678  16.561  0.2460 -0.0908 -0.0941
 8048W        W24896  17.693   5.809  14.441 -0.1324  0.2636  0.3473
 8049W        W24897   9.198  14.018   2.842  0.0057 -0.1713 -0.1741
 8050W        W24898  11.797  17.154   4.700  0.0412 -0.0824 -0.2238
 8051W        W24899  16.410   2.988  11.662  0.0255  0.1254  0.1205
 8052W        W24900   3.696   2.646  16.536 -0.1416 -0.0514  0.0861
 8053W        W24901   6.416  14.894   3.324  0.0197 -0.0394  0.1680
 8054W        W24902   6.774   1.618   1.909 -0.2869 -0.2257  0.1959
 8055W        W24903  13.150  15.628  13.526  0.0750  0.2514 -0.0724
 8056W        W24904  11.265  17.032   3.745 -0.1814  0.2444  0.0758
 8057W        W24905   4.089  12.921   4.323 -0.0401  0.0040 -0.2199
 8058W        W24906   7.071   8.139   1.683 -0.1447  0.0368  0.3344
 8059W        W24907  10.333   9.473  13.261 -0.0604 -0.1577  0.0179
 8060W        W24908  11.416   5.157   3.883 -0.1698  0.2018  0.0301
 8061W        W24909   0.080  17.579   3.445  0.0344  0.1922 -0.0829
 8062W        W24910  14.428  14.338   3.549 -0.1768  0.1197 -0.3322
 8063W        W24911  12.988   7.785  13.106 -0.1912 -0.3197  0.0618
 8064W        W24912   9.887   9.176   2.075 -0.0867 -0.0703 -0.1164
 8065W        W24913  13.454   3.954  14.475  0.1005 -0.0325  0.1355
 8066W        W24914  16.344   8.556  16.576  0.1538 -0.2324 -0.2750
 8067W        W24915   5.080   4.726  15.501  0.0844  0.0272  0.0818
 8068W        W24916   8.786   0.537  12.322  0.0884 -0.1628 -0.4749
 8069W        W24917   2.410  14.586   0.883  0.3133 -0.2184  0.0184
 8070W        W24918  15.960   9.554  14.543  0.1109  0.3293 -0.0286
 8071W        W24919  16.023   4.824   5.162  0.0133  0.1100  0.1885
 8072W        W24920  11.316   8.451   1.444 -0.0168  0.2367  0.1389
 8073W        W24921   5.593  11.767   4.821  0.0657  0.2191 -0.0346
 8074W        W24922   0.621   9.253   4.038 -0.0563 -0.2914  0.0077
 8075W        W24923  12.435  16.461   1.863  0.2726 -0.0752 -0.2423
 8076W        W24924  13.732   3.649  16.083 -0.0694  0.2172  0.3635
 8077W        W24925   5.046  17.833  13.329  0.2315 -0.0800  0.0478
 8078W        W24926   4.088   7.757   3.773  0.0838 -0.1410 -0.0912
 8079W        W24927   5.270  15.249   5.403 -0.0652 -0.0894 -0.0181
 8080W        W24928   8.338   3.223  11.706 -0.2867  0.3457  0.0232
 8081W        W24929  17.734  14.285   2.781  0.1949  0.0275  0.0249
 8082W        W24930   6.430  14.416   3.297  0.1013 -0.1358 -0.1060
 8083W        W24931   2.426   8.195   2.687  0.0848  0.2319 -0.2097
 8084W        W24932   5.100   1.997   1.697 -0.0356 -0.1667  0.0449
 8085W        W24933   0.949   5.241   3.875 -0.1996 -0.0059 -0.0344
 8086W        W24934  10.960   3.617  13.572 -0.0446 -0.1237  0.0029
 8087W        W24935  15.757  11.456   2.519 -0.0598 -0.0272  0.3267
 8088W        W24936   5.283   2.751  15.639  0.2109 -0.0711 -0.0167
 8089W        W24937   0.296   0.063  13.140 -0.1277  0.1432 -0.2315
 8090W        W24938   1.324   0.802  14.707  0.0368 -0.0611  0.2221
 8091W        W24939   4.257  13.956   0.629  0.0482 -0.0892 -0.2289
 8092W        W24940   0.106   4.902  14.731  0.1294  0.0161  0.0389
 8093W        W24941   9.888   9.686  14.087  0.0075 -0.0677  0.1301
 8094W        W24942   8.071  14.056  12.553  0.0837 -0.0882  0.1792
 8095W        W24943  12.422  12.809   1.139  0.0687 -0.1675 -0.0931
 8096W        W24944   6.019  11.907   1.732  0.2307  0.0881 -0.0362
 8097W        W24945  17.009  15.953   3.342 -0.1957 -0.0925 -0.1894
 8098W        W24946  17.517   1.400   3.286  0.0580 -0.0860 -0.2501
 8099W        W24947  10.627   7.504  15.348  0.0973 -0.3095  0.0053
 8100W        W24948   4.952   4.470  11.141  0.2208 -0.0032  0.5292
 8101W        W24949  13.947   2.374  13.596 -0.2558 -0.2213 -0.0105
 8102W        W24950   6.146   8.653   1.735  0.0213 -0.1001 -0.0034
 8103W        W24951   5.995   8.051   2.081 -0.2723  0.0968  0.1799
 8104W        W24952   0.526  12.001   0.534 -0.1311 -0.2232  0.0554
 8105W        W24953  13.353  13.270   0.102  0.0310  0.1825  0.2012
 8106W        W24954   9.164  17.181   3.390 -0.0075  0.5039  0.0185
 8107W        W24955  15.410  11.595  12.552 -0.0755 -0.0817 -0.0721
 8108W        W24956   6.406   9.383   2.675  0.2025 -0.1963 -0.2547
 8109W        W24957   3.548  17.076  11.643 -0.0547 -0.2323 -0.0356
 8110W        W24958   7.418   5.617   0.589 -0.2082 -0.1727 -0.1332
 8111W        W24959  11.435  14.477   4.673  0.1213 -0.0546 -0.0152
 8112W        W24960   3.348  17.305  13.813  0.1127 -0.1545  0.0570
 8113W        W24961   7.790   1.526  16.603  0.0604  0.0616  0.2631
 8114W        W24962   0.798  10.027  13.789  0.2053  0.0672  0.2134
 8115W        W24963   2.762  15.930  16.101 -0.0763  0.1266  0.1121
 8116W        W24964  15.951   2.798  16.018  0.2369  0.2019 -0.1727
 8117W        W24965   2.566   4.271   3.965 -0.1316 -0.1443  0.0440
 8118W        W24966  10.194  12.932   3.170 -0.0007  0.0718  0.1420
 8119W        W24967  16.117   1.360   4.551  0.0062  0.1108 -0.3310
 8120W        W24968   8.290   0.046  14.286 -0.2604  0.0237 -0.2738
 8121W        W24969  15.804   5.836  13.913 -0.4431  0.1469 -0.1100
 8122W        W24970  15.033   8.001  15.469  0.0714  0.1642 -0.2284
 8123W        W24971  11.818  15.749  13.296 -0.0793  0.1683 -0.2044
 8124W        W24972   1.934   6.879  11.459 -0.1351 -0.0069 -0.2866
 8125W        W24973   1.252  16.328  14.841  0.0190  0.1215  0.0034
 8126W        W24974   3.340  11.329  15.010 -0.0751  0.0097 -0.1430
 8127W        W24975   0.080  12.646   2.693  0.0530  0.1106 -0.1901
 8128W        W24976  12.168   1.916  15.948 -0.2347  0.2325 -0.2127
 8129W        W24977  13.360   6.827   0.425 -0.0083  0.0665  0.0772
 8130W        W24978   3.290   0.762   3.368 -0.1832 -0.4277  0.0783
 8131W        W24979   0.973   4.458  15.151  0.2108 -0.2687 -0.2267
 8132W        W24980   0.496  10.458  10.867  0.2333  0.3207 -0.1147
 8133W        W24981  10.887   9.211  12.334 -0.0642 -0.2205 -0.1758
 8134W        W24982   5.124  14.861   2.816  0.1299 -0.1620 -0.1188
 8135W        W24983  14.188  17.497  12.460 -0.1417  0.1244  0.1924
 8136W        W24984  11.528  15.678   3.592 -0.3988 -0.1938  0.2811
 8137W        W24985   5.181  13.183   3.916 -0.0499 -0.0658 -0.1618
 8138W        W24986  17.262   4.546  13.798 -0.2162 -0.0209  0.3174
 8139W        W24987  17.459  11.044   1.706  0.0246 -0.0609  0.2693
 8140W        W24988   6.910   9.050  15.949  0.0952  0.0567  0.1567
 8141W        W24989  16.397  11.975  16.321 -0.0256  0.1173 -0.2906
 8142W        W24990   1.896   2.330  16.186  0.2214 -0.0540  0.1368
 8143W        W24991  16.115   5.209  13.377 -0.0058  0.0556 -0.0166
 8144W        W24992  13.673  14.467   3.160 -0.0398 -0.1774 -0.0357
 8145W        W24993  10.141   7.868   3.360 -0.0867  0.2635 -0.1607
 8146W        W24994  13.793  10.312   3.909  0.0448  0.0462 -0.4204
 8147W        W24995  15.916   1.543   0.160  0.2873 -0.0994  0.1451
 8148W        W24996  14.125   5.160   3.456  0.1100  0.0832  0.0885
 8149W        W24997  15.205   2.747   0.885 -0.2583  0.2256  0.1090
 8150W        W24998   5.990   1.313   5.165 -0.1040  0.1892  0.2551
 8151W        W24999   9.597   9.186  14.769  0.3826 -0.0127  0.2606
 8152W        W25000   1.401   1.384   3.344  0.3834  0.0866 -0.1400
 8153W        W25001  11.027  16.244  11.001 -0.0116 -0.0792  0.3375
 8154W        W25002  11.389  15.431  13.303  0.1437 -0.2150  0.1855
 8155W        W25003  12.574  14.981   1.452  0.0281  0.1004 -0.0603
 8156W        W25004   5.497   5.405   4.636  0.0063  0.0837  0.0566
 8157W        W25005   2.123   5.121   1.769  0.2478 -0.1307 -0.0365
 8158W        W25006  14.494   3.935   4.437  0.0638  0.1342 -0.3577
 8159W        W25007  13.058  16.005  13.196 -0.0479 -0.2506 -0.2851
 8160W        W25008  16.011  11.885   4.382  0.1586  0.3726 -0.1391
 8161W        W25009   3.596  15.105   0.889  0.2364  0.0526  0.0814
 8162W        W25010  12.909   6.462   3.482  0.0953 -0.1805  0.0059
 8163W        W25011  12.625  14.705   2.308 -0.0294  0.1326  0.0569
 8164W        W25012   3.739   5.858  13.531  0.0399  0.0859 -0.2284
 8165W        W25013   6.233  15.258   5.921 -0.0485  0.1469  0.0595
 8166W        W25014   3.399   4.128   3.514 -0.0190 -0.0699 -0.2133
 8167W        W25015   2.543   0.477   4.388  0.3430 -0.3030  0.0348
 8168W        W25016   9.683  13.793   3.988 -0.0281 -0.0341  0.0169
 8169W        W25017  13.583  10.093   2.885 -0.2581 -0.0936 -0.2014
 8170W        W25018  16.050  13.112  14.405  0.0029 -0.0222 -0.0779
 8171W        W25019   7.508   1.910   0.156 -0.1924  0.3442 -0.0936
 8172W        W25020   6.315  15.325   3.103  0.1361 -0.0902  0.0316
 8173W        W25021   6.733   0.925   2.351  0.0778 -0.3357  0.0124
 8174W        W25022  15.521   5.465  13.090  0.0974  0.0638 -0.2141
 8175W        W25023  11.082  13.308   5.411 -0.1492 -0.2955  0.2802
 8176W        W25024   6.498  11.840  13.765  0.0459  0.2194  0.1921
 8177W        W25025  14.711   5.071  16.471 -0.0973 -0.1602 -0.1288
 8178W        W25026  14.799   5.677  13.726 -0.1174  0.0062 -0.1067
 8179W        W25027  11.952   1.464  13.499  0.0496  0.0428 -0.0114
 8180W        W25028   0.144   6.509  11.403  0.0191  0.0358  0.0236
 8181W        W25029  12.875  17.773  14.708  0.3282 -0.2091 -0.3955
 8182W        W25030  13.183  17.787   4.532 -0.1082  0.0874 -0.0341
 8183W        W25031  15.460  15.706   3.661 -0.0665  0.1659  0.1983
 8184W        W25032   7.474  15.633  13.370 -0.5991  0.0960  0.0267
 8185W        W25033  14.053  11.035   0.051 -0.3240  0.0422 -0.0935
 8186W        W25034   2.202   3.131   0.674  0.1872  0.0136  0.0756
 8187W        W25035   7.811   8.827  16.105  0.2164  0.1187 -0.3343
 8188W        W25036   7.071   2.728  11.836 -0.2300 -0.3899 -0.0261
 8189W        W25037  11.940   9.842  15.344 -0.2193  0.0118  0.0040
 8190W        W25038  15.944  15.407  15.444  0.1467  0.1796  0.4195
 8191W        W25039  14.058  16.951  15.137 -0.1432  0.4991 -0.0876
 8192W        W25040   1.399  13.334  11.202 -0.3880  0.2074  0.0149
 8193W        W25041  12.274  16.890   2.777 -0.0385 -0.0043  0.1278
 8194W        W25042  14.852   1.777  13.539 -0.1220  0.2070  0.0294
 8195W        W25043   3.743   3.929  13.784  0.2240 -0.2574 -0.2230
 8196W        W25044  13.329   6.566  10.412 -0.0812  0.6344  0.0379
 8197W        W25045   3.672   5.014   0.468 -0.0059 -0.1502 -0.3321
 8198W        W25046   2.445   1.896   5.161  0.0346 -0.0457 -0.0793
 8199W        W25047  12.586   5.815   2.931  0.0661 -0.3117  0.0225
 8200W        W25048  17.718  14.163  15.406  0.1428  0.0391 -0.0871
 8201W        W25049   8.650  11.720  12.970  0.0122  0.2392  0.2578
 8202W        W25050  11.783   5.060   0.717  0.0631 -0.0906 -0.0138
 8203W        W25051   3.824   0.982   0.826  0.2410  0.1294 -0.1989
 8204W        W25052   0.351   6.645  12.248 -0.1708 -0.1196  0.0562
 8205W        W25053   5.722  17.008   3.800  0.1153  0.0618  0.0599
 8206W        W25054   4.944  17.403  14.147  0.3032 -0.0532 -0.1759
 8207W        W25055  12.463  14.721  14.857  0.0798 -0.1562  0.0576
 8208W        W25056   2.717  14.156   3.789  0.0830  0.1891 -0.0957
 8209W        W25057  15.443   3.249   4.901 -0.3723  0.0409 -0.1570
 8210W        W25058   2.145  13.884  14.322  0.1257  0.0671  0.3195
 8211W        W25059   6.193  10.622   1.073  0.1994  0.1884 -0.1887
 8212W        W25060   5.738  10.482   0.851  0.1047 -0.1324 -0.3182
 8213W        W25061   0.869  12.908  14.522  0.1656 -0.3491  0.2894
 8214W        W25062  12.805  13.672   0.611  0.1581 -0.1110 -0.4083
 8215W        W25063   8.395   7.192  14.963  0.2281  0.0458 -0.0643
 8216W        W25064   4.636  12.763   3.095  0.2385  0.3807 -0.0252
 8217W        W25065   6.401   2.032  12.008  0.0287 -0.2475  0.0821
 8218W        W25066   5.269   2.150  12.623 -0.0311  0.3455 -0.0574
 8219W        W25067   0.390  17.795   3.148 -0.0877  0.1043 -0.2183
 8220W        W25068   2.436   7.885   0.381  0.2584 -0.3264 -0.0499
 8221W        W25069   2.649   1.471   3.210 -0.1151  0.0461  0.0735
 8222W        W25070   2.130  12.615   5.200 -0.1822  0.1840  0.1070
 8223W        W25071  13.908   3.076  12.391 -0.2135 -0.0937  0.3314
 8224W        W25072   0.416   9.448  13.306 -0.0514 -0.1179  0.0730
 8225W        W25073  15.557  14.739  14.337  0.2513  0.0141  0.3468
 8226W        W25074  12.293   7.505  13.878 -0.1680 -0.2554 -0.1557
 8227W        W25075  13.880  15.661  12.554  0.2798  0.1429  0.1069
 8228W        W25076   8.707   1.143  13.108 -0.3076  0.0775  0.0388
 8229W        W25077   2.925  11.205   0.051 -0.1395 -0.0065 -0.4252
 8230W        W25078  11.883   2.030  11.300 -0.0928  0.2447  0.0785
 8231W        W25079   2.286   5.810   3.555 -0.0095 -0.2713 -0.2521
 8232W        W25080   6.110  12.303  16.423 -0.1969 -0.0366 -0.1475
 8233W        W25081  11.514  13.748   5.128  0.1271  0.1058 -0.3014
 8234W        W25082  13.152  14.429   2.956  0.1179 -0.1757 -0.1109
 8235W        W25083   8.862   2.541  15.316  0.0592  0.2692  0.0078
 8236W        W25084   0.480  11.510   4.145 -0.0364  0.1585  0.1385
 8237W        W25085  16.518   9.368   3.916  0.3029 -0.0375 -0.0324
 8238W        W25086   5.938   7.297  12.001 -0.1781  0.2767 -0.1658
 8239W        W25087  15.117   1.697   4.604  0.0154 -0.4070  0.0825
 8240W        W25088   8.976   0.586  15.432 -0.4247 -0.0615 -0.2192
 8241W        W25089   2.821   9.735  16.320  0.3397  0.1990  0.0901
 8242W        W25090   1.411   4.117   3.367 -0.1288 -0.0304 -0.0165
 8243W        W25091   7.506  16.339  14.136  0.1356  0.2483  0.1469
 8244W        W25092   8.742   2.439  13.268  0.3785 -0.2932  0.1234
 8245W        W25093   7.691  13.708  13.583  0.2374  0.2829 -0.0146
 8246W        W25094  15.850  13.943   3.326  0.1135 -0.4055  0.2658
 8247W        W25095   0.190   5.796   1.122 -0.2083  0.2591  0.0217
 8248W        W25096  11.681  17.726  15.901 -0.1077 -0.2705 -0.1206
 8249W        W25097   4.124  16.427   4.600 -0.0830  0.2706  0.0255
 8250W        W25098   1.283   6.852   2.437  0.0544  0.2640  0.2072
 8251W        W25099  10.647   7.903   1.836  0.0089 -0.0050 -0.3382
 8252W        W25100   4.036   5.642  13.888  0.1145 -0.1785  0.1489
 8253W        W25101  16.138  11.972  10.830 -0.0846 -0.1719  0.0735
 8254W        W25102   5.058  12.439   0.095 -0.0778 -0.0796  0.1284
 8255W        W25103  16.105   1.230  12.166 -0.4951  0.2643  0.3607
 8256W        W25104   3.244   5.159   1.644  0.1511 -0.1276  0.4218
 8257W        W25105   5.656   5.327   3.171  0.0468  0.0274  0.0775
 8258W        W25106   4.626  16.081  11.854 -0.2322  0.1745 -0.5613
 8259W        W25107   4.770  11.610  14.178 -0.0440  0.0529 -0.0019
 8260W        W25108  11.929  17.378  16.167 -0.1669 -0.0586 -0.1854
 8261W        W25109   9.121  14.651   2.895 -0.0273 -0.1358  0.1209
 8262W        W25110  12.848   2.007   5.178 -0.0970 -0.2501  0.1063
 8263W        W25111  13.161   5.601  13.216 -0.2898 -0.0675 -0.1859
 8264W        W25112   7.203  17.066   3.870 -0.0215 -0.4213  0.2179
 8265W        W25113   4.723   5.166   1.718 -0.1658  0.0356  0.2377
 8266W        W25114  15.991  17.297   0.970  0.1152 -0.0564 -0.0031
 8267W        W25115   2.412  17.633   2.899  0.0732 -0.0997 -0.0382
 8268W        W25116   1.695   4.552   3.344 -0.4403  0.1085  0.1516
 8269W        W25117   1.745   3.987  15.010  0.0466 -0.2414  0.2020
 8270W        W25118   7.517  13.689   4.900 -0.1808 -0.0530  0.0699
 8271W        W25119  12.236   1.985   3.921  0.0947 -0.0967 -0.2404
 8272W        W25120  13.302  15.972  12.407 -0.2358  0.1438  0.0957
 8273W        W25121  13.031   9.015   1.511 -0.3268  0.0311  0.4771
 8274W        W25122   7.602   6.457   2.039 -0.0035  0.1317 -0.3482
 8275W        W25123  14.037   1.305   0.527 -0.4218  0.1615 -0.2926
 8276W        W25124  12.672   3.127   3.315  0.0402 -0.2917  0.1777
 8277W        W25125   9.813   4.519  12.941 -0.1798  0.0790  0.0812
 8278W        W25126   8.557   3.333  13.421  0.0996 -0.0760  0.0511
 8279W        W25127   5.361   0.588   3.899  0.2964 -0.2304  0.0601
 8280W        W25128   7.917   3.194   1.200 -0.0968  0.0870 -0.1155
 8281W        W25129   3.939  11.807   0.677 -0.1717 -0.0175 -0.0811
 8282W        W25130  17.777   9.110   3.324  0.3654 -0.2646 -0.0521
 8283W        W25131   5.843   0.626   0.315 -0.1001  0.1155  0.1546
 8284W        W25132  14.665   7.666  14.533  0.2693 -0.0552 -0.1414
 8285W        W25133   5.923  13.437  15.031  0.1711 -0.2646  0.0678
 8286W        W25134   4.481  14.430   3.413 -0.2048  0.4410  0.3624
 8287W        W25135   7.856  10.621  10.654 -0.1483 -0.3245 -0.1971
 8288W        W25136  16.270  11.266  15.795  0.0738 -0.2918  0.1261
 8289W        W25137  15.026  16.955  14.462  0.2270  0.0758 -0.2580
 8290W        W25138   7.780   7.861   4.834  0.0456 -0.1740  0.1662
 8291W        W25139   3.314   2.912  14.375  0.0259  0.1508 -0.4466
 8292W        W25140   2.556   5.432  11.171 -0.2355  0.0647 -0.1900
 8293W        W25141   1.575   2.118   5.229 -0.0203 -0.1008  0.4281
 8294W        W25142  11.077   0.942   3.334  0.2327 -0.1124 -0.1994
 8295W        W25143   3.305  15.909  13.721  0.0157  0.0467  0.1755
 8296W        W25144  10.337   6.377   0.576  0.3864  0.0018  0.0606
 8297W        W25145   1.714   2.965  15.418  0.0123  0.3239 -0.0068
 8298W        W25146  15.916   8.091   4.246 -0.0577  0.2962  0.2794
 8299W        W25147   3.557  12.911   4.969 -0.1671  0.2065  0.1083
 8300W        W25148  17.031   6.438  13.468  0.0530 -0.4886  0.2804
 8301W        W25149  14.851   1.960   1.982  0.1149  0.0101  0.3688
 8302W        W25150   1.182   1.705   4.466 -0.1020  0.0201  0.1728
 8303W        W25151   0.480   6.806  11.459  0.2650  0.1027  0.0659
 8304W        W25152  16.181   6.117  16.529  0.1582 -0.0269 -0.3253
 8305W        W25153  14.939   3.407   3.745  0.1070 -0.1191 -0.1001
 8306W        W25154  17.784   9.053   1.908  0.4417  0.1093  0.0763
 8307W        W25155   6.909   6.372  12.024  0.0650 -0.0587  0.1348
 8308W        W25156   3.556  10.992  14.154  0.1124  0.0688  0.1654
 8309W        W25157   0.956   9.184   0.024  0.0296  0.0519 -0.2852
 8310W        W25158   0.417   6.960   3.741  0.3159  0.1239 -0.0217
 8311W        W25159  11.457   9.315  14.339  0.1787  0.4070 -0.0067
 8312W        W25160   2.928  10.638  15.191  0.1122 -0.0909  0.1060
 8313W        W25161   6.452  12.540   0.998 -0.2646 -0.2037  0.1207
 8314W        W25162   4.106  16.282  11.759  0.4108  0.0427 -0.2683
 8315W        W25163  16.588   5.959  15.565  0.2325  0.3863  0.1582
 8316W        W25164  12.533  10.457  15.662 -0.1546  0.1712  0.1439
 8317W        W25165  17.624  14.524   3.888  0.0714  0.0367 -0.0532
 8318W        W25166   3.747  11.198   1.769 -0.0993  0.1649  0.0091
 8319W        W25167  15.766   2.024   5.090 -0.1051 -0.1361 -0.1646
 8320W        W25168  16.849   6.583   2.933 -0.0318  0.0779  0.1490
 8321W        W25169  16.646   2.094   2.010  0.2507  0.0172 -0.0871
 8322W        W25170  17.465   7.800   0.194  0.0597 -0.2004  0.0599
 8323W        W25171  16.459   6.541  16.519 -0.0005 -0.1614  0.0234
 8324W        W25172   4.043   5.747  14.985  0.1690 -0.0896  0.1022
 8325W        W25173   2.669  12.118   5.586  0.0748  0.2200 -0.2107
 8326W        W25174   1.691  12.113   0.769 -0.1459 -0.2114  0.0328
 8327W        W25175  10.040   2.590   2.804 -0.0140  0.0369 -0.1477
 8328W        W25176   2.345   9.729   1.344  0.0094  0.0058  0.5637
 8329W        W25177   5.695   7.518   2.196 -0.0253  0.0736  0.2519
 8330W        W25178   0.117   7.802   4.879  0.1565  0.2306  0.1748
 8331W        W25179  15.104   2.106  12.737 -0.0362 -0.3002 -0.0379
 8332W        W25180  15.073   7.309  16.139 -0.0778 -0.2998  0.2927
 8333W        W25181  17.418   7.722  10.884  0.0162  0.0175 -0.3092
 8334W        W25182  17.468  12.701  14.617  0.0357  0.2701 -0.2278
 8335W        W25183   2.928  15.737   4.403  0.3978 -0.1994 -0.1266
 8336W        W25184  11.375  15.277  16.199 -0.2105 -0.0653  0.2191
 8337W        W25185  11.283  11.488  11.887  0.0517 -0.2315  0.0869
 8338W        W25186  13.583  11.366  16.534  0.2356  0.2942  0.1467
 8339W        W25187  12.048   0.224  15.200  0.0738  0.0766  0.1952
 8340W        W25188   1.716   5.326  15.440 -0.1569 -0.0257 -0.1402
 8341W        W25189   6.646   7.869  16.171  0.1413  0.1203  0.2787
 8342W        W25190  14.112   3.300  14.492  0.0938  0.2074 -0.2270
 8343W        W25191  16.763  15.126   5.381  0.2104 -0.0300  0.1466
 8344W        W25192   2.211  17.325  15.026 -0.1137  0.0462 -0.1227
 8345W        W25193  17.781  13.683   4.704 -0.0645  0.0255 -0.0056
 8346W        W25194  17.703  14.231  11.984  0.0691  0.3705  0.1864
 8347W        W25195   4.835   6.715  15.628 -0.0993 -0.0360 -0.2596
 8348W        W25196  11.491   4.342   2.974  0.1313 -0.0404  0.1928
 8349W        W25197   9.270  12.015   2.808  0.3913  0.2120 -0.0667
 8350W        W25198   6.558   8.832  14.053 -0.2179  0.1465  0.0924
 8351W        W25199  12.951  16.074   2.523  0.0630 -0.0435 -0.1609
 8352W        W25200  16.427   8.961   5.211 -0.1557 -0.1272 -0.2262
 8353W        W25201  14.275   6.123   2.866  0.1567 -0.0099 -0.1330
 8354W        W25202  13.108  13.797  14.621  0.1322  0.0529 -0.2269
 8355W        W25203  14.504  12.650  11.481 -0.0681 -0.3343  0.0982
 8356W        W25204  15.607  11.802   4.702 -0.1757  0.1668  0.3373
 8357W        W25205  11.173   9.662  14.772 -0.3611  0.0396  0.0414
 8358W        W25206   9.126  13.649  12.885 -0.1368 -0.2459  0.2508
 8359W        W25207  17.791  10.585   1.761 -0.1161  0.2478 -0.1239
 8360W        W25208  13.852  15.221   0.422 -0.2811 -0.4491  0.2246
 8361W        W25209   4.349  14.684  14.735 -0.1463 -0.1849  0.4543
 8362W        W25210   4.172   8.044  14.979 -0.2577 -0.0158 -0.1591
 8363W        W25211   8.107   6.535  13.351 -0.0617 -0.0310 -0.0118
 8364W        W25212   4.845   0.101  16.334  0.3908 -0.0617 -0.0779
 8365W        W25213  17.581  10.898  16.267  0.2473  0.2231 -0.1813
 8366W        W25214  12.766   7.662  15.649 -0.0665 -0.0020 -0.3428
 8367W        W25215  10.426   5.118   1.525 -0.0954 -0.2613 -0.0783
 8368W        W25216  17.008  15.565   5.178  0.1258 -0.0848  0.1606
 8369W        W25217   1.068  11.804  16.239 -0.0609  0.0487 -0.0260
 8370W        W25218   1.540  14.597   6.086 -0.1836 -0.0089  0.2553
 8371W        W25219   3.021   6.967  15.106  0.1731  0.0914 -0.0232
 8372W        W25220  12.912   2.467  14.003 -0.2720 -0.1519 -0.0043
 8373W        W25221   5.277  15.225   2.400  0.3149 -0.1110  0.0241
 8374W        W25222   2.028   7.569  14.209 -0.0817 -0.2992 -0.0412
 8375W        W25223   8.712   8.482  12.160  0.2166 -0.0455 -0.0851
 8376W        W25224   1.712   8.859   2.199 -0.1312  0.2181  0.0013
 8377W        W25225   8.299  11.344  14.049 -0.1662  0.4877 -0.0824
 8378W        W25226   9.726  16.072   1.369  0.2357 -0.1043  0.3824
 8379W        W25227   5.417  15.497  13.956 -0.1261  0.1396 -0.1671
 8380W        W25228   9.945   3.097   2.801 -0.0927 -0.1799 -0.3066
 8381W        W25229  13.604   5.789  14.198 -0.2009 -0.1718 -0.0364
 8382W        W25230   9.640   4.291   1.956 -0.2769  0.0033  0.1351
 8383W        W25231   4.746  11.483  15.765 -0.1054 -0.0674  0.1460
 8384W        W25232  13.239  14.945  12.689 -0.0951  0.4631 -0.1882
 8385W        W25233  13.975  16.935   3.164 -0.2094 -0.1508  0.0180
 8386W        W25234  11.621   3.099  12.810  0.1998 -0.2520  0.0319
 8387W        W25235  17.437   8.610   4.948 -0.0731  0.2893  0.2685
 8388W        W25236   1.823   7.503   0.611 -0.1159 -0.0054  0.1904
 8389W        W25237   0.907  12.864  13.779  0.2228 -0.0981 -0.2615
 8390W        W25238   5.886   6.622   4.518 -0.0138  0.0909  0.0451
 8391W        W25239  15.751   1.013  16.552 -0.0906 -0.0378 -0.1513
 8392W        W25240  10.862  15.709   0.580  0.0056 -0.0309  0.1246
 8393W        W25241  10.010  12.597   0.409  0.2720  0.0746 -0.3605
 8394W        W25242  17.199  17.675   2.439 -0.0380  0.2520  0.1276
 8395W        W25243  10.127   1.940  12.893 -0.0774  0.3222 -0.2767
 8396W        W25244  12.943  11.445  12.027  0.2026  0.1293  0.0444
 8397W        W25245   0.044   5.353   1.245  0.1703  0.0682 -0.2411
 8398W        W25246   2.275   5.028   2.521 -0.0395 -0.1110 -0.0475
 8399W        W25247  13.710  14.920   1.477  0.1013  0.1133  0.3209
 8400W        W25248  13.079   5.073   1.503  0.2658  0.1648  0.4804
 8401W        W25249  10.870  16.424   2.558  0.0427  0.1361  0.2701
 8402W        W25250  13.210  16.234   1.907  0.2042  0.2529  0.1107
 8403W        W25251  13.677   9.469   5.893 -0.2814  0.0065  0.5563
 8404W        W25252   8.819  11.769   2.531 -0.0560 -0.2507 -0.1124
 8405W        W25253  17.471   5.502  11.704  0.0430  0.0778  0.2329
 8406W        W25254  11.068  14.906  16.316  0.3126 -0.1172  0.1505
 8407W        W25255  13.019   0.432   2.261 -0.1056 -0.0448  0.2591
 8408W        W25256   2.726   8.227   0.065  0.4342  0.0610  0.2685
 8409W        W25257   9.697   3.970   4.999  0.1536  0.1071  0.3890
 8410W        W25258   9.850  16.405   5.862  0.3383 -0.3487 -0.1137
 8411W        W25259   4.668  15.747   1.589  0.0142 -0.0657 -0.2185
 8412W        W25260  12.401   3.517  15.400  0.0266 -0.1272  0.2483
 8413W        W25261  12.612  13.102  14.014 -0.3939  0.1158 -0.0319
 8414W        W25262   1.032  13.545   1.288 -0.0025 -0.2307  0.1238
 8415W        W25263   3.349  13.603   2.139 -0.1332 -0.0486 -0.0206
 8416W        W25264  15.345   6.997   2.816  0.3582  0.0619 -0.0013
 8417W        W25265  16.853   3.740   1.246  0.1310 -0.1977  0.2108
 8418W        W25266   2.387  16.415   0.051  0.0263  0.1693 -0.1674
 8419W        W25267  11.241   3.667  15.263  0.2037 -0.0813  0.1701
 8420W        W25268   0.071   2.753   1.214 -0.2091 -0.1421 -0.4020
 8421W        W25269  14.521   8.914  13.058 -0.0000 -0.2084  0.1499
 8422W        W25270   4.699  10.095  13.412  0.1052  0.0435  0.2696
 8423W        W25271  13.403   6.393  16.548  0.0754 -0.2064  0.1754
 8424W        W25272   8.449  10.148  14.925 -0.3070  0.2572 -0.1002
 8425W        W25273   0.463   5.698  15.427 -0.1410 -0.0535 -0.0844
 8426W        W25274   7.729  16.980   2.560 -0.1776 -0.2410  0.0052
 8427W        W25275   0.809  15.841   3.121  0.0798 -0.0965  0.0627
 8428W        W25276   1.934  17.417  16.282 -0.3926 -0.1025 -0.0844
 8429W        W25277   7.793   0.245  13.993  0.0565  0.0049  0.2954
 8430W        W25278   6.967  13.876  13.562 -0.2839  0.3285 -0.1912
 8431W        W25279  10.378   7.839  16.171  0.3050  0.2788  0.1586
 8432W        W25280  16.612  13.316   3.349  0.1825  0.0144  0.0806
 8433W        W25281   2.952   1.589   5.233  0.0422  0.2263 -0.2018
 8434W        W25282   5.368   5.712  12.966  0.2141 -0.3176  0.0015
 8435W        W25283   7.620  10.262   0.055 -0.1773  0.1768  0.1000
 8436W        W25284  15.904   3.975   1.691  0.1533  0.3766 -0.1616
 8437W        W25285  14.528  17.367   1.807  0.4738 -0.0731 -0.1927
 8438W        W25286   5.853  14.495  15.886 -0.1728  0.0696 -0.0784
 8439W        W25287   3.273  13.061  12.646 -0.2283 -0.2572 -0.1220
 8440W        W25288  11.614   2.487  13.403  0.1479  0.1784  0.0375
 8441W        W25289   6.704   1.395   4.821  0.2046  0.0447 -0.0918
 8442W        W25290  11.288   5.679  14.920  0.3923 -0.0228  0.3955
 8443W        W25291   7.127  13.688  15.536 -0.4030  0.1224  0.2731
 8444W        W25292   1.424   6.955  16.298 -0.0779 -0.4251 -0.0183
 8445W        W25293   8.854   8.140   1.008  0.0955 -0.0780 -0.0283
 8446W        W25294   7.557  14.324  12.670  0.0742 -0.0763  0.1824
 8447W        W25295   3.020   7.761  15.726 -0.0412  0.1441 -0.1231
 8448W        W25296  12.268   2.192   3.060 -0.1752  0.3371  0.3140
 8449W        W25297   4.672   5.840  12.415 -0.1828  0.2109  0.0813
 8450W        W25298  17.675   3.334  12.807  0.5131 -0.0971 -0.1718
 8451W        W25299   7.885  15.289   2.253 -0.1227  0.0392  0.2682
 8452W        W25300   3.826  13.796   3.034 -0.2522 -0.2761 -0.0939
 8453W        W25301  16.556   7.594  14.373 -0.2152 -0.4221  0.0168
 8454W        W25302  10.638  11.006  14.840  0.0146 -0.0325  0.2384
 8455W        W25303  10.819   0.569   2.200  0.2010  0.0500  0.0401
 8456W        W25304  13.328  11.039   4.240  0.0266 -0.0468 -0.2140
 8457W        W25305   5.920   5.761  11.795 -0.0914 -0.0642 -0.2717
 8458W        W25306   9.042  12.623   5.125 -0.0775  0.0616  0.1181
 8459W        W25307  16.319   9.667  16.291  0.0047  0.0452  0.1125
 8460W        W25308  11.202  15.645  15.407  0.0506  0.0742  0.0646
 8461W        W25309   1.660  14.920  16.367 -0.2093 -0.1947 -0.0408
 8462W        W25310   5.866   0.823  11.303  0.1468  0.2722 -0.1068
 8463W        W25311   8.207  12.935   0.147 -0.2230  0.0773 -0.1655
 8464W        W25312   1.464  13.164   2.181  0.0633 -0.1640 -0.2376
 8465W        W25313  16.871   3.463  10.328  0.3364  0.2217 -0.0694
 8466W        W25314  12.754   2.048   0.985 -0.1723  0.0025 -0.1845
 8467W        W25315  16.344   1.874   5.286 -0.3344 -0.1043 -0.2084
 8468W        W25316   1.154   2.861   3.031 -0.1013  0.2710  0.2970
 8469W        W25317   5.615  16.649   1.574 -0.2116 -0.2018 -0.0935
 8470W        W25318   0.697   9.149  16.244 -0.0964 -0.0113 -0.1089
 8471W        W25319   0.764   8.737  15.952 -0.0093  0.4213  0.0148
 8472W        W25320   9.192  16.889   2.934 -0.3237 -0.0493 -0.0304
 8473W        W25321  10.435   5.926  15.404  0.0757 -0.3753 -0.0316
 8474W        W25322   0.508  15.925   5.357  0.0073  0.0618 -0.0330
 8475W        W25323   4.084  15.407  11.386  0.1071 -0.0758  0.0143
 8476W        W25324  11.300   4.770  12.810 -0.2893 -0.3180  0.1751
 8477W        W25325  12.795  12.233   3.050 -0.0657  0.1122  0.0371
 8478W        W25326  14.303   6.882  13.304 -0.0279 -0.0062  0.0769
 8479W        W25327   2.876   6.978  16.150 -0.0859 -0.2742  0.0109
 8480W        W25328  16.151   4.956  12.790  0.1268  0.3710 -0.1385
 8481W        W25329  13.440   5.507   2.628 -0.3152  0.1175 -0.0447
 8482W        W25330   7.381   8.572  14.792 -0.1512 -0.1842  0.0045
 8483W        W25331   2.469  15.480   4.686 -0.2232 -0.2134  0.1053
 8484W        W25332   7.291   3.170  14.743 -0.1658 -0.1252  0.3783
 8485W        W25333   9.802   0.335   2.182  0.1042  0.0835 -0.0091
 8486W        W25334  10.113   0.062   2.517 -0.0890  0.2975 -0.1280
 8487W        W25335  11.936  12.517   1.086 -0.1447  0.1112  0.0079
 8488W        W25336  12.932   5.931  15.249 -0.1625 -0.0772 -0.2087
 8489W        W25337  14.665   5.170  12.483  0.1153 -0.2066 -0.3257
 8490W        W25338  17.123  13.355   3.496  0.0789  0.1175 -0.0728
 8491W        W25339   0.277   0.706   5.552 -0.2143 -0.0179 -0.2570
 8492W        W25340  16.515  16.435  10.301 -0.0550  0.0755 -0.3549
 8493W        W25341   2.740   9.731   4.019  0.4899 -0.2147  0.2159
 8494W        W25342  12.031  11.396   3.877  0.0992 -0.1313 -0.0826
 8495W        W25343   1.486  13.673   1.833  0.0587 -0.0234  0.0408
 8496W        W25344  15.195   1.198  15.041 -0.0775 -0.1997 -0.1486
 8497W        W25345  11.576   1.899  15.323  0.0681 -0.2276  0.2979
 8498W        W25346   9.275  12.910  15.807 -0.1204 -0.1413 -0.0295
 8499W        W25347   2.550  14.130   1.177  0.1108  0.1335  0.2912
 8500W        W25348   3.165   4.106  15.449  0.0655  0.0418 -0.0816
 8501W        W25349   9.793  12.515  15.393  0.1456 -0.0798  0.2189
 8502W        W25350  12.590   8.773  14.417 -0.1737 -0.0822  0.2676
 8503W        W25351  15.219  14.448  11.918  0.1629 -0.1021  0.2075
 8504W        W25352  15.772   3.168  16.482  0.1354 -0.1942 -0.1803
 8505W        W25353  14.159  10.279  11.943  0.0321 -0.1400 -0.0057
 8506W        W25354  17.510   2.195  13.219 -0.0749  0.2496  0.1149
 8507W        W25355   2.231  14.062   4.548  0.2566 -0.1242 -0.0624
 8508W        W25356  10.590   8.840  13.701  0.1355  0.0056 -0.2630
 8509W        W25357  13.952   5.076   5.517  0.2782 -0.3353  0.0522
 8510W        W25358  14.569  10.896   0.737  0.2183  0.0001  0.0939
 8511W        W25359  12.215  17.813  14.331 -0.1393  0.0005  0.1620
 8512W        W25360   1.251  15.711   3.326  0.0922  0.1658 -0.1541
 8513W        W25361   3.506   5.589  14.030 -0.3563  0.2414 -0.1868
 8514W        W25362  16.020  12.398   4.443  0.0770 -0.2271 -0.1927
 8515W        W25363   8.535  15.706  11.496 -0.0098 -0.2566 -0.2385
 8516W        W25364  10.116  13.776   2.329  0.3333 -0.0235 -0.1206
 8517W        W25365  12.031   1.155  14.840  0.3147 -0.1635 -0.1332
 8518W        W25366  11.943  13.463   2.257  0.0414 -0.0162 -0.1081
 8519W        W25367  15.443  16.246  16.547 -0.0118  0.0274 -0.1645
 8520W        W25368  16.704   8.458  13.785  0.1581 -0.0286  0.2669
 8521W        W25369  17.410   7.140  16.398 -0.0567  0.1220 -0.0163
 8522W        W25370  13.387  12.894  11.479  0.2229 -0.1365 -0.3618
 8523W        W25371   1.787  12.963   5.741  0.0470  0.0861 -0.1153
 8524W        W25372   4.597  17.340  14.976  0.1789 -0.1208 -0.1843
 8525W        W25373  16.575  17.482   4.735  0.0643  0.2295  0.0796
 8526W        W25374  13.792  10.493  14.873 -0.0169 -0.0800 -0.0647
 8527W        W25375  12.441  17.592   0.653  0.0617 -0.0713 -0.1890
 8528W        W25376  13.701   0.481  16.358  0.0928 -0.0749 -0.2656
 8529W        W25377   9.312  11.767  11.547 -0.1205 -0.1502 -0.1154
 8530W        W25378   5.982   5.183   0.622 -0.0138  0.0368  0.1790
 8531W        W25379   5.794   8.105  14.154 -0.1463 -0.3020  0.3371
 8532W        W25380   7.592   9.755  15.360 -0.2237 -0.1609  0.2618
 8533W        W25381  11.754   6.884   1.073  0.0802 -0.3073 -0.1358
 8534W        W25382  15.328   2.152  15.689  0.3388 -0.5516 -0.1919
 8535W        W25383   5.979  16.607   1.198 -0.1487 -0.2874 -0.1944
 8536W        W25384  11.318  14.027  13.330 -0.1869 -0.0192 -0.0161
 8537W        W25385   9.255   7.445   1.469 -0.1246 -0.0378  0.0487
 8538W        W25386  12.535  12.652   0.679 -0.1185  0.1855 -0.1521
 8539W        W25387  12.882  12.119   0.168  0.1531  0.1368 -0.3858
 8540W        W25388   5.249   0.119  15.449  0.0912 -0.0657  0.0317
 8541W        W25389  17.029   6.822   1.935  0.3510  0.1765  0.1440
 8542W        W25390   1.512   5.460  16.511  0.2060  0.1990 -0.1554
 8543W        W25391   9.465   5.065   1.387 -0.0752 -0.0385  0.2045
 8544W        W25392   3.429   7.306  16.313 -0.2525 -0.1126 -0.2417
 8545W        W25393  13.884  13.556  12.185  0.0596  0.2331  0.1025
 8546W        W25394   4.443   1.672   2.978  0.0840 -0.0240 -0.0810
 8547W        W25395  16.189   9.549   0.309  0.4399  0.0323 -0.2197
 8548W        W25396   4.149  11.581   1.644 -0.1999  0.0296  0.3429
 8549W        W25397   9.302   6.585  11.491 -0.3148  0.0935 -0.0289
 8550W        W25398   3.737   3.213   1.812  0.3552  0.0061 -0.2527
 8551W        W25399   5.027   9.574  15.988 -0.2272  0.3631  0.0725
 8552W        W25400   3.147  14.944   1.435  0.0868 -0.2518 -0.0236
 8553W        W25401   4.492   2.772  10.872  0.1203 -0.2217 -0.2124
 8554W        W25402  14.903   4.281  16.110  0.1575 -0.0467 -0.0090
 8555W        W25403   0.795   9.633   3.646  0.0442 -0.1854  0.0569
 8556W        W25404  15.160  11.624  15.575  0.0358 -0.0282  0.1645
 8557W        W25405   4.911   9.144   2.958 -0.0144 -0.0863 -0.2143
 8558W        W25406   7.705  13.031  14.793 -0.0681  0.0495  0.0278
 8559W        W25407  17.811  12.587  13.296 -0.0398 -0.2187 -0.1031
 8560W        W25408  16.998  15.312  12.954 -0.0074 -0.1832 -0.0849
 8561W        W25409  13.827  11.381   1.452  0.0450  0.0720 -0.1529
 8562W        W25410   8.964   9.216   4.930 -0.0371  0.1063  0.1077
 8563W        W25411  14.174  10.571  12.949 -0.1667  0.4115 -0.1583
 8564W        W25412   6.441  16.022   0.754 -0.0132 -0.1553 -0.2249
 8565W        W25413   8.984  16.182   0.789 -0.0701  0.0167  0.2035
 8566W        W25414  12.516   5.599  15.466  0.0065  0.0701 -0.2248
 8567W        W25415  13.357   1.814  14.612 -0.0898  0.1330  0.0013
 8568W        W25416   7.740  17.338   1.182  0.3341 -0.0409  0.0967
 8569W        W25417  14.303   7.561   4.118  0.0676  0.0887 -0.2351
 8570W        W25418   5.583  14.876   2.651 -0.0573 -0.0981  0.2463
 8571W        W25419   2.882   1.007   0.827  0.0447 -0.0370  0.2216
 8572W        W25420   3.801   5.204  16.125  0.0764 -0.1063  0.0973
 8573W        W25421   8.230   2.782   1.399  0.0387  0.0543 -0.0390
 8574W        W25422  11.146   8.377  14.779 -0.1584 -0.1505  0.3588
 8575W        W25423   0.533  11.067  16.204 -0.0670 -0.5637 -0.1838
 8576W        W25424   6.514   6.225   1.990  0.2956 -0.0239 -0.2578
 8577W        W25425  10.100  16.436  13.217  0.0182  0.0882 -0.0140
 8578W        W25426  10.584  12.460  12.731  0.0241  0.3203  0.1023
 8579W        W25427  15.631  11.416   4.324 -0.1546  0.1880 -0.1340
 8580W        W25428   8.954  15.598  14.720 -0.1351 -0.0444 -0.0586
 8581W        W25429  13.669  14.427   4.307 -0.0484  0.0982 -0.2684
 8582W        W25430   7.455   8.683  15.308  0.2062  0.1983 -0.1519
 8583W        W25431   1.377   0.060   0.303 -0.1632  0.0396 -0.0450
 8584W        W25432  12.716   1.064   4.863 -0.1264  0.1979  0.3270
 8585W        W25433  17.270  11.177   4.939 -0.0885 -0.2557  0.0950
 8586W        W25434  11.196   3.408  13.120  0.0044 -0.0190 -0.1194
 8587W        W25435  14.309   5.614   3.019 -0.1052 -0.4598  0.0444
 8588W        W25436  16.122   3.766   5.274 -0.2083  0.0151  0.1154
 8589W        W25437  15.220  13.252  16.287  0.1873  0.4965 -0.0715
 8590W        W25438  11.716  12.220  15.261  0.0310  0.0657 -0.2152
 8591W        W25439   9.348   8.548  15.568 -0.1114  0.0519  0.0782
 8592W        W25440   5.378  10.423  13.002 -0.1352  0.0715  0.1336
 8593W        W25441  14.372  12.772  13.412 -0.0009 -0.4300  0.1390
 8594W        W25442   7.996   8.287   4.446  0.3236 -0.2619 -0.0373
 8595W        W25443   4.757  14.107  16.026 -0.0667  0.1230  0.0246
 8596W        W25444  12.177   2.671   1.139 -0.0220 -0.2651 -0.2020
 8597W        W25445   9.382  10.424   0.473  0.3169 -0.1376  0.1301
 8598W        W25446   5.788   8.954  16.606  0.1566  0.2396 -0.2121
 8599W        W25447  17.346  10.169  14.399  0.0976 -0.1461  0.5985
 8600W        W25448   8.188   3.905   4.738  0.0377 -0.0517 -0.1204
 8601W        W25449  17.159   3.662  11.973  0.2939 -0.0957 -0.0633
 8602W        W25450   4.102   7.240  11.897 -0.0397  0.0623 -0.0896
 8603W        W25451   4.961   4.383  14.561 -0.0157 -0.3112 -0.0857
 8604W        W25452   6.025  13.188   0.338  0.2480 -0.0144  0.1215
 8605W        W25453   2.820  11.338   5.590  0.0416  0.2142  0.0664
 8606W        W25454  12.890  10.508   4.119  0.0270 -0.0350  0.2226
 8607W        W25455   9.266   2.025   6.275 -0.3734 -0.2140 -0.0450
 8608W        W25456  11.356   0.934  12.337  0.2312  0.0110  0.3501
 8609W        W25457  12.210   0.933  13.523  0.2721  0.0156 -0.2438
 8610W        W25458  10.417  14.312  14.902 -0.2783  0.0359  0.1184
 8611W        W25459   2.525  12.989   3.819  0.1872  0.1506 -0.1086
 8612W        W25460   7.188   0.755   3.795 -0.0982 -0.2498 -0.1084
 8613W        W25461  16.061   5.424   4.197 -0.3563 -0.2107  0.1235
 8614W        W25462   6.898   7.397  15.886  0.1128  0.0941  0.0545
 8615W        W25463   8.416  10.294  13.215 -0.3604  0.0786 -0.2175
 8616W        W25464  10.648  15.384  12.233 -0.0208 -0.1032  0.1284
 8617W        W25465   8.583   8.341  14.281  0.1040 -0.1356 -0.1330
 8618W        W25466  10.781   2.116  13.562  0.0465  0.1113  0.0925
 8619W        W25467  11.091   1.739   4.586  0.1265 -0.2547  0.3099
 8620W        W25468  15.089  17.256   5.243  0.1773 -0.1853  0.0691
 8621W        W25469   3.122  14.822   3.078  0.2335  0.2330  0.0437
 8622W        W25470   1.519   7.579  15.133  0.0712 -0.2599 -0.0309
 8623W        W25471   1.520  15.934  14.273 -0.2432  0.0964  0.0123
 8624W        W25472  16.705  11.831   3.500 -0.1273 -0.0173  0.1809
 8625W        W25473   9.801   0.708   5.206 -0.1711 -0.0968  0.0025
 8626W        W25474   1.448   9.741   3.470  0.1517 -0.1165 -0.1741
 8627W        W25475   9.592  14.365   1.863 -0.1642 -0.1642 -0.0783
 8628W        W25476   3.788  12.438   2.895 -0.2793 -0.4335  0.0348
 8629W        W25477  17.074   4.292   4.814 -0.0976 -0.0031  0.0405
 8630W        W25478   0.139  17.693   1.355  0.0304  0.2184  0.2971
 8631W        W25479  16.498   2.228   1.518  0.2389  0.1534 -0.0233
 8632W        W25480  15.215   1.526   3.328  0.2101 -0.2306  0.2559
 8633W        W25481  15.080   2.980   3.535  0.0032  0.2056  0.0490
 8634W        W25482  17.464   8.707  12.347  0.3316  0.0232 -0.0980
 8635W        W25483   1.125   0.173   2.811 -0.2429 -0.3788 -0.1344
 8636W        W25484  12.765  11.575  15.185 -0.2644 -0.2058 -0.0514
 8637W        W25485  15.402   3.197   2.120 -0.0617 -0.1455 -0.2939
 8638W        W25486   4.355  16.703  11.737  0.2267  0.0436  0.2192
 8639W        W25487   4.991  17.436   4.842 -0.4415 -0.1450 -0.0852
 8640W        W25488  16.044   2.574  14.219  0.1342  0.0112 -0.1392
 8641W        W25489   0.632  17.583   5.859  0.3019 -0.1562  0.5369
 8642W        W25490   6.583   6.095   0.751  0.0083 -0.0224 -0.1603
 8643W        W25491  12.062   3.348  13.114 -0.0396  0.2046  0.2547
 8644W        W25492   5.893   2.749  12.030 -0.0061 -0.1376 -0.2311
 8645W        W25493  11.121   7.657  15.380  0.1962  0.0121 -0.2915
 8646W        W25494   6.561  12.098  14.502 -0.0826  0.0856 -0.2488
 8647W        W25495   4.310   5.906  15.422  0.1049  0.0412 -0.2088
 8648W        W25496  15.860  13.139  12.480  0.1672 -0.0654 -0.1521
 8649W        W25497   6.950  12.172  16.069 -0.3253  0.1993 -0.0578
 8650W        W25498  17.577  10.153   0.889 -0.0795  0.2843  0.1826
 8651W        W25499   9.476  15.799  13.183 -0.0200 -0.2949 -0.2482
 8652W        W25500  11.437   5.059   2.046 -0.1673 -0.1900  0.0385
 8653W        W25501   1.797   4.818  12.584  0.1868 -0.1123 -0.2510
 8654W        W25502  14.177  13.706  14.376  0.1076 -0.1634 -0.2413
 8655W        W25503   2.144  13.170  15.750  0.0122  0.5495  0.0632
 8656W        W25504  11.712  16.592   5.844 -0.1330 -0.0350  0.0223
 8657W        W25505   4.410   3.194  15.779 -0.0139 -0.3495  0.1675
 8658W        W25506  14.505   7.460  14.138  0.0453 -0.0184  0.2111
 8659W        W25507   5.071   9.523   3.369  0.0169  0.1569  0.0174
 8660W        W25508   5.040  11.777  16.149 -0.0389 -0.0658 -0.2206
 8661W        W25509   1.707   9.902  11.756  0.1758  0.2093  0.1021
 8662W        W25510  11.442   2.789   2.897  0.2105  0.1900  0.0590
 8663W        W25511   2.442  14.394  16.366  0.1096  0.2801 -0.2028
 8664W        W25512   2.166   5.115  11.795 -0.3175 -0.2703 -0.0962
 8665W        W25513  13.425   2.613  12.914  0.0950 -0.3555 -0.2987
 8666W        W25514  13.356   4.184   3.538 -0.0554  0.4159  0.2536
 8667W        W25515   4.670   1.520   2.272  0.0381  0.0763 -0.1020
 8668W        W25516   6.935   6.376   0.908  0.1720  0.2609 -0.2769
 8669W        W25517   5.046  13.372  15.145 -0.1128  0.1620 -0.0067
 8670W        W25518  14.315   3.208   2.440  0.1173  0.0807 -0.1592
 8671W        W25519   7.063   6.299  12.838  0.0725 -0.0113  0.1145
 8672W        W25520  17.570   6.855  12.844  0.0132  0.1678  0.0345
 8673W        W25521  15.860  17.446   2.174  0.0081 -0.0482 -0.2731
 8674W        W25522  15.512   8.347   3.871  0.0841 -0.2070 -0.0781
 8675W        W25523  11.098   8.074  16.578 -0.2891  0.2596 -0.0815
 8676W        W25524   2.199   3.840   4.734 -0.0221 -0.2142 -0.2370
 8677W        W25525  15.085  17.838  12.163  0.1483 -0.0803  0.2234
 8678W        W25526  12.028  14.993  13.685 -0.0326 -0.0069  0.2292
 8679W        W25527   6.443   8.638  13.602 -0.2063 -0.2838  0.2239
 8680W        W25528   5.264  15.583   3.823  0.1567 -0.0465 -0.0914
 8681W        W25529   3.704  13.069   1.357  0.0006  0.3371  0.1980
 8682W        W25530   2.233   1.290  13.970  0.1974  0.2078  0.0658
 8683W        W25531   3.148   0.169   0.291 -0.2960 -0.1346 -0.0697
 8684W        W25532   4.091  12.629  16.018  0.3328 -0.0435  0.1425
 8685W        W25533  15.928  17.818  14.260  0.1680  0.0920 -0.2226
 8686W        W25534   7.239   8.220  11.448 -0.1224  0.1531 -0.2771
 8687W        W25535   0.998   0.320   0.569 -0.2444 -0.0944  0.0123
 8688W        W25536   1.158   6.218   4.312 -0.1819  0.0286 -0.1368
 8689W        W25537  15.578  11.748   2.933 -0.3928  0.1504  0.0255
 8690W        W25538  17.744   9.246   4.448  0.1393  0.0600 -0.3321
 8691W        W25539  12.559  11.634  16.110 -0.1184 -0.0073 -0.2100
 8692W        W25540  12.553   5.121  15.347 -0.2735  0.0728  0.1414
 8693W        W25541  17.032  17.482  13.516 -0.0288  0.0739  0.0677
 8694W        W25542   2.748  11.254   4.584 -0.2114  0.5186  0.1190
 8695W        W25543   9.582   5.228   0.671  0.0336  0.0157 -0.4581
 8696W        W25544   6.992  11.201   3.567  0.3506  0.1822 -0.1945
 8697W        W25545   7.934   6.943  12.209 -0.1487  0.3035  0.0588
 8698W        W25546  12.614  17.405  15.073 -0.1704  0.1383  0.2203
 8699W        W25547   6.418   8.037   4.813  0.3187 -0.1083  0.0215
 8700W        W25548   2.530  16.883   0.253  0.2775 -0.0865 -0.1310
 8701W        W25549   8.367   2.971   1.921 -0.1023 -0.0224  0.1503
 8702W        W25550  15.307   5.071   2.967  0.2072 -0.0309  0.0582
 8703W        W25551   3.542  14.897  14.985  0.2195  0.2747 -0.0010
 8704W        W25552  16.768   1.349  15.638 -0.0657 -0.0942 -0.2322
 8705W        W25553   5.559   8.671   1.636 -0.1274  0.0557  0.1483
 8706W        W25554   9.393  13.324  13.159  0.1349 -0.2058  0.0286
 8707W        W25555  17.532  12.516  13.747 -0.1174 -0.3042 -0.3640
 8708W        W25556   8.562  13.542   3.351  0.0417 -0.0827  0.3901
 8709W        W25557   0.712  13.879   1.047  0.1049  0.1344 -0.3676
 8710W        W25558   9.936   5.473   5.327 -0.0938 -0.4769 -0.0390
 8711W        W25559   5.996  10.623   2.002  0.1375 -0.1379  0.2077
 8712W        W25560  16.665  14.224   2.469 -0.2410  0.1922 -0.1926
 8713W        W25561   4.686  13.954   5.443  0.1654 -0.0539  0.0520
 8714W        W25562  16.283  17.659   2.322  0.1873 -0.0722 -0.0873
 8715W        W25563  16.889   6.106   1.415 -0.1250 -0.0994  0.1711
 8716W        W25564  14.280  16.914   4.733  0.0612  0.0777  0.0995
 8717W        W25565  13.393  12.738   3.104 -0.3110  0.2287 -0.1745
 8718W        W25566   0.530  15.911  12.332  0.1454 -0.2678 -0.3292
 8719W        W25567   4.518  16.871   0.122  0.2297 -0.0524  0.0352
 8720W        W25568   6.146   3.784   3.252  0.1791 -0.0318 -0.1263
 8721W        W25569   9.851   1.515  13.387  0.0310 -0.2078 -0.1952
 8722W        W25570  16.953   1.042  15.979 -0.1316  0.1290 -0.0318
 8723W        W25571  16.083   3.726  14.238  0.0560  0.2471  0.3382
 8724W        W25572   6.022   1.325   3.727 -0.3487 -0.1546 -0.0379
 8725W        W25573  11.214  12.570  15.691 -0.0680 -0.1032  0.2034
 8726W        W25574   6.950  15.416  12.132  0.0427  0.2960  0.0796
 8727W        W25575   7.431   0.800   3.235 -0.0929  0.3901 -0.0378
 8728W        W25576   2.191   5.905   3.093  0.0949  0.2471 -0.1079
 8729W        W25577  16.003  15.440   1.362 -0.3677  0.2680  0.1130
 8730W        W25578   6.036   0.761  16.511 -0.1019 -0.0524 -0.1045
 8731W        W25579   4.344   1.144  16.423 -0.0511  0.0288  0.1679
 8732W        W25580   1.015  16.303  12.680 -0.1498 -0.0914 -0.2439
 8733W        W25581   9.692  12.866   2.830 -0.1522 -0.0984 -0.1932
 8734W        W25582   9.330   9.215  14.110 -0.1354 -0.1340  0.1866
 8735W        W25583   5.162   8.824  10.822  0.0521 -0.0938 -0.2127
 8736W        W25584   1.485   3.116   4.403  0.0156  0.0303 -0.1764
 8737W        W25585   1.810   1.092   3.359 -0.0900  0.3526 -0.2000
 8738W        W25586   6.610   1.701  14.728  0.0044 -0.2148  0.0838
 8739W        W25587   6.349  17.060   2.030  0.0087  0.0159  0.0079
 8740W        W25588   0.567  16.495   4.509 -0.1996  0.4191 -0.1993
 8741W        W25589   4.976  17.361   4.357  0.2423  0.0520 -0.2171
 8742W        W25590  13.765  15.867   0.409 -0.1915 -0.1178 -0.0661
 8743W        W25591   0.964  17.155  12.171 -0.0560 -0.1449  0.2868
 8744W        W25592  11.274  17.833  13.169  0.2694  0.0669 -0.0061
 8745W        W25593   9.599   3.025   3.983 -0.2413  0.4256 -0.0094
 8746W        W25594   8.388  16.652   3.700 -0.2992 -0.2695 -0.1539
 8747W        W25595   0.474   2.770   1.592  0.0744 -0.2318 -0.0327
 8748W        W25596  17.369  15.744   3.995  0.0112 -0.0259  0.1549
 8749W        W25597   0.192  15.265  11.653  0.1420  0.3153 -0.3095
 8750W        W25598   7.160  15.113  15.619 -0.1089 -0.0410 -0.0383
 8751W        W25599   1.463  12.075  16.311 -0.0972 -0.1113 -0.1142
 8752W        W25600  12.129  15.667  14.112  0.0502  0.0853 -0.1636
 8753W        W25601  11.598  17.418   0.449 -0.1585  0.3240  0.0458
 8754W        W25602  12.489   1.559  15.014 -0.0131  0.3208  0.0025
 8755W        W25603   4.377   3.488   0.711  0.1239 -0.1769 -0.1212
 8756W        W25604  11.076  14.260   4.455 -0.2699  0.1232  0.0482
 8757W        W25605   2.119  15.278  12.469 -0.3027 -0.2097 -0.1581
 8758W        W25606   0.084  13.701  14.559 -0.0598 -0.3353  0.2146
 8759W        W25607   2.063  13.849   1.763 -0.6136 -0.4805  0.2646
 8760W        W25608   3.247  10.143   2.555 -0.3604  0.0603  0.4634
 8761W        W25609   5.872   9.168   1.650 -0.0340 -0.3338 -0.1498
 8762W        W25610  10.384   5.047  15.637 -0.2110 -0.0330 -0.2248
 8763W        W25611  12.224   7.415   2.247  0.2321 -0.0713 -0.0580
 8764W        W25612   0.437   6.539  13.324  0.1166 -0.0798 -0.0914
 8765W        W25613  13.418   6.829  16.133  0.0213 -0.1758  0.0189
 8766W        W25614   5.167   7.862   2.773  0.1917 -0.1783 -0.1824
 8767W        W25615   3.411   4.330  13.507 -0.1395  0.2126  0.1588
 8768W        W25616   5.436  12.894   4.741  0.1607  0.0426 -0.5707
 8769W        W25617  10.608  10.283   2.396 -0.1426 -0.2540  0.0567
 8770W        W25618   2.218  15.544  14.455  0.0439  0.0936 -0.0306
 8771W        W25619  14.158   9.113  13.316  0.0098 -0.1121 -0.2594
 8772W        W25620   9.285   3.781   0.150 -0.0237  0.0998 -0.2631
 8773W        W25621   3.294   6.698   3.312  0.0946  0.0797  0.3553
 8774W        W25622  14.481  16.965   6.269 -0.0194  0.0462  0.2741
 8775W        W25623   5.963  12.304   0.296 -0.1769 -0.0412  0.0230
 8776W        W25624  17.624   8.727  13.391  0.0244  0.1931 -0.4242
 8777W        W25625  16.711  14.056  11.546 -0.0528  0.0228 -0.1608
 8778W        W25626  11.589   0.253   3.209  0.1105  0.1471  0.1496
 8779W        W25627  17.837  13.722   4.219 -0.1868 -0.0113  0.3262
 8780W        W25628  14.534   9.641   1.641 -0.0450 -0.0948  0.0977
 8781W        W25629  14.186  10.014   2.082 -0.0187 -0.2186 -0.0911
 8782W        W25630   6.451  15.094   2.697 -0.0763  0.1628  0.2550
 8783W        W25631  15.849   8.158  16.062 -0.0730  0.0646 -0.2246
 8784W        W25632  10.560   9.427   3.446  0.0956 -0.3370 -0.0523
 8785W        W25633   4.967   2.766  13.834 -0.1369 -0.2111 -0.1952
 8786W        W25634  17.628  17.439   3.848  0.2905 -0.1715  0.0287
 8787W        W25635   4.928  16.750   4.917  0.1492  0.0814  0.0883
 8788W        W25636  13.961   3.448   0.899 -0.0089 -0.4099  0.1299
 8789W        W25637  17.356   2.670  16.079 -0.1076 -0.0019  0.1930
 8790W        W25638  16.202  14.977  15.414 -0.0666  0.2324 -0.2755
 8791W        W25639   3.863  12.276  11.313 -0.0650 -0.2526 -0.0532
 8792W        W25640   0.788   1.785  11.467  0.0594  0.0554 -0.1571
 8793W        W25641  14.501   7.341  13.185 -0.1186  0.2022  0.2244
 8794W        W25642  17.734  14.045   5.017 -0.3976  0.1756 -0.3265
 8795W        W25643   1.415   2.081   2.648 -0.5607 -0.0439 -0.3102
 8796W        W25644   1.206   0.983  12.940 -0.0209 -0.2215 -0.1829
 8797W        W25645  13.789   1.868  13.463  0.1784  0.0696 -0.2338
 8798W        W25646  11.869  14.237   1.247  0.1875  0.1614 -0.1865
 8799W        W25647   0.228  11.147   0.790 -0.3069  0.1329  0.2036
 8800W        W25648  17.798   9.639   2.695 -0.0260 -0.2283 -0.0879
 8801W        W25649   5.220   6.942   1.992 -0.2714 -0.0921  0.0641
 8802W        W25650   0.673   3.671  12.825 -0.0258  0.1221 -0.0155
 8803W        W25651   6.212  16.138  11.987  0.1050  0.0592  0.2670
 8804W        W25652   9.966  13.011   4.601  0.4826 -0.1474 -0.2283
 8805W        W25653   3.045   3.145  13.347 -0.1474 -0.0163  0.3768
 8806W        W25654  12.037  10.619   0.086  0.2281  0.2417  0.1945
 8807W        W25655   5.631  10.460  15.930  0.0944  0.0845  0.2039
 8808W        W25656   0.936   1.495   2.430  0.2351 -0.1581 -0.0999
 8809W        W25657   7.353  11.841  12.140 -0.3940  0.1789  0.0188
 8810W        W25658   5.219   7.159   3.457 -0.3746 -0.0281 -0.4916
 8811W        W25659  12.271  12.498   2.115  0.0578 -0.3268 -0.0441
 8812W        W25660   4.799   0.314  15.288  0.3812 -0.0550 -0.0258
 8813W        W25661  11.860   4.956   3.869  0.1815 -0.0627 -0.0112
 8814W        W25662   7.393  16.682  10.965  0.0216  0.1260  0.2468
 8815W        W25663  17.186   7.580  16.475  0.0532  0.0365  0.0620
 8816W        W25664   9.226  17.189   5.639  0.1984 -0.1681 -0.1188
 8817W        W25665  16.164  10.185   0.678  0.6119 -0.0337  0.2149
 8818W        W25666   8.144  14.371  15.844 -0.0792  0.1154 -0.0214
 8819W        W25667  17.422   0.687   5.026  0.2875 -0.1732  0.0282
 8820W        W25668   4.455   7.636  15.370 -0.1472 -0.0707 -0.0871
 8821W        W25669  17.852   5.437   3.773  0.0269  0.2051 -0.1692
 8822W        W25670   7.659   2.977   2.644 -0.1855 -0.1487 -0.4041
 8823W        W25671  12.649   1.872  11.432 -0.2952  0.0374  0.0256
 8824W        W25672   8.269  16.106  12.176  0.1885  0.1049 -0.3228
 8825W        W25673  16.829  12.698  14.442 -0.2081  0.0545  0.0108
 8826W        W25674   1.557   6.595   4.752 -0.1062  0.1726  0.0058
 8827W        W25675   3.735   3.786   3.241  0.3543  0.1322 -0.0162
 8828W        W25676   1.467  14.485  16.172 -0.3228  0.1694  0.1041
 8829W        W25677   5.519   1.976   5.160  0.1480  0.1358 -0.1287
 8830W        W25678   5.204  15.388  10.312 -0.2284 -0.1369  0.0407
 8831W        W25679  17.307   0.808  14.164  0.0595  0.0071  0.0323
 8832W        W25680   5.563  11.660   2.663 -0.0330 -0.1946 -0.1983
 8833W        W25681   4.814   3.552   4.516 -0.2376  0.1148  0.0476
 8834W        W25682   8.406   9.840  14.483 -0.0734 -0.1054  0.0595
 8835W        W25683   6.659  17.152   1.109  0.2639  0.1273  0.1340
 8836W        W25684  10.869  12.886   1.356 -0.1665 -0.1428 -0.2371
 8837W        W25685  13.606  17.790  15.097 -0.0643 -0.1226 -0.0682
 8838W        W25686   3.481   9.030  14.560  0.0058 -0.0647  0.0416
 8839W        W25687  17.738   1.072  11.133  0.2211 -0.1308  0.2801
 8840W        W25688  10.253  10.139   0.677  0.0168  0.4977  0.1732
 8841W        W25689   1.810   9.343   0.741  0.1846 -0.3491 -0.0734
 8842W        W25690   1.341   2.124  11.226 -0.0889 -0.1583 -0.0529
 8843W        W25691   5.436  17.143   0.470 -0.2146 -0.2604  0.2236
 8844W        W25692   0.403  10.718  14.387  0.0228  0.2752  0.1522
 8845W        W25693   8.217   6.419   2.265  0.2340 -0.2643  0.0437
 8846W        W25694  15.259  11.983  15.850  0.4116 -0.2803  0.0528
 8847W        W25695   3.929   4.021   3.650 -0.0971 -0.0732 -0.0736
 8848W        W25696   5.725   6.978  16.018  0.0779 -0.2980  0.0649
 8849W        W25697  14.851  17.586  13.963  0.1026  0.3160 -0.3033
 8850W        W25698  12.809   9.943   1.833 -0.4485 -0.2037 -0.1278
 8851W        W25699  12.044   6.296   1.570 -0.2831  0.1444  0.1154
 8852W        W25700   5.089   8.882  15.538  0.1311  0.0394 -0.4398
 8853W        W25701   7.894   7.264  14.025 -0.0571  0.0460  0.0590
 8854W        W25702   3.559  10.116   4.701  0.1648  0.1770  0.1296
 8855W        W25703   6.673  11.795  11.636 -0.1542 -0.1566  0.0673
 8856W        W25704   9.470   0.813  11.744  0.0913 -0.0066 -0.1658
 8857W        W25705   8.078  10.974  12.690  0.1092 -0.2527 -0.0823
 8858W        W25706   7.809   0.763  14.107  0.1699  0.2605 -0.0638
 8859W        W25707   7.219  10.755   4.659 -0.0527 -0.1131 -0.0260
 8860W        W25708   2.310  16.178   2.417 -0.1129 -0.2204 -0.1629
 8861W        W25709  14.241   2.506   4.026  0.2796  0.1874  0.0222
 8862W        W25710  10.644   1.843   5.360 -0.3016  0.0867 -0.0305
 8863W        W25711   1.690   5.981  13.499 -0.1197  0.0129 -0.0943
 8864W        W25712   5.124   2.831  13.153  0.1339 -0.2226 -0.0357
 8865W        W25713  17.829   8.560   0.594 -0.0804 -0.3087 -0.1216
 8866W        W25714  15.925   2.872   1.372  0.0844  0.2356 -0.0940
 8867W        W25715  11.543  10.324   1.194 -0.0158  0.2405 -0.1436
 8868W        W25716  15.389  12.024  11.510 -0.1670 -0.2419  0.0421
 8869W        W25717   5.667   2.666  11.423 -0.0036 -0.2505 -0.1212
 8870W        W25718  12.304   6.671   1.088 -0.0990  0.1019 -0.0880
 8871W        W25719   8.726   6.528   1.537  0.3149 -0.2230  0.1002
 8872W        W25720  15.007  17.367  10.588  0.3845  0.1060 -0.2148
 8873W        W25721   4.585   7.846   3.104  0.0786  0.1764  0.0813
 8874W        W25722  16.649   8.086   4.824 -0.1528  0.3528 -0.1893
 8875W        W25723   5.848  16.293  14.400 -0.1090 -0.0561  0.2172
 8876W        W25724   2.983   6.339   3.833  0.2756  0.0037 -0.0367
 8877W        W25725   6.003   4.367  15.403  0.1044  0.1038  0.1377
 8878W        W25726   8.078   3.978  16.042  0.2554  0.2256  0.3507
 8879W        W25727  15.658  10.465  14.560  0.2244  0.2686  0.1423
 8880W        W25728   3.632   3.729   0.239  0.0599  0.3111 -0.0105
 8881W        W25729   6.800   6.204   3.826  0.1707 -0.0408  0.0338
 8882W        W25730   3.875   3.398  13.883  0.0667  0.1610 -0.0078
 8883W        W25731  12.628  16.149  14.895 -0.2018  0.1829  0.0813
 8884W        W25732  10.344  12.727   5.598 -0.1805  0.1915 -0.1024
 8885W        W25733   7.928   4.456   2.909 -0.2008 -0.0074  0.1245
 8886W        W25734   8.151   9.915   0.044  0.2404 -0.1186  0.1931
 8887W        W25735   6.040  17.831   1.044 -0.4329 -0.0834 -0.3001
 8888W        W25736  13.106   0.350   0.983  0.0324 -0.1640  0.0841
 8889W        W25737   7.414  16.837   0.079 -0.1624 -0.0571  0.2960
 8890W        W25738   5.665   9.333   2.132 -0.0371 -0.0858 -0.1005
 8891W        W25739   4.643   8.743   2.836  0.0776  0.3007 -0.1973
 8892W        W25740   0.997  11.378   5.529 -0.0883  0.0243 -0.1052
 8893W        W25741  10.135  17.848   2.004  0.4351  0.1040 -0.0373
 8894W        W25742   1.820   6.506   2.998  0.0063 -0.2386 -0.1517
 8895W        W25743   1.869  11.722  12.968 -0.1374  0.5113  0.0536
 8896W        W25744  12.135   4.083   5.714  0.0298  0.0044 -0.0212
 8897W        W25745   8.111   6.457   0.194  0.0711  0.0565 -0.1937
 8898W        W25746   2.991  13.129   3.709 -0.1891  0.1748  0.1936
 8899W        W25747  10.287   5.978   0.967 -0.0262  0.0905  0.0863
 8900W        W25748   1.270  10.328  16.579  0.1018  0.0460  0.0796
 8901W        W25749  15.095   0.399  15.358 -0.1215 -0.3402 -0.2101
 8902W        W25750  14.981   0.396  14.656 -0.0229 -0.0193  0.1272
 8903W        W25751   7.476   0.356   1.921 -0.1696  0.3906 -0.1540
 8904W        W25752   2.719   0.514  12.041  0.1710  0.0855 -0.0610
 8905W        W25753   8.037   1.314   2.146 -0.0070 -0.0813  0.1817
 8906W        W25754  11.983  14.629  14.700  0.0204  0.1173  0.0533
 8907W        W25755  13.939   8.683  11.846 -0.2313 -0.0559 -0.2487
 8908W        W25756  10.900   8.117   4.781  0.0506  0.0697  0.2101
 8909W        W25757  10.381  16.764   3.760 -0.1692 -0.1678 -0.4104
 8910W        W25758  13.986   6.009  13.878  0.2357 -0.0954  0.0561
 8911W        W25759   9.751  17.418  16.262  0.3036 -0.1324 -0.1683
 8912W        W25760   8.162  11.477   0.957 -0.0144 -0.3019 -0.0329
 8913W        W25761  14.569   6.891   6.061  0.2895  0.4898  0.1727
 8914W        W25762  14.967  10.490   2.925 -0.0586 -0.0861 -0.0643
 8915W        W25763  16.974   9.572   3.750  0.3713 -0.0029 -0.0161
 8916W        W25764  17.052   5.291  12.876  0.0511 -0.0725  0.1064
 8917W        W25765  12.903  14.816  13.099  0.0235 -0.0442  0.0585
 8918W        W25766  14.242  13.131  16.114  0.1763 -0.2517  0.0057
 8919W        W25767   9.055   6.669  14.586  0.0230  0.1797  0.0713
 8920W        W25768  17.350   4.576   1.665 -0.1397  0.0765 -0.0338
 8921W        W25769  15.607  14.402   4.129 -0.1742  0.0238 -0.0371
 8922W        W25770   8.843  15.681  12.421  0.0267 -0.1711  0.0361
 8923W        W25771   0.499  14.759   3.533  0.1435 -0.0278  0.0771
 8924W        W25772  17.633  14.313  11.492  0.2175 -0.0546  0.1203
 8925W        W25773   3.847   1.402  14.821  0.1344 -0.1421  0.3376
 8926W        W25774   2.388   9.060  12.974  0.4628  0.2801 -0.4469
 8927W        W25775  17.664  13.013   3.296 -0.3400  0.0806  0.0779
 8928W        W25776  15.488  14.052  16.332  0.0387 -0.3214 -0.1161
 8929W        W25777  17.733   1.998  15.273  0.2806 -0.2192 -0.0888
 8930W        W25778   5.365  17.440  15.596 -0.1190 -0.1896 -0.1069
 8931W        W25779   7.805   5.757  12.684 -0.1308 -0.2265 -0.1974
 8932W        W25780  10.761   7.015   5.332  0.3028  0.1193 -0.2350
 8933W        W25781   7.903   0.168  12.788 -0.1331 -0.0073  0.0311
 8934W        W25782  11.351   3.475   4.042  0.1454  0.0153 -0.0150
 8935W        W25783   0.014   1.975  12.879  0.1964 -0.0698  0.0592
 8936W        W25784  13.237   2.246  10.997 -0.0158 -0.1918  0.1933
 8937W        W25785   3.626  16.691   1.915  0.3708  0.0027 -0.3067
 8938W        W25786  10.529   6.991   4.462  0.0970  0.0520 -0.0141
 8939W        W25787  10.162  16.412  16.213  0.0250  0.1279  0.0618
 8940W        W25788  16.535   7.376  14.858 -0.0003 -0.1739  0.3457
 8941W        W25789   1.078  11.836   1.552  0.3515 -0.1393  0.0394
 8942W        W25790  17.136   7.720  13.644  0.2715 -0.0384  0.0775
 8943W        W25791   0.356  13.193  16.515 -0.1007 -0.0508 -0.0536
 8944W        W25792   9.489   7.383   4.403 -0.2036 -0.6144  0.0292
 8945W        W25793   9.863  15.248   4.700 -0.1475 -0.1034  0.0857
 8946W        W25794  10.967  13.921   1.694  0.0208  0.2243  0.1887
 8947W        W25795   7.916  12.700  12.048 -0.0736  0.1973 -0.0638
 8948W        W25796   5.456  16.719  16.291 -0.1867 -0.0550 -0.1654
 8949W        W25797   5.802  17.215  13.063  0.0356  0.0167  0.4395
 8950W        W25798   9.658   6.501  12.896  0.0356 -0.2185  0.0264
 8951W        W25799   1.328   8.012   1.885  0.0409 -0.5138  0.2053
 8952W        W25800  15.607   9.926   0.688 -0.2641  0.3048 -0.1727
 8953W        W25801  16.343  17.815  10.831 -0.1225 -0.3134 -0.4206
 8954W        W25802   5.024  16.766   4.376 -0.0125 -0.2625 -0.2485
 8955W        W25803   9.966  15.905  12.401  0.0588  0.2506  0.0695
 8956W        W25804  12.384  14.887   4.334 -0.1641 -0.0541 -0.2991
 8957W        W25805  16.404  12.743   1.003 -0.0656  0.0203  0.0000
 8958W        W25806  12.685   7.489   2.019  0.0323  0.1278 -0.3005
 8959W        W25807   3.984   7.012  12.896  0.4184 -0.1268  0.0710
 8960W        W25808   8.534  11.320   0.347 -0.2160  0.0849  0.0512
 8961W        W25809   0.322  13.340   4.581  0.2258 -0.2003  0.3257
 8962W        W25810  15.727   5.831   4.340 -0.0076  0.1170  0.4612
 8963W        W25811   1.699   6.880  10.329  0.0664 -0.1348  0.2613
 8964W        W25812   1.984  15.529   4.480  0.3157  0.1348  0.2024
 8965W        W25813   3.471   3.643   4.849 -0.2145 -0.1768 -0.1684
 8966W        W25814   1.437   2.260   2.175  0.0708 -0.1244  0.3067
 8967W        W25815   5.156  14.399  12.571 -0.1786 -0.0293  0.1000
 8968W        W25816   0.455   4.012  13.101  0.0601 -0.2303  0.3953
 8969W        W25817   6.770   3.577   0.362  0.2041  0.0472 -0.0949
 8970W        W25818   1.734   1.112  12.524 -0.1360 -0.1734  0.0759
 8971W        W25819  15.426   8.780  15.694  0.1409 -0.0238 -0.1229
 8972W        W25820   8.300   9.500  11.918 -0.0038  0.0061 -0.2710
 8973W        W25821   5.025  17.536   1.290  0.0695 -0.0971 -0.1452
 8974W        W25822   6.279  16.494   3.227  0.2271 -0.2114  0.1325
 8975W        W25823   1.935   7.141  16.300  0.0149 -0.1169  0.1185
 8976W        W25824   8.164  12.870   4.593  0.3695 -0.0988  0.0584
 8977W        W25825  17.356   4.117  15.097 -0.0457 -0.0435  0.2746
 8978W        W25826  15.050  17.215  12.650 -0.0725 -0.0132  0.0034
 8979W        W25827   5.217   3.795   0.073  0.0877  0.2385  0.1623
 8980W        W25828   1.674   7.966  12.446 -0.2094 -0.2029  0.1954
 8981W        W25829   3.210   3.153  11.594 -0.0254 -0.0756  0.0522
 8982W        W25830   1.171   6.595   4.006  0.0767  0.1848 -0.1045
 8983W        W25831  14.990  12.490  12.786  0.0333 -0.0594 -0.0035
 8984W        W25832   8.198   8.329  13.456  0.0168 -0.2774  0.0466
 8985W        W25833  15.225  15.451   3.976 -0.3303  0.5106  0.2016
 8986W        W25834   4.629   0.026   3.738  0.2494 -0.2076  0.1908
 8987W        W25835  13.804   6.476   1.568 -0.0011  0.0517 -0.5041
 8988W        W25836   6.455   8.067  12.265  0.1198 -0.1241  0.3944
 8989W        W25837  10.091  17.219   0.857  0.2168 -0.3854  0.0219
 8990W        W25838   3.218   0.212   4.041 -0.4672  0.3841  0.1235
 8991W        W25839  13.511   2.138  15.976  0.1956 -0.1852 -0.1449
 8992W        W25840  12.438   8.016   0.244 -0.0510  0.0139 -0.1130
 8993W        W25841   8.946   4.685   2.249  0.0469 -0.1020  0.1054
 8994W        W25842  13.169  17.249  11.648  0.2443  0.0945 -0.1174
 8995W        W25843   5.918   6.702  16.427 -0.0512  0.1616 -0.3148
 8996W        W25844  11.117   3.804   0.039  0.0058 -0.3781 -0.0527
 8997W        W25845  10.887   7.877  12.443 -0.0224  0.2921 -0.1809
 8998W        W25846   0.759   9.644   4.314  0.1859  0.0984  0.1878
 8999W        W25847  15.185   9.688  12.875  0.1191 -0.0780  0.1217
 9000W        W25848  11.068   6.154   4.907  0.3456 -0.1092 -0.1172
 9001W        W25849   4.458   6.784   2.070 -0.0922  0.1989 -0.0526
 9002W        W25850  17.347   7.306  13.436  0.0210  0.0956  0.1468
 9003W        W25851   9.108  11.863  14.441 -0.0795  0.1117 -0.0161
 9004W        W25852   6.584   4.238  15.392 -0.0824  0.1450  0.0538
 9005W        W25853   9.517  10.272   4.332  0.1501 -0.1698 -0.3882
 9006W        W25854   1.055   3.564  11.483  0.2678 -0.4659  0.2159
 9007W        W25855  17.677   2.649   3.109 -0.1793 -0.0456  0.0359
 9008W        W25856   3.870  15.745  15.624  0.0654 -0.1645  0.3037
 9009W        W25857   7.305  11.335   4.975 -0.0049  0.1199  0.1337
 9010W        W25858  14.553   0.087   4.971  0.0557  0.0416 -0.1759
 9011W        W25859   0.935  11.489  11.599  0.3529 -0.0725  0.0778
 9012W        W25860  13.196  11.793  11.784 -0.0612 -0.1704 -0.1517
 9013W        W25861  10.537   9.386  14.173  0.1280  0.3933 -0.0475
 9014W        W25862   2.050   3.312   3.003  0.1721  0.0814  0.1994
 9015W        W25863   1.325  14.246   1.741 -0.3684  0.4768  0.2211
 9016W        W25864  12.023   0.875   5.341 -0.1609  0.1763  0.2077
 9017W        W25865   0.254   0.529   0.713 -0.1816  0.0826 -0.2338
 9018W        W25866   6.241   6.467  14.848  0.1027  0.2616 -0.1064
 9019W        W25867  11.451   8.032  12.346  0.2282  0.2273 -0.4187
 9020W        W25868  10.076  16.793  10.789  0.0278 -0.2487 -0.0154
 9021W        W25869  17.765   3.087  13.298 -0.1851  0.1518  0.2487
 9022W        W25870   2.275  10.607   6.125 -0.1529  0.1836  0.0813
 9023W        W25871  10.190   7.256   3.243 -0.0209  0.0253  0.1353
 9024W        W25872  15.820  10.805  12.653  0.1444 -0.0876  0.1322
 9025W        W25873   9.919   8.869   0.834 -0.1566  0.4583  0.2123
 9026W        W25874   0.333  13.909   3.807 -0.1279 -0.1823  0.2125
 9027W        W25875  14.841  13.302  12.188  0.0348 -0.0814  0.2625
 9028W        W25876   0.298  15.621   1.646  0.1690 -0.0021  0.1225
 9029W        W25877   1.340   1.677  11.460 -0.1986 -0.3686 -0.0283
 9030W        W25878  17.742   8.183  14.518  0.1683 -0.2338 -0.2535
 9031W        W25879   7.228   5.150   0.793 -0.0151  0.4623  0.0640
 9032W        W25880  16.848   4.490   1.021 -0.0795  0.2276  0.1518
 9033W        W25881  12.186  13.445   0.475 -0.0484 -0.2750 -0.1953
 9034W        W25882   3.332  13.890  12.127 -0.0089  0.2495 -0.1524
 9035W        W25883  15.036   0.658  12.954  0.1054  0.0379 -0.1695
 9036W        W25884   5.641   7.873   1.200 -0.0799  0.1956 -0.1006
 9037W        W25885   7.430  14.605   3.894 -0.0605 -0.1655 -0.0869
 9038W        W25886   2.474   2.940  15.975 -0.3039  0.1864  0.2304
 9039W        W25887   7.316   9.893   0.310 -0.0466 -0.1147 -0.1556
 9040W        W25888  10.533   4.529   2.405  0.3709  0.0992  0.0323
 9041W        W25889   9.887  17.175   1.481 -0.2179  0.1383 -0.2274
 9042W        W25890   5.332  12.900   2.369 -0.0944 -0.0841 -0.0711
 9043W        W25891   5.431   4.944  13.407  0.0676 -0.0784 -0.1377
 9044W        W25892   3.189  14.651  13.869  0.1029  0.0539  0.0336
 9045W        W25893   7.096  13.220  12.332  0.1724 -0.2727 -0.0490
 9046W        W25894   3.519   6.248  11.834 -0.2197  0.3162  0.1730
 9047W        W25895   8.287   8.615  15.907 -0.2734 -0.1578  0.2883
 9048W        W25896   2.957  10.628   1.148 -0.3282  0.2166 -0.4481
 9049W        W25897   3.786   3.131   3.985 -0.0901 -0.3143 -0.1458
 9050W        W25898   1.456   7.317   1.522 -0.1796 -0.5497  0.0286
 9051W        W25899  14.082  16.112  11.272 -0.1940 -0.1578 -0.1076
 9052W        W25900  17.385  12.819  16.091  0.2929  0.0107  0.0935
 9053W        W25901   9.126   1.156   2.069  0.1786  0.1204  0.0288
 9054W        W25902   2.037   9.601  14.337  0.0478 -0.0095 -0.0945
 9055W        W25903  13.744   1.646   5.499  0.1815  0.0250  0.0377
 9056W        W25904   4.246  11.268  11.763 -0.1892  0.1929  0.1762
 9057W        W25905   5.357   5.881   2.592  0.0780  0.0393  0.4305
 9058W        W25906   4.271   1.741   1.142  0.0360 -0.1369 -0.4548
 9059W        W25907   3.076   1.723   3.395  0.0036  0.1622  0.2168
 9060W        W25908   9.237   1.958   4.830 -0.2113  0.0153 -0.2392
 9061W        W25909   6.738  10.021   3.473 -0.0018 -0.1509 -0.0562
 9062W        W25910   8.065   5.962   0.099 -0.0381  0.0829  0.0377
 9063W        W25911  12.037   9.673  14.001  0.3215 -0.2037  0.1142
 9064W        W25912  13.472   3.103   5.304  0.2303  0.0996  0.0416
 9065W        W25913   8.083   5.280  11.132  0.0552  0.3120 -0.1507
 9066W        W25914   5.663   9.336   1.176  0.1100 -0.1449 -0.2712
 9067W        W25915  13.791   3.975   1.754  0.2063  0.1251 -0.1435
 9068W        W25916   3.473   0.459  15.902  0.1725  0.1705 -0.0771
 9069W        W25917   9.080   2.998  14.613  0.2511 -0.2780 -0.4306
 9070W        W25918   5.620  13.416   0.453  0.1214 -0.0355 -0.2073
 9071W        W25919   3.691   7.585   4.400  0.0908  0.0519  0.1277
 9072W        W25920  15.352   6.736  11.605  0.1450 -0.1364  0.1249
 9073W        W25921   9.194   2.519  14.351 -0.0368  0.0877  0.0211
 9074W        W25922  15.764   7.240   3.805  0.2720 -0.3849  0.0646
 9075W        W25923   2.192   0.938  15.210 -0.0609  0.0715 -0.1676
 9076W        W25924   9.312   2.497   4.841  0.1077  0.0115  0.2739
 9077W        W25925  17.079   9.084   0.145 -0.0023 -0.0905  0.5031
 9078W        W25926   2.239   4.539   5.580  0.0271  0.0146  0.0370
 9079W        W25927  14.892   0.991   5.962 -0.2219  0.0736 -0.0036
 9080W        W25928   2.069  17.046   4.666 -0.0822 -0.0517  0.1388
 9081W        W25929  17.472  17.513  16.197  0.2336 -0.0508 -0.1992
 9082W        W25930   2.810  14.952   1.077  0.1855 -0.0203 -0.1057
 9083W        W25931  10.373  14.597  12.813  0.3214  0.0464 -0.2761
 9084W        W25932  15.201   2.905   5.785 -0.1685 -0.0902  0.1639
 9085W        W25933  15.750  17.070  13.697  0.0234  0.2407 -0.0609
 9086W        W25934   0.965  16.883  14.814  0.4258 -0.5844 -0.0128
 9087W        W25935  10.339   6.599   1.419  0.2220  0.0793 -0.0298
 9088W        W25936   6.241  13.743  15.309 -0.0620 -0.2858 -0.3057
 9089W        W25937   0.863   7.581  14.179  0.2323  0.0267  0.1508
 9090W        W25938  10.518  11.407   0.637 -0.0714 -0.1017 -0.0066
 9091W        W25939  15.452  12.194   5.432 -0.0090  0.0503 -0.1355
 9092W        W25940  10.147  17.781   4.246 -0.1392  0.0861  0.1260
 9093W        W25941  13.414  14.010   5.080  0.1683  0.2300  0.0088
 9094W        W25942   1.872  12.399  16.107 -0.1693 -0.0770 -0.0871
 9095W        W25943   4.232  12.276  14.847  0.2140  0.0224  0.2413
 9096W        W25944  15.961   8.523  14.598  0.2771 -0.1730 -0.0909
 9097W        W25945  12.670   5.463  15.955 -0.1442 -0.2154  0.0905
 9098W        W25946   0.097  15.612  16.047 -0.0832  0.1956 -0.2666
 9099W        W25947   4.677   4.135   2.342  0.1021  0.1383  0.0205
 9100W        W25948   2.180  10.031   0.135  0.0400 -0.1131 -0.0174
 9101W        W25949   3.489  14.349  15.050  0.1708  0.0564  0.0101
 9102W        W25950   3.753   7.396   0.035  0.0585  0.1229  0.1867
 9103W        W25951   3.779  14.795   3.723 -0.0263 -0.0608  0.0506
 9104W        W25952   4.933  12.160  12.130  0.1500  0.1867  0.3684
 9105W        W25953   9.313  11.001  16.353  0.2572  0.0067  0.2825
 9106W        W25954   5.408  12.841  15.819 -0.0302  0.1494 -0.0939
 9107W        W25955  12.625   0.517   3.995  0.1716  0.0477  0.0415
 9108W        W25956  16.108  15.438   0.851 -0.4652  0.2916 -0.1932
 9109W        W25957  11.067   2.450  11.226  0.1343 -0.1142  0.2235
 9110W        W25958   0.726   4.138  13.546  0.3580 -0.0191  0.2463
 9111W        W25959   3.928  10.918   0.913  0.1621 -0.0081 -0.4468
 9112W        W25960   8.564   9.819   0.314  0.0532 -0.1610 -0.0061
 9113W        W25961  10.782   9.439   4.891 -0.0432 -0.3495 -0.0869
 9114W        W25962  12.939   7.390   4.499  0.0537 -0.1358 -0.1487
 9115W        W25963   8.479  10.631  15.330 -0.0942  0.1952  0.0126
 9116W        W25964   1.226  13.052   3.737  0.0091  0.3199 -0.0158
 9117W        W25965   3.120   2.111  13.081 -0.1635  0.1241 -0.2288
 9118W        W25966   9.658   1.682  15.960 -0.0069  0.0177 -0.1075
 9119W        W25967  15.829  12.631   3.216 -0.1996 -0.1368 -0.1270
 9120W        W25968   9.065  13.204   4.420  0.2418 -0.0042 -0.3166
 9121W        W25969   7.437  13.430   2.282 -0.0703 -0.2120 -0.1577
 9122W        W25970  17.106   4.179   1.384  0.2536  0.0963 -0.0821
 9123W        W25971   1.425   9.265   2.134 -0.3166 -0.0654 -0.1434
 9124W        W25972  17.644  10.336   4.791 -0.2432  0.1248  0.2451
 9125W        W25973   2.583   9.414   5.014  0.0407  0.0304  0.1698
 9126W        W25974  10.180  17.857  10.815  0.3129 -0.0804 -0.2291
 9127W        W25975   3.029   9.778  15.877 -0.1708  0.0327  0.1269
 9128W        W25976  17.009   1.757   1.717 -0.2197  0.1501  0.0271
 9129W        W25977   7.473   8.483   1.550 -0.0487 -0.2443  0.3157
 9130W        W25978  10.103  15.935  13.342 -0.1116  0.0734  0.0996
 9131W        W25979   3.598   2.926  16.138 -0.0090 -0.0426 -0.1065
 9132W        W25980  15.026   9.085   3.013  0.1990 -0.1963  0.2208
 9133W        W25981   9.233  17.471  14.666  0.4140  0.0293 -0.0227
 9134W        W25982   5.549   6.310   5.300  0.0976  0.0751  0.0564
 9135W        W25983  14.021   1.726  11.476 -0.0884  0.0546 -0.2678
 9136W        W25984   3.794  16.456  13.374 -0.2674 -0.1226  0.0022
 9137W        W25985  11.263   0.346   1.989  0.2093  0.0667  0.0848
 9138W        W25986   8.609   2.082  15.262 -0.1474  0.1252 -0.2530
 9139W        W25987   9.878   2.085   2.774  0.1420 -0.2894  0.0626
 9140W        W25988  16.771  17.790   0.495  0.4348  0.0417  0.0862
 9141W        W25989  13.308   7.983  11.213 -0.3046  0.1810 -0.1826
 9142W        W25990   9.307   5.250  15.445  0.2045  0.1278  0.3001
 9143W        W25991   0.974  13.861   1.661 -0.1850  0.0918 -0.1597
 9144W        W25992  17.491   7.311   0.206  0.0365 -0.1274 -0.3599
 9145W        W25993   1.760  15.898   1.245 -0.2543  0.0135  0.0406
 9146W        W25994   7.518   5.276  14.746 -0.1753  0.1409 -0.0378
 9147W        W25995   1.786  16.368  14.925 -0.0642  0.0474 -0.1229
 9148W        W25996  11.580   2.886   0.348 -0.0529  0.3230 -0.2257
 9149W        W25997   6.984  12.554   5.175 -0.0172 -0.0195  0.0282
 9150W        W25998   0.457   5.069   3.104  0.0853 -0.3644 -0.0382
 9151W        W25999  15.593  11.461  12.085  0.2611  0.1049 -0.1956
 9152W        W26000  16.918   2.613   5.597 -0.1524  0.1570 -0.3802
 9153W        W26001  16.151   7.374  12.037  0.4254  0.0073 -0.0580
 9154W        W26002   6.830   4.376   4.398 -0.2080  0.0690 -0.1023
 9155W        W26003   7.150  10.471   2.016 -0.2012 -0.1091 -0.1511
 9156W        W26004   7.152   3.957  13.197 -0.2052  0.3146  0.1350
 9157W        W26005  15.887  15.250   4.406 -0.1300  0.1530  0.1431
 9158W        W26006  10.811   6.250   0.362  0.0319 -0.1443  0.0285
 9159W        W26007   6.430   5.471   0.020  0.2164 -0.1280 -0.2111
 9160W        W26008   5.185   7.552   2.316  0.0394  0.1855 -0.0411
 9161W        W26009  13.638  17.715  14.086 -0.3896 -0.0560  0.1101
 9162W        W26010   6.542  12.166   0.004 -0.2077 -0.1407  0.0942
 9163W        W26011  13.294   9.186  11.830  0.3288 -0.2469 -0.1793
 9164W        W26012   0.703  17.378   0.307 -0.0186  0.0468 -0.2985
 9165W        W26013   4.460   3.306   2.509 -0.0210 -0.2171 -0.0247
 9166W        W26014   6.343  10.360   5.094 -0.1562  0.0061 -0.0354
 9167W        W26015   6.518  13.723  16.607  0.1590  0.3363  0.0204
 9168W        W26016  12.100   9.507  15.033  0.0276 -0.0037 -0.0145
 9169W        W26017   1.052   0.023  12.329 -0.1744  0.0415 -0.0063
 9170W        W26018  15.453   7.283  12.988 -0.2385  0.2884  0.2414
 9171W        W26019   5.322   8.946   1.289 -0.0351  0.0174  0.1548
 9172W        W26020   6.797  16.061   4.027 -0.0072 -0.0183 -0.1580
 9173W        W26021   5.230   9.938  16.622  0.2816 -0.0402  0.2600
 9174W        W26022   2.786   8.988  13.316  0.1445  0.1375  0.0453
 9175W        W26023  17.395   2.756   0.506 -0.1599 -0.1446  0.0777
 9176W        W26024  15.592   3.517   0.250  0.0818  0.3793 -0.1011
 9177W        W26025   7.024  12.723  11.647 -0.3792  0.3018 -0.1985
 9178W        W26026  17.688   1.844  13.551 -0.3012  0.2200  0.0635
 9179W        W26027   3.870   0.502  13.274  0.3869 -0.0330 -0.1814
 9180W        W26028  13.533   7.276   1.019 -0.0162  0.0566  0.0269
 9181W        W26029   8.966   3.277   0.861 -0.0904 -0.0731 -0.2347
 9182W        W26030  15.493  14.619  13.134 -0.0687  0.0249 -0.1903
 9183W        W26031  13.101   4.556   1.769 -0.2046  0.1074  0.1677
 9184W        W26032  12.197  12.398  15.226 -0.2463 -0.0937  0.0034
 9185W        W26033  15.600  14.243  10.883  0.3384 -0.0765 -0.0153
 9186W        W26034   3.181   5.912  16.492 -0.1146  0.1389  0.1093
 9187W        W26035   4.019   6.407   4.115 -0.3016  0.1939  0.0079
 9188W        W26036  15.972   0.693  16.144  0.3319  0.3099  0.2075
 9189W        W26037   9.028  13.998   1.664 -0.0423  0.0865 -0.2976
 9190W        W26038  16.390  12.514  16.356  0.3979  0.0077 -0.0524
 9191W        W26039  17.683  14.692  12.275 -0.0919 -0.0155  0.0008
 9192W        W26040  14.018   0.377   1.105  0.1690  0.1539 -0.0536
 9193W        W26041  17.512  11.339  11.427  0.0504 -0.2343 -0.2118
 9194W        W26042   5.014   8.312   1.391 -0.2588 -0.0140 -0.0637
 9195W        W26043  16.458   8.466   5.201 -0.0820  0.0075 -0.0606
 9196W        W26044  13.236   5.409  13.815  0.5276  0.2495 -0.0138
 9197W        W26045   3.425   7.887   1.406  0.0519 -0.5640  0.0693
 9198W        W26046   8.791  13.861   2.592 -0.1045 -0.0354 -0.0778
 9199W        W26047   2.308   1.548   2.503 -0.2704  0.2217  0.1466
 9200W        W26048  17.000   5.956   0.058  0.0492 -0.2391 -0.0841
 9201W        W26049   8.261  17.693  12.727 -0.2967 -0.1503 -0.0354
 9202W        W26050   2.266  15.806   5.084  0.0501 -0.0807  0.1289
 9203W        W26051  15.037   6.083  15.757  0.0424 -0.2010 -0.0969
 9204W        W26052  13.030  14.640  15.063  0.0361  0.1772  0.2727
 9205W        W26053  10.076   1.185   2.632 -0.1180 -0.1472  0.0688
 9206W        W26054   8.374   9.191   1.545  0.1197 -0.1958  0.1648
 9207W        W26055   7.709  13.729  11.030  0.0003  0.1183  0.1471
 9208W        W26056   2.968  12.158   5.195 -0.0346  0.0936  0.5036
 9209W        W26057  16.605  11.675  16.049 -0.1702  0.2887 -0.1097
 9210W        W26058  11.325  15.980   1.906  0.2349  0.1983 -0.0285
 9211W        W26059   4.062   9.075   3.471 -0.2372 -0.2127  0.1944
 9212W        W26060   2.941  10.913   2.860  0.0062 -0.0791 -0.1050
 9213W        W26061   1.171  10.185  13.415  0.0389  0.0121  0.4055
 9214W        W26062  14.828   4.867   1.457  0.1356  0.0476  0.0038
 9215W        W26063   4.901   6.600  13.997 -0.1892 -0.2028 -0.0207
 9216W        W26064  10.684   2.855   2.018  0.0154  0.3500  0.3602
 9217W        W26065  15.248   5.671  15.441 -0.1267 -0.0100  0.1765
 9218W        W26066   8.819   5.656   4.537  0.0048 -0.1827 -0.0401
 9219W        W26067  17.234   7.226  12.675 -0.0617 -0.0059 -0.0599
 9220W        W26068   3.771   2.443   3.171  0.0150 -0.1607  0.0324
 9221W        W26069   8.258   2.120   4.608 -0.0219 -0.1082  0.3216
 9222W        W26070  14.915   1.610   6.611  0.2580  0.4672  0.1602
 9223W        W26071   0.391  10.677   5.473  0.0167  0.2175 -0.0466
 9224W        W26072   9.217  15.693  12.793  0.0133  0.1650  0.2599
 9225W        W26073   1.123   6.871  10.215 -0.2379 -0.0008 -0.1489
 9226W        W26074   4.586   3.823  11.202 -0.2198  0.2918 -0.1631
 9227W        W26075   5.497   8.957  12.721  0.2758 -0.1161  0.0599
 9228W        W26076   2.355   2.393   1.011  0.2088 -0.1872  0.1206
 9229W        W26077   3.698   1.743   0.173 -0.0628 -0.2027  0.0492
 9230W        W26078   6.074   5.259   2.924 -0.2956  0.0098 -0.0788
 9231W        W26079  15.375  10.610   1.799 -0.0674 -0.0564  0.0837
 9232W        W26080   6.238   2.300   1.138  0.0243  0.0122 -0.2397
 9233W        W26081   7.695  13.737  15.474  0.0299 -0.1627 -0.1080
 9234W        W26082  14.777   7.108   5.193  0.1258 -0.2198 -0.0045
 9235W        W26083   0.683   9.900   2.130  0.0308  0.4338  0.2266
 9236W        W26084  15.244   7.491  15.695 -0.1291 -0.0133  0.2380
 9237W        W26085   2.080  17.546   4.707  0.0773 -0.2193 -0.1358
 9238W        W26086   5.033  14.030   1.610 -0.1256  0.1466  0.1795
 9239W        W26087  11.297  14.186  14.246  0.1407  0.0290 -0.0372
 9240W        W26088   7.143   7.653   1.739  0.0953  0.1791  0.2191
 9241W        W26089  11.333   4.755   4.862 -0.1792  0.0416 -0.0216
 9242W        W26090  10.537  14.387   3.163  0.1932  0.1834 -0.1424
 9243W        W26091  17.775  15.403   5.343  0.0264  0.0201  0.0728
 9244W        W26092  12.703   1.944   1.887 -0.0746 -0.0016 -0.1314
 9245W        W26093   0.665   5.545   4.940  0.1371 -0.0994  0.2239
 9246W        W26094   0.068   3.020   5.275  0.2716  0.0747 -0.1081
 9247W        W26095  16.073   5.616   4.685 -0.0580  0.1665 -0.0186
 9248W        W26096   5.272  16.639   5.308  0.0465  0.0824  0.4337
 9249W        W26097  14.862   9.665   0.013  0.2673  0.1019 -0.2956
 9250W        W26098  14.566   8.831   5.145 -0.2899 -0.2001 -0.1155
 9251W        W26099  16.475   9.120  10.725  0.0252  0.1548  0.1364
 9252W        W26100   3.105  13.329   3.275 -0.2895  0.2825  0.1427
 9253W        W26101  10.646   8.199   2.285  0.4330  0.0532  0.0258
 9254W        W26102   0.121  16.346  13.745  0.3331 -0.1002  0.1191
 9255W        W26103  13.795   7.041  16.494  0.3926  0.0258 -0.0230
 9256W        W26104   5.198  12.368   5.358 -0.0085 -0.1426  0.1554
 9257W        W26105   3.984  13.320   2.196 -0.0543  0.0195  0.1854
 9258W        W26106  14.677   5.887  11.684  0.0658 -0.1959  0.1218
 9259W        W26107  15.774   5.589  15.470  0.1101 -0.1926  0.0686
 9260W        W26108   5.018   6.541  16.132  0.2113  0.1585  0.1885
 9261W        W26109  12.683   4.210   5.043  0.1229 -0.0330 -0.1390
 9262W        W26110   7.332   5.370   3.925 -0.0664  0.1926  0.0230
 9263W        W26111   8.610  11.183  11.696 -0.1891  0.2045 -0.0047
 9264W        W26112  17.256   5.928   0.646 -0.0388 -0.0572  0.3753
 9265W        W26113  16.931   6.355  12.628  0.1779 -0.0394  0.0425
 9266W        W26114   5.488   0.005   5.449  0.0507  0.0223 -0.3599
 9267W        W26115  15.055  13.770   4.837  0.1166  0.0015 -0.0736
 9268W        W26116  10.047   8.857  11.993  0.1583  0.2334  0.0264
 9269W        W26117  16.204   7.209   5.206 -0.1034 -0.0709 -0.1373
 9270W        W26118   4.612   9.341   0.653 -0.0096 -0.1622 -0.0597
 9271W        W26119   6.044  10.381  15.118  0.0263 -0.2492  0.1889
 9272W        W26120   5.466  11.041   3.095 -0.2916  0.0130  0.4172
 9273W        W26121  14.438   5.743  15.882  0.2165 -0.3048 -0.0975
 9274W        W26122   7.717   9.083   1.919  0.2960  0.1274  0.1123
 9275W        W26123  15.946   6.076   0.981  0.3041 -0.1713 -0.1293
 9276W        W26124   6.440   5.214  16.150 -0.1251 -0.1170  0.0732
 9277W        W26125  10.233   6.307  13.770  0.0778 -0.0319  0.0532
 9278W        W26126   1.343  16.851   3.930  0.1204  0.1113  0.1516
 9279W        W26127   5.474  14.538   3.508 -0.0014 -0.1443 -0.0870
 9280W        W26128   6.261   8.286   1.133  0.3981 -0.0165 -0.0430
 9281W        W26129   7.812   8.407  12.133 -0.1299 -0.4444 -0.0663
 9282W        W26130   7.996   9.316   1.225  0.0792  0.1201  0.1093
 9283W        W26131  10.353   5.641   2.209 -0.0841 -0.3985  0.1347
 9284W        W26132  16.647   3.949  12.834 -0.1168 -0.0113 -0.0126
 9285W        W26133   6.564  14.979  15.103  0.1234 -0.3765  0.2297
 9286W        W26134   7.385   7.232   0.511  0.6634 -0.0120  0.3890
 9287W        W26135   1.172   1.576   0.187 -0.1460  0.1497  0.3017
 9288W        W26136   1.171  15.282   1.439 -0.2177 -0.1376 -0.2234
 9289W        W26137  12.966   8.830  16.082 -0.0395  0.0333  0.0750
 9290W        W26138  11.564  16.608  13.280  0.1018  0.1845  0.0327
 9291W        W26139   0.214  10.965   2.234  0.0935  0.0310 -0.3582
 9292W        W26140  16.088  12.916  15.603  0.1456  0.0493 -0.0329
 9293W        W26141  12.023  10.420   6.330 -0.1633 -0.2128  0.2412
 9294W        W26142   4.694   4.877  14.933 -0.1021  0.2647  0.0444
 9295W        W26143   8.379   7.100   3.276 -0.0371 -0.0255 -0.0015
 9296W        W26144  13.115   8.349  13.824  0.1502  0.0517 -0.0219
 9297W        W26145  12.893   8.846  11.651  0.1062  0.1187  0.1789
 9298W        W26146   6.917   9.578   0.018 -0.0176  0.0428 -0.3327
 9299W        W26147   1.259   5.175   4.642 -0.0172  0.0563 -0.0558
 9300W        W26148   1.595   9.810   0.888 -0.1936 -0.0599  0.0735
 9301W        W26149  15.118   2.789  12.143  0.0220  0.1507 -0.1909
 9302W        W26150   0.779  17.153   2.496  0.0816  0.3116 -0.3488
 9303W        W26151   6.464  13.686   4.823 -0.3438 -0.1921  0.1194
 9304W        W26152  13.939   6.613   4.527  0.1073 -0.0244 -0.0784
 9305W        W26153  13.054  14.102   1.196  0.2103  0.1758  0.1332
 9306W        W26154  11.986  16.041  15.398  0.2563  0.0049 -0.1339
 9307W        W26155   6.414  11.009  16.399  0.3325  0.2739 -0.0320
 9308W        W26156  13.636  15.780  13.446 -0.3043 -0.0130 -0.1753
 9309W        W26157  16.356   0.219  14.444  0.1453  0.2749  0.0182
 9310W        W26158  10.977   2.108   4.154 -0.1275  0.0078  0.3983
 9311W        W26159   2.045   2.313  11.957  0.5162 -0.3505  0.1720
 9312W        W26160   4.263   2.291  15.911  0.1639 -0.2065  0.0888
 9313W        W26161   3.408  15.587  15.591  0.3330  0.0034 -0.0119
 9314W        W26162   5.877  11.329  12.831  0.2019  0.2985  0.1467
 9315W        W26163   1.392  11.682  13.895  0.3300  0.3597  0.1564
 9316W        W26164  10.636  10.438  13.151  0.1632  0.0257 -0.3223
 9317W        W26165  10.648   8.516   0.141  0.0827 -0.0371  0.1410
 9318W        W26166   3.212   3.892   6.053 -0.0242  0.2415 -0.1170
 9319W        W26167   5.371  16.093   1.543 -0.1234 -0.2004 -0.0056
 9320W        W26168   9.398  12.869  15.362  0.2927 -0.2936  0.1639
 9321W        W26169   0.985   1.877   2.821  0.0863 -0.2231 -0.0371
 9322W        W26170   5.483   2.809   1.055  0.2555  0.1185  0.0710
 9323W        W26171   0.537   0.892   4.732  0.2994 -0.3550 -0.1144
 9324W        W26172   2.956  15.602  13.249 -0.0076  0.2101  0.0985
 9325W        W26173  11.772  12.227  13.162  0.0082 -0.1002 -0.0687
 9326W        W26174   8.970   1.603  12.874 -0.1643  0.0371  0.0634
 9327W        W26175   0.164   0.314   1.260  0.1149  0.2226 -0.0124
 9328W        W26176   9.156   6.410   2.892 -0.1452 -0.0992 -0.1611
 9329W        W26177  10.381  10.275  12.621 -0.0272 -0.0306 -0.0006
 9330W        W26178  12.717  16.263  13.986  0.2189 -0.3018  0.0906
 9331W        W26179   8.484  14.775  16.073  0.1365  0.5344  0.1866
 9332W        W26180   1.774   3.016  12.646  0.1308 -0.1735 -0.3174
 9333W        W26181   0.866   9.110   3.549 -0.3868  0.1197 -0.1394
 9334W        W26182  13.785   5.752  15.234  0.5403  0.1752  0.0846
 9335W        W26183   2.958   1.604   2.007  0.1648 -0.0839  0.2333
 9336W        W26184  12.587  15.368  14.293 -0.0664  0.1098 -0.3466
 9337W        W26185  11.536   9.839  14.440  0.0282 -0.3224  0.0758
 9338W        W26186   6.258   2.321   2.522  0.1127  0.1633  0.0542
 9339W        W26187  14.760  14.515  15.166 -0.2187  0.2040  0.0658
 9340W        W26188   1.923  14.796  13.282 -0.0813  0.4189  0.2412
 9341W        W26189  17.606   0.007  12.516  0.0640 -0.0115 -0.0429
 9342W        W26190   5.662  10.975  16.276  0.1796  0.1027 -0.1646
 9343W        W26191   2.146   3.421  12.639 -0.0641  0.0569 -0.3288
 9344W        W26192   5.135   1.329   1.098  0.0872  0.1420 -0.0849
 9345W        W26193  12.102  13.975  15.881  0.0743 -0.1606  0.3446
 9346W        W26194  16.469   6.874   3.115  0.0523 -0.0786  0.0560
 9347W        W26195   2.406  14.945  13.200 -0.0391 -0.0532 -0.1780
 9348W        W26196  13.499   9.160   1.716  0.0324  0.1774 -0.2245
 9349W        W26197  10.981   1.393   3.153 -0.0935 -0.1627 -0.0324
 9350W        W26198   2.814  11.074  13.538 -0.1096 -0.1850  0.1641
 9351W        W26199   4.680   0.800  15.518  0.2525  0.0913  0.3399
 9352W        W26200  12.684  15.441  11.938 -0.2142  0.1083  0.1012
 9353W        W26201  13.033   6.525   2.508  0.0922 -0.3309 -0.2914
 9354W        W26202   3.545  16.935   3.202  0.1434 -0.0108 -0.1993
 9355W        W26203  11.402   4.497  11.161 -0.0761 -0.0926 -0.2633
 9356W        W26204  13.364  12.130  14.145  0.5083  0.1748 -0.1708
 9357W        W26205   2.010  16.476  16.392  0.1304  0.3717 -0.1691
 9358W        W26206   0.953   2.470  15.719  0.1992  0.0094  0.2205
 9359W        W26207   5.813  14.797  14.406  0.0450  0.0372  0.0384
 9360W        W26208   8.510   1.661  14.407  0.1026 -0.0566  0.2171
 9361W        W26209   1.728  10.428   0.220 -0.1593 -0.0398  0.2248
 9362W        W26210   0.187   1.636   0.086 -0.0158  0.5244  0.1291
 9363W        W26211   3.342  16.747  13.234  0.2321  0.2014 -0.0614
 9364W        W26212   8.376  14.118   0.988 -0.0338  0.0900 -0.2583
 9365W        W26213   0.610  16.613   2.105 -0.1547 -0.0578  0.3005
 9366W        W26214   6.258  17.347  16.100  0.0367  0.1343  0.2470
 9367W        W26215   3.398  15.449  16.312  0.0427  0.2847 -0.0649
 9368W        W26216   5.707  12.440   4.865  0.0355  0.4030 -0.0260
 9369W        W26217   8.996   7.966  13.553  0.0654  0.0313  0.1334
 9370W        W26218  10.728  15.581   3.015 -0.2560  0.0475 -0.1833
 9371W        W26219   6.775  13.409  15.298 -0.0258 -0.1417 -0.1186
 9372W        W26220  16.201  13.704  13.842 -0.2785 -0.1516 -0.1613
 9373W        W26221   2.926  14.878  12.447 -0.0185 -0.0981 -0.2323
 9374W        W26222  13.971   7.993  13.429  0.0129  0.1741 -0.2598
 9375W        W26223   1.573   5.488  13.379  0.1804  0.0284 -0.0061
 9376W        W26224  17.784   4.105   0.415  0.2664  0.1341 -0.0208
 9377W        W26225   4.285  11.754   2.443  0.3335 -0.0421 -0.0176
 9378W        W26226  16.716   1.824   6.635 -0.2098 -0.0270 -0.0385
 9379W        W26227   3.747  13.153   0.529 -0.1528 -0.0181 -0.3718
 9380W        W26228   0.381  16.370  14.188  0.0223 -0.2301  0.4595
 9381W        W26229   1.620   6.861  11.922  0.2059 -0.1719  0.0039
 9382W        W26230   9.498  16.755  12.739  0.1726  0.1355  0.0044
 9383W        W26231  14.067   3.748  12.698 -0.1815  0.0764  0.1031
 9384W        W26232   5.501  15.969  15.868 -0.1138  0.2708 -0.0982
 9385W        W26233   6.285  12.535   3.784  0.0694  0.4568  0.2494
 9386W        W26234  11.583  10.883   1.161  0.0116  0.2975  0.4305
 9387W        W26235  16.809  14.271   4.998 -0.2165 -0.2427 -0.1766
 9388W        W26236  15.285   3.164  13.003  0.0035 -0.0392 -0.3624
 9389W        W26237  13.842  10.624  11.693 -0.0054  0.0231 -0.1714
 9390W        W26238   0.952   7.691   0.044  0.0942 -0.0269 -0.2075
 9391W        W26239  12.416   3.337   0.585 -0.3555  0.0126  0.0508
 9392W        W26240  11.104   8.023   2.087  0.0195  0.3758  0.2663
 9393W        W26241   1.620  13.858  14.507 -0.2646 -0.2570  0.0364
 9394W        W26242   1.766  12.468  13.470 -0.3591 -0.2861  0.0732
 9395W        W26243  11.193  15.312   4.479  0.2436  0.2257 -0.0518
 9396W        W26244  13.410   9.341   3.518 -0.3024 -0.1733 -0.1633
 9397W        W26245   2.687   8.872  12.632 -0.2647 -0.0565 -0.1940
 9398W        W26246  11.528  14.031  13.791 -0.0376 -0.3509  0.0212
 9399W        W26247  13.915  17.568   2.454  0.2363 -0.1453 -0.1810
 9400W        W26248   3.969  16.087   1.732 -0.3215 -0.1121 -0.2657
 9401W        W26249   6.072  15.222  12.181 -0.2482 -0.0100 -0.0608
 9402W        W26250  14.016  16.315   4.840 -0.0036  0.0156  0.1520
 9403W        W26251  11.406   7.425   0.444  0.1501 -0.2823  0.1703
 9404W        W26252   5.416   2.781   4.074  0.1631  0.0467 -0.1224
 9405W        W26253  10.253   5.900  16.292  0.2283 -0.2595 -0.0658
 9406W        W26254   8.762  14.183  16.355  0.0405  0.0780 -0.0623
 9407W        W26255  14.168   3.634   1.772 -0.0731 -0.0189  0.3208
 9408W        W26256   0.348  17.133  16.418 -0.5173  0.1659  0.0686
 9409W        W26257  12.700   1.360  12.957 -0.0076 -0.1078 -0.4102
 9410W        W26258  11.348  15.604   2.308  0.1038  0.0035  0.0238
 9411W        W26259  11.383   4.894   2.557 -0.1578  0.0568  0.0151
 9412W        W26260   4.587   2.718   5.149  0.0398 -0.0437  0.1458
 9413W        W26261   2.471   3.069  11.360 -0.0955  0.0655 -0.1442
 9414W        W26262   7.224   9.478  16.225  0.0438 -0.0771 -0.1980
 9415W        W26263  10.023   3.661  14.185 -0.3550  0.3110  0.0408
 9416W        W26264   9.996   6.456  14.752 -0.5886  0.0177 -0.1119
 9417W        W26265  12.590  10.832  15.997  0.0612 -0.1763 -0.2740
 9418W        W26266   0.101   1.298   4.776  0.1211  0.0670 -0.1374
 9419W        W26267  11.091  17.128  12.473 -0.2695 -0.1727  0.2668
 9420W        W26268   3.667   6.921  14.372 -0.3192 -0.1411  0.0614
 9421W        W26269   1.744   2.320   0.072 -0.1449 -0.0186  0.2872
 9422W        W26270  14.746  16.666   0.675  0.4007 -0.2301 -0.1367
 9423W        W26271  13.707   7.041  12.114  0.0888 -0.3419  0.1479
 9424W        W26272   7.672   3.678  11.287 -0.1687  0.0569  0.0531
 9425W        W26273  17.755   3.087   6.525 -0.0206 -0.0486  0.2312
 9426W        W26274  17.433   0.542   6.350  0.2823  0.0938 -0.1403
 9427W        W26275  15.239   6.556   3.015 -0.0741  0.0262  0.4406
 9428W        W26276  15.320  12.437   5.030 -0.1006  0.0758  0.3764
 9429W        W26277  12.594   2.923   0.910  0.3697  0.0708 -0.2019
 9430W        W26278  16.794  10.283  12.022  0.1997 -0.1217 -0.2025
 9431W        W26279   4.118   9.457   0.554 -0.1465 -0.0655  0.0035
 9432W        W26280  16.914   3.020  11.590  0.0058 -0.0668  0.0102
 9433W        W26281  12.580   6.195   2.550  0.1390 -0.1142 -0.3156
 9434W        W26282  13.914  14.567  12.200 -0.0852  0.0025 -0.2519
 9435W        W26283   8.092   0.997  11.504 -0.1431  0.2508  0.0198
 9436W        W26284  16.959   3.582  15.878 -0.0858  0.4468  0.1610
 9437W        W26285  11.659   6.134   4.037 -0.0727  0.0104 -0.1096
 9438W        W26286  11.592  16.382   2.055 -0.4027 -0.0410 -0.2433
 9439W        W26287  13.080  16.044  13.794 -0.0411  0.0947  0.0334
 9440W        W26288   9.851   8.215   2.007 -0.0884  0.0182  0.0750
 9441W        W26289   4.838   8.152  14.328  0.1338 -0.3771 -0.3221
 9442W        W26290  13.612   5.211   4.631  0.0143 -0.0172 -0.0105
 9443W        W26291  12.267   2.818   1.788 -0.2439  0.1273 -0.2133
 9444W        W26292   5.398   8.931  12.200 -0.0267 -0.0926  0.0717
 9445W        W26293  10.410   7.485  11.963  0.1769  0.2180  0.3139
 9446W        W26294  17.421   1.601  13.884 -0.0525  0.3490  0.2397
 9447W        W26295  17.208  10.495  15.375 -0.2897 -0.0698 -0.0303
 9448W        W26296  16.287   1.536  16.413 -0.3290 -0.6425  0.1487
 9449W        W26297  17.005   4.068   0.887 -0.1334  0.1171 -0.2603
 9450W        W26298   5.807  13.069   2.280 -0.0161 -0.0698  0.3747
 9451W        W26299   9.205   4.715  11.584  0.0191 -0.2172 -0.1159
 9452W        W26300   7.356   6.855   4.366  0.1408 -0.2208  0.1557
 9453W        W26301  13.462   0.607  15.315  0.1654 -0.1708  0.1082
 9454W        W26302   7.325  11.574  12.918 -0.0296  0.1144  0.2463
 9455W        W26303   4.515  14.435  13.977 -0.0925  0.0562 -0.0940
 9456W        W26304   1.168   1.636   0.976  0.2192 -0.1288 -0.1037
 9457W        W26305   5.453  14.564   4.870  0.0277 -0.0569 -0.0442
 9458W        W26306   7.784   4.055  12.505  0.0822  0.0235  0.0748
 9459W        W26307   6.259   2.795  12.463 -0.3445  0.1624  0.2626
 9460W        W26308   9.134  14.567  15.641  0.2208  0.0577  0.1068
 9461W        W26309   2.385  16.435   3.942 -0.1293 -0.1048  0.0402
 9462W        W26310   8.733  15.533  15.186 -0.1123 -0.3363  0.0251
 9463W        W26311   8.894   2.769   5.058 -0.0138  0.0756  0.3863
 9464W        W26312  10.657  17.756  15.395  0.2052 -0.1301 -0.0203
 9465W        W26313   6.780  13.025   4.233  0.2476  0.4368  0.2366
 9466W        W26314   3.533   3.071   4.516  0.1529 -0.1467  0.1750
 9467W        W26315   6.925  14.554   5.186  0.0489 -0.2135  0.0358
 9468W        W26316   4.330   0.340   1.589  0.0542  0.2530 -0.1281
 9469W        W26317   3.905   1.807  12.455 -0.1725  0.0528 -0.0363
 9470W        W26318  10.027   4.704  12.149 -0.0981 -0.1406  0.0686
 9471W        W26319  12.956   6.578   1.751  0.5064  0.0561 -0.2798
 9472W        W26320  14.633  10.608   4.926  0.0029  0.1209  0.0529
 9473W        W26321  14.932   0.413   2.035 -0.1905 -0.0125  0.0647
 9474W        W26322  13.942   8.666  12.313 -0.0067 -0.2733 -0.0506
 9475W        W26323  15.565   8.065  13.553 -0.2803 -0.1507  0.1350
 9476W        W26324   3.132   6.700   1.952 -0.1423 -0.1455 -0.1841
 9477W        W26325   0.834   6.432   4.827 -0.0109 -0.1133 -0.0434
 9478W        W26326   4.208  17.234  12.704  0.0166 -0.0467  0.0712
 9479W        W26327   4.040  14.611   2.498  0.1125 -0.2739  0.0665
 9480W        W26328  14.562   3.635   5.967 -0.2371 -0.2471 -0.0559
 9481W        W26329   0.574   5.869  12.344 -0.3098 -0.0371 -0.0829
 9482W        W26330  11.455  11.028   4.625 -0.1683 -0.2384  0.0553
 9483W        W26331   2.696   7.105   2.847  0.0874  0.0231  0.1502
 9484W        W26332   9.112   2.167  12.868  0.1650 -0.0390  0.2410
 9485W        W26333   1.856  16.963  12.554  0.0672  0.1384  0.3235
 9486W        W26334  17.432  17.696   5.142 -0.1829 -0.0703  0.0630
 9487W        W26335   2.788   9.142   0.875  0.1102  0.2200  0.1847
 9488W        W26336   8.941  14.671   0.001 -0.0185  0.2938 -0.1254
 9489W        W26337  15.168   9.395   2.637 -0.0608  0.1270  0.1181
 9490W        W26338  13.701  17.624  13.610 -0.1521 -0.2437 -0.3894
 9491W        W26339   2.637  14.051  14.621 -0.0108 -0.3108  0.0602
 9492W        W26340   4.285   4.824   0.625  0.3519 -0.3481  0.2000
 9493W        W26341  10.387  17.140   2.253  0.0967 -0.5549 -0.0104
 9494W        W26342   3.222   2.855   0.214  0.0511 -0.0848 -0.0113
 9495W        W26343   7.410   7.174  14.681 -0.0741  0.0945  0.0174
 9496W        W26344  17.353   9.323  13.066 -0.1545  0.0333 -0.2117
 9497W        W26345   5.853   7.410  13.511 -0.1678  0.0211  0.0041
 9498W        W26346   5.455  10.123   0.549  0.2085  0.4886 -0.0684
 9499W        W26347  11.985   6.740  14.338 -0.2358 -0.0273 -0.2538
 9500W        W26348  11.477   3.290  11.340 -0.0399  0.1031  0.0467
 9501W        W26349  15.758  15.049  15.784 -0.0513  0.1488 -0.1151
 9502W        W26350   4.004   1.523   4.874  0.1697 -0.0023  0.3105
 9503W        W26351   7.682   4.257   2.470 -0.1543 -0.2309  0.0251
 9504W        W26352  13.751   4.034   4.957  0.0043  0.1916 -0.0606
 9505W        W26353  11.314   7.171   5.102  0.0640 -0.1265 -0.2168
 9506W        W26354  12.334  15.670   3.844  0.1585 -0.0467 -0.0384
 9507W        W26355   6.065   0.468   5.208 -0.2640 -0.0895 -0.1237
 9508W        W26356   1.883   9.323   2.479  0.1071  0.1337 -0.0510
 9509W        W26357   3.164   9.495   3.782  0.2327 -0.3191 -0.0701
 9510W        W26358  14.031  13.279  13.162 -0.0532  0.3245 -0.0752
 9511W        W26359   8.679   0.004   4.587 -0.1219 -0.0301 -0.1162
 9512W        W26360   5.022   3.954  15.871 -0.0002 -0.0310  0.0989
 9513W        W26361   3.238  11.106  13.048  0.0372  0.0839  0.0128
 9514W        W26362  13.949  14.525   5.586  0.1115 -0.1382  0.2996
 9515W        W26363   1.892  15.071   5.347 -0.1989 -0.0553  0.0275
 9516W        W26364   9.216   1.631  16.451  0.3687 -0.2342  0.0941
 9517W        W26365   1.675  13.125   1.085  0.0667 -0.2212 -0.3769
 9518W        W26366   3.501   7.386  14.234  0.0198  0.1668  0.1009
 9519W        W26367  11.253  11.569   2.751  0.2646  0.0115  0.1625
 9520W        W26368  12.176  15.103  14.523 -0.0131  0.2124 -0.0581
 9521W        W26369  12.272   1.401  12.554 -0.1029 -0.1857 -0.2580
 9522W        W26370   1.605   2.059   1.484 -0.0001 -0.0250  0.1225
 9523W        W26371   9.204  16.633   1.133 -0.1489 -0.0106 -0.2749
 9524W        W26372  13.517   5.503  12.180  0.0702  0.1199 -0.0824
 9525W        W26373   5.947   1.613  16.174  0.1396 -0.0475 -0.0255
 9526W        W26374  17.505   7.400  15.033  0.2828  0.3800 -0.0068
 9527W        W26375  16.916  10.367  15.974  0.1170 -0.1366  0.1341
 9528W        W26376   4.181  10.133  13.337  0.0738  0.1716 -0.2115
 9529W        W26377  13.993   4.366  13.507  0.2557 -0.1593 -0.3552
 9530W        W26378   3.714  10.110  13.545  0.2264  0.0145  0.1912
 9531W        W26379   9.172  16.180  13.348 -0.1724  0.1444 -0.0468
 9532W        W26380   7.334  16.769   5.006 -0.1250 -0.0407 -0.1484
 9533W        W26381   6.519  16.236  12.439  0.0209  0.0017 -0.4495
 9534W        W26382   2.184   3.310   1.476  0.1927 -0.0322  0.0974
 9535W        W26383  15.043  13.251  13.250 -0.3261  0.1329 -0.1334
 9536W        W26384  14.756  15.844   2.839  0.0428  0.3772  0.0366
 9537W        W26385  14.343  11.069   4.243 -0.0229 -0.1660  0.2666
 9538W        W26386  15.486   9.462   5.124 -0.0024  0.0489 -0.1418
 9539W        W26387   2.635   0.069  12.279  0.1511 -0.1994 -0.1024
 9540W        W26388   0.833   8.049   3.570 -0.0169 -0.2539  0.0197
 9541W        W26389  14.217  13.685   2.428  0.0679 -0.4140 -0.3669
 9542W        W26390  10.595   3.510  15.918 -0.0001 -0.2864 -0.0368
 9543W        W26391  16.565   5.946   4.875 -0.0781 -0.0385  0.0340
 9544W        W26392   4.956   5.479   2.738  0.0826 -0.0936 -0.2621
 9545W        W26393  15.843  12.924  12.903 -0.0457  0.1364 -0.0936
 9546W        W26394  15.907  11.777   2.219  0.1909  0.1447 -0.3442
 9547W        W26395  15.883   1.475  15.389 -0.0478  0.0445 -0.0420
 9548W        W26396  11.652   0.655   2.091  0.3537  0.0355  0.1427
 9549W        W26397  15.234  11.573   0.695  0.1598  0.3471 -0.0159
 9550W        W26398   7.912  12.570   1.572  0.0982  0.0291 -0.2169
 9551W        W26399  10.168  14.538  16.567  0.0511 -0.0843 -0.1209
 9552W        W26400  11.564   0.953  15.686  0.0163 -0.2636  0.0126
 9553W        W26401  10.994   6.847   2.540  0.0572 -0.0158 -0.0748
 9554W        W26402   3.323   8.498  15.153 -0.1490 -0.1545  0.2469
 9555W        W26403  11.976  10.855   2.687 -0.1125 -0.0538 -0.0369
 9556W        W26404  15.795  14.346  16.582 -0.1244 -0.1316  0.0650
 9557W        W26405  17.617   2.036   5.239  0.0178 -0.4492  0.1183
 9558W        W26406  14.356   0.818  15.514  0.3215 -0.0452 -0.1369
 9559W        W26407   1.427   2.346  15.853  0.2281  0.1555 -0.0205
 9560W        W26408   8.146  12.205  10.721 -0.2753 -0.0906 -0.0088
 9561W        W26409   3.285  10.897   0.266  0.1484  0.0863  0.0713
 9562W        W26410   4.488  16.447  15.545  0.1983  0.0642  0.2052
 9563W        W26411  15.645   5.768  16.414 -0.0054  0.0687  0.0914
 9564W        W26412   2.544   7.815  15.956 -0.1310  0.3689 -0.0803
 9565W        W26413   8.615   0.470  13.535 -0.3456 -0.2115  0.1143
 9566W        W26414   8.508   5.866   4.207 -0.2160  0.2610  0.2941
 9567W        W26415   1.406   6.745  14.030  0.2446 -0.0778 -0.2197
 9568W        W26416   6.198   1.964   4.354 -0.0443  0.3128  0.0140
 9569W        W26417  13.587  16.592   0.380 -0.1377 -0.1314 -0.1162
 9570W        W26418  11.214   1.454   4.145  0.3417  0.0392  0.0411
 9571W        W26419  10.873   0.303   6.088 -0.0750 -0.0157  0.0821
 9572W        W26420   3.094  12.096   0.998  0.2045 -0.2617  0.0404
 9573W        W26421   7.276  13.023   0.636 -0.1581 -0.1717  0.1952
 9574W        W26422  12.445  12.730  13.679  0.0939  0.4001  0.0214
 9575W        W26423   0.125  12.332   5.622  0.0203 -0.0347 -0.0053
 9576W        W26424  10.055  10.283   4.216 -0.0685  0.1439  0.1332
 9577W        W26425   2.543  16.931  14.124 -0.0148  0.1120 -0.1202
 9578W        W26426  16.864   6.705  10.839  0.0025 -0.2106  0.0479
 9579W        W26427  16.913   2.551  13.141  0.0121 -0.0036 -0.0267
 9580W        W26428  10.518  16.459   0.468 -0.0498 -0.3466  0.0954
 9581W        W26429  12.640  11.201  16.363  0.2945 -0.3445 -0.1575
 9582W        W26430   7.444   2.075   2.465 -0.1790 -0.3652 -0.1489
 9583W        W26431  12.264  13.404   1.133 -0.2348  0.5894 -0.1980
 9584W        W26432   1.123  11.240  13.981 -0.4909  0.4685  0.3271
 9585W        W26433   9.052   7.718   4.027  0.0593  0.1428 -0.1370
 9586W        W26434   3.668   0.066  12.239 -0.2915  0.0359  0.0249
 9587W        W26435   3.022  13.829  13.852 -0.1216 -0.2321 -0.2619
 9588W        W26436   6.910  10.228   0.835 -0.0972  0.0126 -0.0371
 9589W        W26437   7.921   5.737  15.754  0.0364 -0.3082  0.1342
 9590W        W26438  12.660   2.931   4.979 -0.0119 -0.0569 -0.1674
 9591W        W26439  10.572  17.654   4.660  0.1298  0.2369 -0.1028
 9592W        W26440   1.240   3.990   2.841 -0.0346  0.1708  0.1756
 9593W        W26441  17.507   3.042  14.785  0.0084 -0.1482 -0.0131
 9594W        W26442  15.847   8.339  12.199 -0.1562  0.2382  0.1538
 9595W        W26443   1.913  14.650  11.646  0.1535  0.0515  0.3157
 9596W        W26444   5.353  11.318  16.128  0.2052 -0.0181  0.0099
 9597W        W26445   3.109   4.445   2.251  0.0693  0.1886 -0.0782
 9598W        W26446  12.792  12.414   3.468  0.0126 -0.0126 -0.1548
 9599W        W26447   6.686   6.270   0.237  0.1324 -0.0589 -0.1253
 9600W        W26448  17.344   5.704  12.988  0.0914 -0.2429  0.0077
 9601W        W26449   4.116  11.774  14.779 -0.1193  0.1877  0.2416
 9602W        W26450  13.126   2.211   1.553  0.2569 -0.2861 -0.0004
 9603W        W26451  10.782   2.090  15.857 -0.1007 -0.1934  0.0790
 9604W        W26452  12.411  11.986  12.042 -0.2005  0.2148  0.1462
 9605W        W26453   0.165  14.265   4.141 -0.0949  0.2044 -0.4811
 9606W        W26454  11.158   3.107  15.075  0.0020 -0.2640 -0.0499
 9607W        W26455   9.286   0.965   2.553  0.0663  0.4016 -0.1037
 9608W        W26456   2.995   7.263  12.330 -0.0974 -0.1630  0.1987
 9609W        W26457   1.998   4.612  14.357  0.0410 -0.1155  0.1966
 9610W        W26458   7.510   3.246   5.431 -0.3605  0.0635  0.0015
 9611W        W26459   4.339  17.820   0.754 -0.0866 -0.1573 -0.0136
 9612W        W26460   2.192   4.358  13.174 -0.0905 -0.2123 -0.1113
 9613W        W26461   2.161   6.231   2.662 -0.0450  0.2056  0.1050
 9614W        W26462   8.327   0.442  14.012  0.0512 -0.1214 -0.1226
 9615W        W26463   3.393   9.662   2.552  0.0936 -0.0963  0.0222
 9616W        W26464   4.014   6.934  13.426  0.0608 -0.1414 -0.1238
 9617W        W26465   8.758  11.488  12.228  0.2040 -0.2777 -0.1372
 9618W        W26466  10.470   0.069   1.411 -0.0805  0.1471 -0.1081
 9619W        W26467  10.273   2.656   3.738  0.2986  0.1469  0.0338
 9620W        W26468  11.226  12.383  14.102 -0.1390 -0.0569  0.0338
 9621W        W26469   4.528   6.218  15.106  0.3602  0.1996 -0.0017
 9622W        W26470   5.387  15.561  11.753  0.1955  0.1668  0.1483
 9623W        W26471  14.287  10.820   5.277 -0.0260 -0.2180  0.1091
 9624W        W26472  10.740   9.951  12.824 -0.2929 -0.1564  0.0273
 9625W        W26473  11.362   1.324   5.328  0.0850 -0.2350  0.2138
 9626W        W26474   3.842   0.446  14.906  0.0996 -0.2655 -0.0439
 9627W        W26475   8.824   8.354  14.706 -0.0179  0.1940 -0.0698
 9628W        W26476   1.011  13.245   0.305  0.0857  0.0151  0.0314
 9629W        W26477   7.166   5.508  13.918 -0.1851 -0.2673  0.0440
 9630W        W26478   9.995  17.174   2.529  0.3887  0.1854 -0.3332
 9631W        W26479  14.662   4.167  12.283  0.1850 -0.1595  0.3804
 9632W        W26480   0.894   5.965   0.546 -0.0763  0.2393 -0.0862
 9633W        W26481  11.744   4.418   5.134 -0.0627 -0.0828 -0.0308
 9634W        W26482   4.103  14.265   4.187 -0.0440 -0.2810 -0.2968
 9635W        W26483   2.740   0.186   3.020 -0.3110  0.1053 -0.1833
 9636W        W26484  14.586  15.495  13.432  0.3247  0.1871 -0.2338
 9637W        W26485   9.665  13.691  15.340 -0.0079 -0.1031  0.1261
 9638W        W26486  14.678   3.124  13.809 -0.2041  0.1143 -0.1272
 9639W        W26487   1.638   9.670  12.445  0.1702 -0.2386 -0.1812
 9640W        W26488   1.911   0.922   4.762  0.0322  0.2088 -0.2075
 9641W        W26489   8.702  13.141  13.937  0.4827  0.2415 -0.1227
 9642W        W26490  16.509  16.601   2.630 -0.2567  0.0975  0.1829
 9643W        W26491  12.402   9.276   1.419 -0.1186 -0.1498  0.0258
 9644W        W26492   3.267   3.914  11.470 -0.1436  0.0298 -0.0491
 9645W        W26493   4.337   2.958   0.313 -0.0196  0.3272  0.0005
 9646W        W26494  10.815  16.032   4.777  0.0873 -0.2149  0.1210
 9647W        W26495   3.184   5.423   4.312 -0.1122  0.2445  0.3142
 9648W        W26496  15.890  10.032  11.768 -0.1031 -0.0735  0.0835
 9649W        W26497   3.436   9.963  16.187 -0.0518 -0.0380 -0.0296
 9650W        W26498   0.037  13.822  13.901 -0.0630  0.2732  0.1516
 9651W        W26499   2.240  11.034   4.476  0.1909  0.0218  0.2298
 9652W        W26500   5.540  13.771   1.868  0.2383  0.3009 -0.3083
 9653W        W26501   3.282   3.627   3.479  0.1249  0.1796 -0.1228
 9654W        W26502   0.428  10.889  13.052 -0.3780  0.0975 -0.0505
 9655W        W26503  11.595   5.697  16.402  0.0931 -0.3124  0.1336
 9656W        W26504   5.889   7.926  13.409  0.1814  0.3801 -0.0798
 9657W        W26505  11.936  14.380  15.192 -0.0528 -0.1208  0.1740
 9658W        W26506   6.192  14.083   0.966  0.0385 -0.1594 -0.4153
 9659W        W26507  14.706   6.352  12.607  0.0281 -0.2589 -0.1901
 9660W        W26508  10.724   3.227  16.249 -0.1228 -0.1476  0.0241
 9661W        W26509   9.694   4.693  12.488  0.3206  0.0575  0.0250
 9662W        W26510   1.439  17.615  13.737 -0.3795 -0.0225  0.3908
 9663W        W26511   0.832   0.485  16.000  0.1128  0.1331  0.0518
 9664W        W26512  10.090   9.550   3.545  0.0528 -0.5103 -0.0425
 9665W        W26513   4.389   8.564   0.313 -0.1826 -0.3940  0.1490
 9666W        W26514   9.440  13.261   2.154 -0.1184 -0.0154  0.0869
 9667W        W26515  11.726  17.573  12.991  0.0674  0.0263 -0.0865
 9668W        W26516  11.696   8.506   3.656 -0.1622  0.0614  0.0218
 9669W        W26517   4.300   8.736  11.942 -0.2422  0.1631  0.1305
 9670W        W26518   0.575  17.498   2.824 -0.3245  0.2480  0.2029
 9671W        W26519  10.885  17.681  11.307 -0.1301 -0.2086  0.2320
 9672W        W26520  12.097   5.504   4.794 -0.1723  0.0738 -0.1393
 9673W        W26521   6.493   2.084  16.055  0.1468 -0.1439 -0.2382
 9674W        W26522  16.553   1.518   0.977 -0.0655  0.3208 -0.2375
 9675W        W26523  14.516   4.481   2.729  0.1814  0.2464  0.0421
 9676W        W26524  11.575   9.802   1.290 -0.1879 -0.1572 -0.0364
 9677W        W26525   4.654   0.727  12.640  0.1121  0.2639 -0.3038
 9678W        W26526   9.035  10.251  14.902 -0.1560  0.4124  0.1535
 9679W        W26527   2.131   8.311   3.367 -0.1029  0.1511 -0.1265
 9680W        W26528   7.799  11.302  16.335  0.2675  0.2461 -0.0465
 9681W        W26529  12.550   9.764  12.189  0.0262  0.0517  0.1852
 9682W        W26530  11.102  11.904  10.989 -0.1351 -0.1739 -0.2265
 9683W        W26531   0.798  17.537  11.975 -0.2583  0.3514  0.1062
 9684W        W26532   7.564   8.362   0.871  0.0705 -0.0639 -0.1711
 9685W        W26533  14.209   5.110  13.897  0.0624 -0.0618 -0.2153
 9686W        W26534  16.190  11.399  13.974 -0.0541  0.0251  0.0286
 9687W        W26535   1.436   3.641   0.132  0.0814 -0.2053  0.1930
 9688W        W26536  12.757  10.812   3.759 -0.1611 -0.0836  0.1578
 9689W        W26537   5.213   6.337  13.707 -0.2548 -0.3675 -0.0540
 9690W        W26538  16.652   9.087  15.196 -0.3639 -0.1575  0.1837
 9691W        W26539  11.569  14.476   3.172  0.1514 -0.2493 -0.2329
 9692W        W26540  11.083  13.778  14.526 -0.3657  0.3590 -0.2622
 9693W        W26541   4.939   1.957  13.287  0.1018  0.0995  0.0312
 9694W        W26542  13.975   4.794  15.292 -0.2456  0.1688  0.0840
 9695W        W26543  10.168   1.957  12.298 -0.0605 -0.4828 -0.1792
 9696W        W26544  17.489   7.932  13.338 -0.0935 -0.1137  0.0279
 9697W        W26545  16.220   4.224   4.443  0.2293 -0.1145 -0.0819
 9698W        W26546   3.955   6.681  14.694  0.0058 -0.0974  0.5128
 9699W        W26547   0.243  12.782  11.312  0.0790 -0.3071 -0.0897
 9700W        W26548  16.568   3.004   0.195  0.0874  0.1344  0.0531
 9701W        W26549   6.707   9.930  12.272  0.1282  0.1375 -0.0502
 9702W        W26550  13.156   2.887  13.742 -0.1308  0.1983  0.1061
 9703W        W26551   0.554   7.543   2.360 -0.1080  0.1066  0.0080
 9704W        W26552  12.277   7.084   1.362 -0.0986  0.0502 -0.1283
 9705W        W26553  17.120   1.583  12.298  0.2135  0.1208  0.1849
 9706W        W26554  16.609  12.155   3.887 -0.0930 -0.0373 -0.0689
 9707W        W26555   7.686  16.287   3.075 -0.0765  0.0554 -0.2999
 9708W        W26556  17.583   6.253   2.431 -0.2027 -0.0582  0.0492
 9709W        W26557   2.758   6.453  12.865 -0.1799  0.1692 -0.2470
 9710W        W26558   8.289  15.296  11.806  0.1434  0.0534 -0.0340
 9711W        W26559   7.609  11.368  15.312  0.1270  0.4150 -0.1561
 9712W        W26560   7.270  12.734   3.644  0.0569  0.1877 -0.0295
 9713W        W26561  15.233   0.459   3.697 -0.0224  0.2123  0.0198
 9714W        W26562  15.759  13.737  15.631 -0.1456  0.0504 -0.1669
 9715W        W26563   5.671   3.835   1.283 -0.2230 -0.0076 -0.1002
 9716W        W26564   1.598  17.808   0.821 -0.0441 -0.1114 -0.0731
 9717W        W26565  17.443   4.300  12.493 -0.2935 -0.0576 -0.1260
 9718W        W26566   3.544   6.374  15.772 -0.2853 -0.0424  0.0903
 9719W        W26567  10.174   2.953   4.741 -0.0537 -0.0075  0.1209
 9720W        W26568   7.017  12.622   4.106  0.0031  0.1164  0.1718
 9721W        W26569  12.717   0.998  12.591 -0.2604 -0.0903 -0.1819
 9722W        W26570   3.198   2.657  13.311  0.0848 -0.3857 -0.0067
 9723W        W26571   9.830  13.089  15.337  0.0605  0.2257 -0.1331
 9724W        W26572  11.650   1.822   0.652 -0.1456  0.0887  0.2208
 9725W        W26573  13.274  17.464  14.847 -0.1372 -0.0590 -0.1144
 9726W        W26574  13.630   6.841  14.237  0.0246 -0.0448  0.0894
 9727W        W26575   1.966  13.394   0.431 -0.0690  0.0626 -0.0233
 9728W        W26576   3.456  12.591  16.365 -0.0502 -0.0450  0.0642
 9729W        W26577   6.869   1.371  15.008 -0.0962  0.2868  0.1164
 9730W        W26578  16.714   8.573  15.239  0.1022 -0.0716 -0.1301
 9731W        W26579  15.216   7.111   1.748  0.1738 -0.2024 -0.0969
 9732W        W26580   4.634   4.857  14.393 -0.0964 -0.0488  0.3498
 9733W        W26581   6.350   6.480   4.522 -0.0036 -0.1840  0.2536
 9734W        W26582   5.130   2.396   0.193 -0.0445  0.3369 -0.0000
 9735W        W26583   5.986  17.302   1.369 -0.0559  0.2113  0.0713
 9736W        W26584  12.333   2.733   3.948  0.2353  0.3650  0.1452
 9737W        W26585   0.033  17.069  14.696 -0.0501  0.0779  0.0248
 9738W        W26586  10.185   5.513  15.507  0.1617  0.0318 -0.2166
 9739W        W26587  17.593  10.304  13.736  0.1750 -0.0591 -0.1089
 9740W        W26588   6.836  14.023   0.875  0.1082  0.0391  0.3008
 9741W        W26589   7.293   2.247  16.379  0.0426 -0.0604  0.1030
 9742W        W26590  17.264  12.270   2.772 -0.1125 -0.0794 -0.2588
 9743W        W26591  15.234  12.942   0.500 -0.3430  0.0013 -0.2812
 9744W        W26592   1.950   4.163   3.005 -0.1889  0.1313 -0.0564
 9745W        W26593  14.622  16.349  12.423 -0.1775 -0.1044 -0.0972
 9746W        W26594  16.531   8.036  14.783  0.1323  0.0078  0.1852
 9747W        W26595   4.977   4.952  12.470 -0.1807  0.2305 -0.2640
 9748W        W26596   8.172   2.057  12.630 -0.1764 -0.0960 -0.0275
 9749W        W26597  17.847   2.434   0.388 -0.0823 -0.0767  0.1014
 9750W        W26598   6.841   0.088  14.469 -0.0678 -0.3037 -0.1518
 9751W        W26599   4.588  10.709   4.651 -0.4055 -0.3984 -0.1290
 9752W        W26600  14.897   8.736   4.153 -0.1405  0.0606 -0.0309
 9753W        W26601   3.985  11.175   1.364  0.0447  0.0892  0.2574
 9754W        W26602  17.068   1.345   3.411  0.0398  0.0126  0.0334
 9755W        W26603   9.833   6.202   3.933 -0.0264  0.1200  0.0971
 9756W        W26604   4.918   3.108  13.521  0.2234 -0.1353  0.0691
 9757W        W26605  11.992  15.286   3.644 -0.2476  0.2785  0.1124
 9758W        W26606  17.713   5.623  13.936 -0.0524  0.0698 -0.0220
 9759W        W26607  16.124  11.645   2.854  0.0516 -0.1862  0.1862
 9760W        W26608   3.619   0.016  12.978  0.0829  0.0344 -0.1959
 9761W        W26609  10.749   2.415  14.457 -0.3615  0.1129  0.1162
 9762W        W26610   4.490  16.063   3.881  0.1736  0.2798 -0.0789
 9763W        W26611   1.023  13.414   1.922  0.2015 -0.2417 -0.3568
 9764W        W26612  16.875   1.093  14.336  0.1283  0.2084  0.2399
 9765W        W26613   5.618   0.294   5.077  0.1213 -0.0534  0.0796
 9766W        W26614  12.511  15.906  14.305  0.1782 -0.0924 -0.3260
 9767W        W26615   5.445   2.959  14.254 -0.0062  0.0485  0.0856
 9768W        W26616   8.404  11.663  15.330 -0.0041 -0.1079 -0.2686
 9769W        W26617  12.670   2.639   5.407  0.0926 -0.3837 -0.2077
 9770W        W26618   9.959  10.184  12.242 -0.1211 -0.1312  0.5914
 9771W        W26619   0.276  10.546   4.583  0.1586 -0.0045  0.0411
 9772W        W26620   1.940   5.463   3.305  0.0229 -0.1075  0.0342
 9773W        W26621   9.987  15.577   1.462 -0.1973  0.4420  0.3457
 9774W        W26622  12.926   6.448  13.785 -0.0344 -0.3741  0.1163
 9775W        W26623   2.498   8.996  12.164  0.1060  0.2001 -0.0640
 9776W        W26624   7.323   3.895  13.916 -0.3024  0.2464 -0.0391
 9777W        W26625   7.238   0.062   5.269  0.2011  0.0288  0.0926
 9778W        W26626   3.607   2.041  14.327  0.0835 -0.0395 -0.1494
 9779W        W26627  13.471   0.188  15.542 -0.0394 -0.0393 -0.1039
 9780W        W26628  16.249  14.622   3.806  0.1423  0.0859  0.0537
 9781W        W26629   1.643  10.862  11.997 -0.0403 -0.0558  0.0051
 9782W        W26630   6.770  11.708  13.080 -0.0353 -0.2497 -0.0609
 9783W        W26631  15.945   2.205   1.396 -0.0328 -0.0286 -0.1176
 9784W        W26632  17.028   4.539  12.664 -0.2940 -0.1120  0.2219
 9785W        W26633   6.460   3.748  14.190 -0.2221 -0.0094  0.1887
 9786W        W26634  17.836   2.563  14.034  0.2639 -0.4091 -0.1466
 9787W        W26635   1.922  16.626   3.914  0.4088  0.2224 -0.2591
 9788W        W26636  16.221   1.728   3.322  0.0630  0.0990 -0.1866
 9789W        W26637  17.477  12.727   2.442 -0.0457 -0.1885  0.0535
 9790W        W26638   4.073   6.110   0.973 -0.1231 -0.2130  0.2009
 9791W        W26639  16.521   6.062   0.263 -0.2122 -0.2310  0.1907
 9792W        W26640   8.770   8.910   1.329  0.1163 -0.0576  0.1739
 9793W        W26641   7.163  13.873  16.558 -0.2158  0.0835  0.2256
 9794W        W26642  17.664  16.452   1.322  0.2284  0.0780 -0.2158
 9795W        W26643   4.672  17.075   4.055 -0.0321 -0.1112  0.3064
 9796W        W26644  12.129  15.132   1.755 -0.4338 -0.2022 -0.3183
 9797W        W26645  16.180  11.665  10.354 -0.0616 -0.0726 -0.0627
 9798W        W26646   7.382   0.191  14.396 -0.0325  0.1793 -0.0462
 9799W        W26647   6.889  17.013   4.240 -0.0427  0.0005 -0.0357
 9800W        W26648  14.871   0.656   0.896  0.3001  0.2601  0.0831
 9801W        W26649   2.062  10.101   5.199  0.1762  0.1671 -0.0735
 9802W        W26650   4.658   4.542  12.503  0.1977 -0.1302 -0.2554
 9803W        W26651  16.417   9.941   4.997 -0.0316 -0.0268 -0.0769
 9804W        W26652   6.284   9.811  12.951 -0.1596  0.4247 -0.0767
 9805W        W26653   8.300   4.426  15.994  0.0539  0.1383 -0.3742
 9806W        W26654   4.455   4.459  14.190 -0.1891  0.0207  0.1432
 9807W        W26655   2.404  12.529  15.393 -0.0626  0.0486  0.1462
 9808W        W26656  11.562  15.025   4.715 -0.0482  0.2711 -0.1629
 9809W        W26657  17.778  12.947  16.598  0.3236 -0.0432  0.1247
 9810W        W26658   9.927   7.445   5.072  0.1526  0.2159 -0.0143
 9811W        W26659   1.058  12.674   2.340  0.1709 -0.1249  0.1782
 9812W        W26660  13.589   7.743   1.223 -0.0605  0.1510 -0.2619
 9813W        W26661  17.517  12.410  12.324  0.1716  0.1528 -0.1661
 9814W        W26662   1.007  17.493   5.292  0.3408  0.2854 -0.3132
 9815W        W26663   5.758   1.176  16.424 -0.0687  0.2938 -0.0962
 9816W        W26664   5.837   3.397  15.300  0.0662 -0.0399 -0.0690
 9817W        W26665   1.691  17.805  11.130  0.1746  0.1788  0.1394
 9818W        W26666  13.157  13.352  16.201  0.0314  0.0518 -0.3499
 9819W        W26667   0.292   0.234   3.611 -0.1258 -0.2827  0.0898
 9820W        W26668   9.820   2.247   3.276 -0.2557  0.3355  0.0959
 9821W        W26669   6.094   9.084   5.448  0.0041  0.0359  0.1002
 9822W        W26670   9.326   1.343   1.269 -0.0381 -0.2480  0.0439
 9823W        W26671  16.162   2.709   4.316  0.0946  0.1545 -0.1149
 9824W        W26672  17.755   1.179   4.291 -0.4176  0.4140  0.3237
 9825W        W26673   9.974   9.137   4.839 -0.1812  0.2882 -0.0504
 9826W        W26674   7.662  14.110  16.464  0.0459  0.1414 -0.0733
 9827W        W26675  14.533  15.792   1.284  0.0296  0.0411  0.0708
 9828W        W26676   0.694   1.353   4.700  0.0654  0.0778 -0.0229
 9829W        W26677   3.662   0.872   1.301 -0.4105  0.2735  0.0471
 9830W        W26678   6.597  10.604  15.155  0.0425 -0.1086  0.2880
 9831W        W26679   5.736  17.174  15.530  0.2949 -0.2629 -0.0073
 9832W        W26680   7.452   2.284  15.843 -0.1222 -0.0946  0.2999
 9833W        W26681   7.312   1.462  15.248  0.0102 -0.2070  0.3140
 9834W        W26682   7.956   5.964  15.264  0.1429 -0.3312 -0.2788
 9835W        W26683  17.679   7.406   1.435  0.3314  0.0994 -0.0189
 9836W        W26684  10.904  16.167  11.954 -0.0107 -0.1115  0.1060
 9837W        W26685  17.561  17.783   2.071 -0.1534 -0.0337 -0.1466
 9838W        W26686   0.287  16.947   0.244 -0.0070 -0.0183  0.1092
 9839W        W26687  11.671  12.369  16.214 -0.2995 -0.2772  0.1715
 9840W        W26688  13.714   5.650   0.952  0.1854 -0.1646 -0.3286
 9841W        W26689   5.230   6.621   3.438  0.2533  0.0411 -0.4015
 9842W        W26690  11.690   4.439   1.877  0.4767 -0.0859 -0.3722
 9843W        W26691   0.636  14.330   2.453 -0.2838 -0.0531  0.2411
 9844W        W26692   4.207   6.171  14.758 -0.0285  0.4018  0.1172
 9845W        W26693   9.144  11.149  12.345 -0.0569  0.2250 -0.1530
 9846W        W26694   3.569  17.312   2.810  0.1918 -0.0029 -0.3720
 9847W        W26695   1.133   6.420  12.753 -0.1119 -0.0336  0.4359
 9848W        W26696  13.709   0.014   0.024  0.0137 -0.0594 -0.1593
 9849W        W26697   2.013   2.427   3.497 -0.0890 -0.3242  0.1194
 9850W        W26698  15.330   5.178  15.600  0.1207 -0.3411 -0.0909
 9851W        W26699   9.646  11.579  15.556  0.0374 -0.2519  0.1134
 9852W        W26700   7.942   2.249  14.463  0.1945 -0.2297  0.0572
 9853W        W26701   1.622   0.731   1.424  0.1334 -0.1963 -0.0464
 9854W        W26702   8.133   0.804  15.418  0.0233  0.1955 -0.0695
 9855W        W26703   0.524   4.367   3.843  0.1864 -0.0229 -0.0615
 9856W        W26704   0.599  12.939   3.335  0.1496 -0.3203  0.2964
 9857W        W26705  10.086  13.242   1.305 -0.0486  0.0475  0.2195
 9858W        W26706   7.175   2.666  14.584  0.0460 -0.1071 -0.2392
 9859W        W26707  10.869  17.091  15.030  0.4312 -0.1374  0.2758
 9860W        W26708  16.951   4.836   2.568  0.0254  0.1251 -0.0553
 9861W        W26709   0.899   8.216   3.060 -0.0003  0.3503  0.3634
 9862W        W26710  14.561   5.325  15.484  0.1055 -0.1131  0.1072
 9863W        W26711   8.383  16.901  11.844 -0.1455  0.0104 -0.2393
 9864W        W26712   8.448  12.565   3.391 -0.0946  0.0260  0.1578
 9865W        W26713  14.297  16.940   3.729  0.1824  0.2226 -0.0855
 9866W        W26714  14.108  13.759  13.880  0.2941 -0.2060  0.0057
 9867W        W26715  17.574  14.433  16.602 -0.0906  0.1584 -0.3422
 9868W        W26716   1.218   8.981  16.269  0.0318  0.0892 -0.0654
 9869W        W26717  11.939   4.807   1.601 -0.0104  0.1363  0.2266
 9870W        W26718   6.841   5.852   1.167 -0.3215 -0.1677 -0.0867
 9871W        W26719   2.472  14.103   0.631  0.3183 -0.2788  0.0066
 9872W        W26720   1.852   2.939   4.730  0.0372 -0.0950  0.0189
 9873W        W26721   8.785   7.863   2.010  0.0403 -0.0426 -0.0518
 9874W        W26722  12.465  14.325   0.043  0.0201 -0.0799  0.5368
 9875W        W26723  13.591  13.589   4.256  0.0814 -0.0930  0.1698
 9876W        W26724  15.230  16.708  14.867 -0.0269  0.2061 -0.1659
 9877W        W26725   6.866  12.267  13.956 -0.1890 -0.2558  0.4790
 9878W        W26726  16.152   8.313  11.661  0.0301 -0.1619 -0.3999
 9879W        W26727  12.233   1.390  14.384  0.0203  0.1343 -0.0434
 9880W        W26728   8.010   9.890  15.128 -0.0252 -0.1510  0.4571
 9881W        W26729  12.428  11.398   3.330 -0.2253  0.0896 -0.0205
 9882W        W26730  12.082  10.547  14.654  0.1326 -0.2279  0.0679
 9883W        W26731   9.853  17.127  12.603 -0.0438 -0.2398 -0.2501
 9884W        W26732   3.611   6.462   1.854 -0.0194 -0.0085  0.0258
 9885W        W26733  16.750   8.559  14.643 -0.1692 -0.1557 -0.1140
 9886W        W26734  14.780  16.043   4.708  0.0945 -0.0940 -0.0403
 9887W        W26735   4.174   0.719  12.499 -0.1001 -0.0853 -0.1865
 9888W        W26736  14.323   2.873  16.349  0.0499 -0.1735  0.1331
 9889W        W26737   6.796   0.548   0.220 -0.1596  0.4654 -0.0066
 9890W        W26738  12.279  14.433   4.613  0.1557  0.2127 -0.1557
 9891W        W26739   6.630   0.844  10.683 -0.1232  0.0954 -0.1298
 9892W        W26740  16.012   0.602   4.729 -0.1721  0.1022 -0.4130
 9893W        W26741  16.154   2.387  16.388  0.0895 -0.3069  0.1680
 9894W        W26742   0.236  11.828  15.461 -0.0770 -0.3348 -0.2643
 9895W        W26743   5.630   6.715  11.471 -0.0445 -0.3149  0.0656
 9896W        W26744  13.148  17.014   0.271  0.0636  0.0015  0.3333
 9897W        W26745  12.110   3.209  12.618  0.0635 -0.1878  0.1061
 9898W        W26746   1.461  14.590  14.224  0.2202  0.1095 -0.0045
 9899W        W26747   7.380  12.061  16.302  0.5237  0.1080 -0.1493
 9900W        W26748   6.875  10.391  11.581  0.0609 -0.0521 -0.1029
 9901W        W26749  14.438   2.677   1.942  0.0409  0.0488 -0.0967
 9902W        W26750   5.789   6.442   4.079 -0.0190 -0.3859 -0.1623
 9903W        W26751  14.326   1.562  14.426 -0.0380  0.2070 -0.1388
 9904W        W26752   0.888   1.821   0.539  0.0028 -0.0732  0.1269
 9905W        W26753   6.062   1.335   2.478 -0.0356 -0.0861  0.2321
 9906W        W26754  16.673   9.585  14.214  0.0894  0.0500 -0.1862
 9907W        W26755  14.926   9.395  16.228 -0.1710 -0.2499 -0.1866
 9908W        W26756   0.897  14.906  14.922  0.1955  0.0536  0.0135
 9909W        W26757  17.697   6.478  15.843  0.3465  0.1556  0.2085
 9910W        W26758   3.323  13.825  15.241  0.2187  0.2256 -0.1990
 9911W        W26759  13.475   4.551  16.520  0.0721 -0.1190 -0.0240
 9912W        W26760  16.492  14.413   2.089  0.1412 -0.0488 -0.1432
 9913W        W26761   7.902   7.477   0.161  0.2874 -0.2187 -0.0485
 9914W        W26762  16.503   7.083  14.290 -0.0255  0.0531  0.2513
 9915W        W26763   6.419   4.460   0.070 -0.1689 -0.1561 -0.0308
 9916W        W26764   8.799   9.719   0.817 -0.0530 -0.2429  0.0234
 9917W        W26765   6.538  10.022  13.554  0.1049  0.0514  0.1394
 9918W        W26766  13.900   8.597  14.196 -0.1526 -0.0247  0.0935
 9919W        W26767  17.808   6.386   4.895 -0.0946  0.0613 -0.2003
 9920W        W26768  17.811   1.565   5.193 -0.0213  0.0466 -0.2057
 9921W        W26769  17.732   6.293   1.920 -0.0995  0.0580 -0.0005
 9922W        W26770   9.292  12.340  12.792  0.2574  0.0136  0.2297
 9923W        W26771   6.359  10.947   1.995 -0.1096 -0.1183  0.1561
 9924W        W26772   3.853   5.088  15.571 -0.0257 -0.0172 -0.0603
 9925W        W26773  13.100  15.142  14.353 -0.0991  0.0852  0.1904
 9926W        W26774  12.844   8.789   0.377  0.1364 -0.0079 -0.1463
 9927W        W26775  10.593   5.520   2.811  0.0458 -0.1354 -0.0918
 9928W        W26776  13.249   7.562   3.592 -0.0105  0.1756  0.1218
 9929W        W26777  16.622   0.532   4.588 -0.3061 -0.0209 -0.0831
 9930W        W26778   3.558   8.730   0.680  0.3036  0.1735 -0.1169
 9931W        W26779   5.817   6.866   5.289  0.0875  0.0555 -0.0009
 9932W        W26780  14.641  16.933  15.332  0.4305  0.3196 -0.0592
 9933W        W26781   3.849   8.843  14.326 -0.0660  0.4527  0.0580
 9934W        W26782   7.753   4.005  13.663 -0.1698  0.0964  0.1541
 9935W        W26783   5.250  12.617  12.874  0.4110 -0.0529  0.0917
 9936W        W26784  14.864   9.680   1.250 -0.2309 -0.0351  0.0988
 9937W        W26785  12.871   4.422   2.526  0.0258  0.1953  0.0403
 9938W        W26786  11.819  16.550   3.570 -0.1367  0.2823 -0.1053
 9939W        W26787   6.157  11.117   3.824 -0.1095  0.1281 -0.1833
 9940W        W26788   7.212  15.897   1.155 -0.3221 -0.2327  0.1834
 9941W        W26789  12.442   5.072   4.103 -0.0687  0.0694 -0.3371
 9942W        W26790   6.872   9.111   3.273  0.0824  0.1523 -0.0578
 9943W        W26791  13.395  12.305  10.840 -0.2992  0.1111 -0.1452
 9944W        W26792  17.805  13.215  15.478  0.2937  0.0534  0.2344
 9945W        W26793  14.270  13.686  15.279  0.3216  0.0191  0.2478
 9946W        W26794  11.373  14.391  15.347  0.2039 -0.0178  0.0141
 9947W        W26795  14.832   2.259  14.744 -0.0490  0.2388 -0.2708
 9948W        W26796  16.482  14.343   3.079  0.1319 -0.1787  0.4760
 9949W        W26797   8.473  13.855  11.666  0.0559 -0.1565  0.1491
 9950W        W26798  10.410   2.302  15.212 -0.0933 -0.2056 -0.3908
 9951W        W26799  14.392  16.977  11.625  0.1056  0.0475  0.1298
 9952W        W26800  17.294  12.678  14.180  0.0417  0.2133  0.2496
 9953W        W26801   4.149   8.452   4.538 -0.2385 -0.2628 -0.2328
 9954W        W26802   2.167   2.708  16.373 -0.2553  0.1126 -0.0056
 9955W        W26803   2.698  15.145   2.968 -0.3226  0.0585  0.0581
 9956W        W26804  16.061   9.038   1.295  0.3538  0.1635  0.0113
 9957W        W26805   6.353   1.262   0.637 -0.1931 -0.0290 -0.1122
 9958W        W26806  10.636   6.670  12.454  0.1133  0.1056 -0.2464
 9959W        W26807  15.094   8.162  14.414  0.0910 -0.1171 -0.0915
 9960W        W26808  14.641  16.123  14.224  0.1908 -0.0326 -0.1011
 9961W        W26809  15.544   6.761  16.370  0.0440  0.1115  0.1079
 9962W        W26810  14.478   6.937  15.452 -0.1033  0.0729 -0.0482
 9963W        W26811   9.685   3.303   1.324 -0.0751  0.1971 -0.1598
 9964W        W26812  11.967  12.192  14.820  0.1529  0.4193  0.0854
 9965W        W26813  12.613  16.060   4.709 -0.2489 -0.0942 -0.2529
 9966W        W26814  16.700  17.775   2.542  0.0424  0.0317  0.2911
 9967W        W26815  13.390   7.171   4.868  0.0446 -0.2536 -0.0231
 9968W        W26816   8.708   6.228   2.598 -0.0009  0.0503  0.3611
 9969W        W26817   1.921  11.725   4.643 -0.0717  0.1054  0.1647
 9970W        W26818   9.770   7.825  14.442  0.0426 -0.1618 -0.0113
 9971W        W26819   4.121   4.787  14.113 -0.1631 -0.0567 -0.0907
 9972W        W26820  15.973   5.497  14.901  0.2687  0.1776  0.2964
 9973W        W26821   2.449   8.937  14.308  0.0882  0.0795  0.1161
 9974W        W26822  10.903   3.805  14.976  0.0007 -0.0305 -0.2164
 9975W        W26823  14.102   2.760  15.265 -0.1578  0.2508 -0.1370
 9976W        W26824  11.823   0.984  12.670 -0.1161 -0.3095 -0.3626
 9977W        W26825  13.160   1.877  16.240 -0.3599 -0.3382  0.2213
 9978W        W26826   9.970   6.960  12.982 -0.1048  0.2001 -0.0469
 9979W        W26827   1.915   2.027  11.169 -0.0722 -0.2349  0.0896
 9980W        W26828  11.668   3.627   2.650 -0.0195 -0.1351 -0.2682
 9981W        W26829   0.532   5.700  13.188  0.2768 -0.1602  0.1014
 9982W        W26830  16.174  16.805   2.302  0.0233  0.0279  0.0901
 9983W        W26831  14.463  15.607  16.432  0.0394  0.2019 -0.0861
 9984W        W26832   7.095  17.158  15.665  0.3677 -0.0538 -0.2272
 9985W        W26833   4.623   4.899   3.891  0.5313 -0.0798 -0.0227
 9986W        W26834   2.314   2.077   1.853  0.0364  0.0349 -0.1654
 9987W        W26835   2.932  16.697   0.090 -0.0794 -0.2046  0.3390
 9988W        W26836  14.218   0.520  13.976  0.0317  0.0227 -0.0700
 9989W        W26837   1.733   3.896   2.670 -0.4026 -0.1456 -0.0139
 9990W        W26838  10.286   7.647   4.662  0.1057  0.0097  0.1709
 9991W        W26839   9.946   5.015  16.608 -0.0122 -0.1576  0.0384
 9992W        W26840   5.676  17.790   0.745 -0.0965 -0.0172  0.0061
 9993W        W26841  16.691   2.008  14.226 -0.1254  0.3008  0.0618
 9994W        W26842   2.066   2.909  11.114  0.1245  0.0383 -0.3046
 9995W        W26843   0.880   6.523   2.497  0.0505  0.0223 -0.1234
 9996W        W26844  11.738   0.527  15.917  0.1873  0.3019 -0.0144
 9997W        W26845  15.004  16.601  12.178  0.1463 -0.3584  0.0815
 9998W        W26846  16.434  12.570   4.226 -0.0573 -0.2142 -0.0361
 9999W        W26847  17.720   3.759  16.309  0.1614  0.1891  0.2281
10000W        W26848   1.000   3.684  14.975 -0.2209 -0.3002 -0.0943
10001W        W26849  15.809  11.850  12.376 -0.0625  0.0662 -0.1176
10002W        W26850   0.273  12.071  11.679  0.1525 -0.3937  0.1441
10003W        W26851   4.111   2.375   2.303  0.0497  0.0613  0.0807
10004W        W26852   5.296  17.771   2.130  0.0161 -0.2217 -0.1020
10005W        W26853   9.095   1.688   2.074 -0.0246 -0.0195  0.0179
10006W        W26854   5.407  15.859   0.003  0.3448  0.1421 -0.1520
10007W        W26855  14.205  10.073  13.210 -0.2161 -0.2394 -0.0710
10008W        W26856   1.037  13.431   3.969 -0.0966  0.1676  0.1917
10009W        W26857   8.965  13.100  15.318  0.2742  0.1574  0.4550
10010W        W26858  15.432   3.385   3.486 -0.0469  0.1414 -0.2842
10011W        W26859   2.120  12.039   3.839  0.1249  0.0718 -0.0315
10012W        W26860  11.813   2.560  12.966 -0.0747 -0.4447 -0.0179
10013W        W26861   5.239  10.555   1.143  0.1324 -0.0935 -0.0192
10014W        W26862   7.480   3.636  13.495 -0.1620  0.1009  0.0334
10015W        W26863  14.704   7.109  14.520  0.3036 -0.2453 -0.0536
10016W        W26864   2.303   5.071   3.974  0.0423  0.2547 -0.1699
10017W        W26865  10.852  10.049  14.587  0.0805 -0.3167  0.0975
10018W        W26866   2.340  12.864   4.363 -0.1789 -0.0967 -0.0909
10019W        W26867   8.902  16.661   3.250 -0.1983 -0.2065  0.1626
10020W        W26868   3.317  17.626   5.440 -0.1210 -0.2113  0.2142
10021W        W26869  15.293   6.710  15.138 -0.2405  0.2196  0.0087
10022W        W26870   2.247   6.562   1.303  0.1305  0.1580  0.0462
10023W        W26871   6.028  13.330  16.473 -0.1090  0.1273 -0.1719
10024W        W26872   4.845  16.814  14.296 -0.2396  0.3026  0.1800
10025W        W26873   3.632   9.697  12.719 -0.1976  0.0909 -0.1227
10026W        W26874  12.137  13.340   4.411 -0.1083 -0.3625 -0.0134
10027W        W26875   5.431   6.897  15.341  0.1255  0.2286 -0.3241
10028W        W26876  17.249  12.446   3.272 -0.0782 -0.4174  0.4246
10029W        W26877  12.735   5.300   2.896 -0.1025 -0.0574 -0.1861
10030W        W26878   7.860  14.794   1.465  0.0711  0.1094 -0.1928
10031W        W26879   6.552   0.675   5.190 -0.2849 -0.3834  0.3210
10032W        W26880  11.416   2.073   0.115 -0.2479  0.2505  0.0302
10033W        W26881   0.876   7.862  12.217 -0.4609 -0.1689 -0.1147
10034W        W26882   9.445  12.855   1.798  0.3055  0.0707 -0.0467
10035W        W26883  13.399  17.538   5.512 -0.0492  0.1110 -0.2877
10036W        W26884   1.709   8.488  11.650 -0.1653 -0.0880 -0.1726
10037W        W26885   3.074   8.836  15.501  0.0432 -0.0446  0.0929
10038W        W26886   7.006   9.235   1.884 -0.1237 -0.1998  0.3691
10039W        W26887  12.182   9.154  15.455 -0.2181  0.1775  0.2053
10040W        W26888  12.287  10.040   3.571  0.1275 -0.3084  0.0399
10041W        W26889  15.071   0.979   1.194  0.2246  0.3088  0.1433
10042W        W26890  17.471   3.479  14.097  0.0045 -0.0854 -0.1378
10043W        W26891  14.059  17.829  14.858  0.4085  0.2434 -0.0271
10044W        W26892   5.323  14.611  16.486 -0.1873  0.1778  0.2444
10045W        W26893   4.202   1.702   2.166 -0.1417 -0.1103 -0.0683
10046W        W26894  10.510   2.238   5.619 -0.1064 -0.1187 -0.2052
10047W        W26895   0.046   1.108  14.272 -0.1073 -0.0355  0.3375
10048W        W26896   0.532   7.962   0.167  0.0838 -0.2347  0.3158
10049W        W26897   6.648  14.977  11.518  0.0673 -0.0672  0.0155
10050W        W26898   1.882   9.717   0.382 -0.2553 -0.2425  0.2426
10051W        W26899  16.292  14.903   5.362  0.1629  0.2303 -0.0255
10052W        W26900   4.256   3.771   2.680 -0.1696  0.0496  0.0355
10053W        W26901  10.815   5.355   5.307  0.0875 -0.2286 -0.1532
10054W        W26902   5.155   7.672   4.848  0.0000  0.2736 -0.1490
10055W        W26903  16.097   2.992  13.562  0.0808  0.0315 -0.0082
10056W        W26904  12.549  15.486   2.998  0.0051  0.0946 -0.0224
10057W        W26905  13.309  10.967  15.265  0.0691  0.0840 -0.0091
10058W        W26906  11.493  11.661   1.345  0.1282  0.3100 -0.0840
10059W        W26907   2.946  14.171  11.826 -0.3508  0.0736 -0.2226
10060W        W26908   7.925   4.439   3.729  0.1796 -0.1983 -0.1343
10061W        W26909   6.988   2.625  12.692  0.0602 -0.1788 -0.2657
10062W        W26910   4.431  11.389   1.214 -0.1163  0.0015 -0.0056
10063W        W26911  13.926   4.197  14.026  0.4211  0.2369  0.0452
10064W        W26912   0.961  15.503  14.891  0.0358 -0.0144  0.0081
10065W        W26913  14.140   8.989   0.883 -0.2679 -0.0160 -0.4312
10066W        W26914   1.886   2.100  12.990 -0.1518  0.1419 -0.2489
10067W        W26915   3.187   5.963  14.076  0.0345  0.1674 -0.1324
10068W        W26916   0.424  12.683  13.155 -0.0529 -0.1389  0.0242
10069W        W26917   7.017  14.232  13.213  0.0693  0.3200 -0.0621
10070W        W26918   4.220   3.441   4.391  0.0479 -0.0409  0.1851
10071W        W26919  12.226   8.633  12.040 -0.2671 -0.1258  0.2034
10072W        W26920  10.415   9.645   0.618  0.0585 -0.2245 -0.3260
10073W        W26921  16.982   7.664  11.615  0.2098 -0.2480  0.0072
10074W        W26922   5.943  15.945   2.723 -0.0399  0.3389  0.0898
10075W        W26923  11.681   2.385  16.055  0.3646  0.2340 -0.2349
10076W        W26924  10.041  12.513   3.845 -0.0284  0.1122  0.3108
10077W        W26925  16.573  12.554  13.517 -0.1828 -0.2264  0.0449
10078W        W26926  12.851   3.174   2.165 -0.3861  0.1418  0.0759
10079W        W26927  12.017  15.706  15.767 -0.2342 -0.0178 -0.1086
10080W        W26928  14.224   9.798   2.544 -0.4640 -0.3376  0.0624
10081W        W26929  14.085  10.490   1.931  0.0320 -0.2506  0.0474
10082W        W26930   0.032  16.107  11.513 -0.4347  0.1282  0.2092
10083W        W26931  17.426   9.132  15.351  0.1950  0.0799  0.0778
10084W        W26932   1.716   7.092   2.348 -0.1436  0.0324 -0.2722
10085W        W26933   7.671   4.374   4.168  0.1084  0.0251  0.2216
10086W        W26934  15.885  14.254   4.573  0.4273  0.1633 -0.1836
10087W        W26935   9.174  14.644   4.708  0.0494  0.0930 -0.0596
10088W        W26936   1.293   8.749   0.053  0.3779 -0.0213  0.1150
10089W        W26937  17.443   4.831  15.996  0.1648 -0.2044  0.2368
10090W        W26938   7.857   9.660   4.013 -0.1698 -0.0065 -0.2180
10091W        W26939  17.672  14.907   3.543 -0.0745 -0.0721 -0.2189
10092W        W26940  13.711  10.853   0.372  0.1212 -0.0021 -0.2371
10093W        W26941   5.026   0.984   1.416 -0.2393 -0.2124 -0.2416
10094W        W26942   0.533  13.212  11.331  0.1808 -0.0682  0.0570
10095W        W26943   8.386   0.975   2.854  0.1183  0.1078  0.2446
10096W        W26944   4.123  12.827   3.000  0.0185  0.1298  0.0105
10097W        W26945   9.692   2.752  15.253  0.0350  0.2580  0.0425
10098W        W26946   0.041   8.322  13.227 -0.1878  0.0763  0.1340
10099W        W26947  12.718   7.176  12.008 -0.2197 -0.2651 -0.2001
10100W        W26948  13.623   7.279   1.737  0.0974  0.0572 -0.2515
10101W        W26949   9.795   3.237   4.612 -0.1926  0.0774  0.0860
10102W        W26950  10.963   6.661   0.110  0.0065 -0.1043  0.0614
10103W        W26951   5.822   3.043  12.446  0.1777 -0.1630 -0.0782
10104W        W26952  12.525  14.578   2.897  0.2306 -0.2058  0.2975
10105W        W26953   7.150  12.063   5.138  0.1555  0.2329  0.1396
10106W        W26954  13.098   5.152   2.473 -0.1577 -0.2204 -0.2265
10107W        W26955   9.501   2.372  16.515  0.2674 -0.3538 -0.1454
10108W        W26956   1.239   6.375   2.128  0.1879  0.0895  0.1477
10109W        W26957   4.156  14.074  16.112  0.2532  0.1696 -0.2343
10110W        W26958  10.015   6.087  12.899  0.2521 -0.0438 -0.1719
10111W        W26959  14.417   8.137   2.257 -0.0292  0.0662 -0.0590
10112W        W26960  14.325  14.518  15.885  0.0329 -0.0144 -0.1083
10113W        W26961   8.117   2.676   3.372  0.0321  0.4012  0.1575
10114W        W26962   3.453   0.205  11.764 -0.0513  0.3043  0.2104
10115W        W26963   5.761   8.464   2.050  0.0950 -0.3319 -0.1859
10116W        W26964  11.398  15.980  11.908 -0.1712  0.0956  0.2123
10117W        W26965   1.889   3.293   6.119 -0.0727  0.1774  0.0727
10118W        W26966   5.074  15.107   4.014 -0.1923 -0.1903 -0.2188
10119W        W26967   3.062  11.616  16.332 -0.4542  0.0116  0.0834
10120W        W26968   6.366  17.681   4.882 -0.1518 -0.0142 -0.0228
10121W        W26969  15.755   2.160  15.279 -0.1583  0.2980  0.1904
10122W        W26970  10.169   8.627  13.644  0.2001 -0.2257 -0.0348
10123W        W26971  12.875   2.509   1.922  0.2214 -0.2389  0.0954
10124W        W26972   8.247   4.677   0.111 -0.0018 -0.1252 -0.1550
10125W        W26973   8.684  13.828  13.133 -0.3399  0.5169  0.1361
10126W        W26974   1.249  12.385   3.942 -0.0685 -0.0585  0.1065
10127W        W26975   3.879   8.865  13.402  0.1290  0.0036 -0.1787
10128W        W26976  15.226  10.659  11.605 -0.1291 -0.0520 -0.0112
10129W        W26977  13.024   9.509   3.172 -0.1647 -0.0805 -0.2551
10130W        W26978   5.138  12.329  13.272 -0.1844  0.1957  0.2117
10131W        W26979  13.010  16.291   4.939  0.2516 -0.1318 -0.0421
10132W        W26980  13.938   3.740  11.685  0.1500  0.0598  0.0568
10133W        W26981   1.247  17.627   4.619 -0.0189 -0.1671 -0.1611
10134W        W26982  17.526  10.551   3.730 -0.2722 -0.3197 -0.0231
10135W        W26983  16.290  16.652   5.113 -0.1585 -0.1580  0.2002
10136W        W26984   8.607  10.088   1.199 -0.0689  0.3315  0.0527
10137W        W26985  17.689  15.759   2.006 -0.1585  0.2740  0.2237
10138W        W26986  13.222   8.830  11.260 -0.0592 -0.2793  0.2859
10139W        W26987  13.085   8.426  10.944  0.2336  0.0332  0.0710
10140W        W26988   2.191   0.397   2.951 -0.2344  0.1547  0.1470
10141W        W26989  12.935  17.469   0.481  0.0983 -0.2501 -0.3050
10142W        W26990   1.825   8.339  14.640  0.2661 -0.1180  0.0868
10143W        W26991   7.370   3.054   1.461 -0.0040 -0.2491  0.1430
10144W        W26992   8.752   0.857  14.594  0.2340 -0.1051  0.1295
10145W        W26993  15.082  10.911  13.221  0.1129 -0.0831 -0.0090
10146W        W26994  11.770   6.906  16.276  0.1185  0.0577  0.1040
10147W        W26995  10.047   6.977   5.028 -0.2360  0.1910  0.1307
10148W        W26996   8.797   6.137  15.481  0.0861  0.0395  0.0450
10149W        W26997   2.199   8.803  12.526  0.1049 -0.1551  0.0934
10150W        W26998  14.550   1.361  13.679  0.1720 -0.0644  0.1266
10151W        W26999  14.078  13.134   3.777 -0.2811  0.2268 -0.0777
10152W        W27000   7.165  14.447  15.194 -0.3036 -0.0720 -0.1618
10153W        W27001  16.727   4.788   0.057 -0.3066  0.1182  0.0555
10154W        W27002  16.111  10.182  13.730 -0.1350 -0.2613  0.0603
10155W        W27003   1.799  15.540  14.154 -0.1055 -0.1737 -0.0345
10156W        W27004  12.418   8.029  10.371  0.1245  0.0530  0.2381
10157W        W27005   5.434   8.456  11.600 -0.0654  0.0804 -0.2478
10158W        W27006   4.084   9.519  15.904 -0.2392  0.0547 -0.1177
10159W        W27007   7.853  11.581   1.662  0.1198  0.0134  0.0023
10160W        W27008  15.178   7.225   3.402  0.1417  0.0440 -0.2764
10161W        W27009  12.471   6.217  11.982  0.0548 -0.1853  0.1436
10162W        W27010  16.686   7.395  11.912 -0.0491 -0.3041 -0.2002
10163W        W27011  12.160   1.434   3.826  0.0912  0.1469  0.3473
10164W        W27012   6.269   2.519  14.180  0.2865 -0.1672  0.2948
10165W        W27013   7.271   4.083  15.316  0.2724  0.2128 -0.3163
10166W        W27014  15.235   1.360   4.126 -0.1914 -0.2607 -0.0877
10167W        W27015   5.044   4.960   4.630 -0.1319  0.0600  0.4203
10168W        W27016   6.236  15.632  14.066  0.2833 -0.0404 -0.0515
10169W        W27017  15.510   1.487   1.444  0.2863  0.1420 -0.0507
10170W        W27018   9.779   7.352   2.473  0.2869  0.1160  0.3823
10171W        W27019   9.920  12.692   1.306  0.0979  0.1890 -0.1687
10172W        W27020   5.104   3.541   3.026  0.0172 -0.1736 -0.1021
10173W        W27021  11.384   6.068   4.521  0.2035  0.1752 -0.0527
10174W        W27022   3.485  10.604   1.081  0.0694 -0.0871 -0.0354
10175W        W27023   3.360   1.886   0.806 -0.3282 -0.3773  0.2900
10176W        W27024  16.116   7.531   2.590 -0.2276 -0.0128  0.1183
10177W        W27025   6.610   9.405   0.455 -0.1585 -0.0714  0.2093
10178W        W27026   0.986   6.124  10.647  0.0456 -0.2527  0.2633
10179W        W27027  13.801   7.361  13.748 -0.0177  0.0103  0.3629
10180W        W27028   3.811   7.258   3.104  0.0254  0.1046  0.1877
10181W        W27029  12.019   3.859  13.470  0.0343  0.4556 -0.1933
10182W        W27030  12.127  12.535  16.064  0.0046 -0.3694 -0.2123
10183W        W27031   9.622   8.783   1.823 -0.0932 -0.2366 -0.3320
10184W        W27032  11.013   0.528  11.618  0.2860 -0.0436 -0.0179
10185W        W27033   6.316  14.509   0.325  0.1306 -0.1807  0.1640
10186W        W27034   7.667   6.804  14.291 -0.2835 -0.1083 -0.2086
10187W        W27035   6.391   2.435   3.179  0.2292 -0.0768  0.2076
10188W        W27036   7.508   6.989   2.051 -0.1599  0.0926  0.5936
10189W        W27037   3.475   6.506   2.862 -0.0648 -0.3366  0.3543
10190W        W27038  12.842  11.925  14.775 -0.2219 -0.1270 -0.1007
10191W        W27039   5.309   4.455  14.197 -0.0385  0.1300  0.1089
10192W        W27040   3.898   7.682   0.698 -0.1931 -0.0352 -0.0098
10193W        W27041  11.145  12.561  15.195  0.1080  0.2838  0.4126
10194W        W27042   6.011   7.073   4.457 -0.0144 -0.0172 -0.2479
10195W        W27043   7.536   2.631   2.230  0.0015 -0.2723  0.0178
10196W        W27044   9.852   9.213  14.138  0.0501  0.3242 -0.0733
10197W        W27045   4.162   3.993  14.707 -0.0860 -0.0979  0.3575
10198W        W27046  17.168   3.666   4.591 -0.0008  0.2048 -0.0839
10199W        W27047  14.283   7.373  11.550 -0.1491  0.4334 -0.2255
10200W        W27048   5.313   0.385  16.286 -0.0361  0.1961 -0.0212
10201W        W27049  11.049  12.737   2.879 -0.0523  0.0041  0.1418
10202W        W27050   4.483  16.411   3.529  0.1835  0.2202 -0.0461
10203W        W27051  16.934   6.861  11.804  0.0454  0.2813  0.0520
10204W        W27052  17.512  10.598   1.174  0.1926  0.0151  0.0417
10205W        W27053  11.522   0.781   5.212 -0.0905 -0.2543 -0.3595
10206W        W27054  12.572   1.013   1.283 -0.1679 -0.2414 -0.4000
10207W        W27055  13.050   1.192  16.059  0.2180  0.1996 -0.0301
10208W        W27056   8.975  15.790  15.622 -0.0546  0.0706  0.3881
10209W        W27057  13.230  12.354  12.292 -0.0877 -0.0725  0.4621
10210W        W27058   0.880   5.504   0.737 -0.0218  0.2081  0.0557
10211W        W27059   8.272   6.917   4.599 -0.0384  0.4772 -0.2503
10212W        W27060   0.221   6.589  16.139 -0.1940  0.0982  0.1269
10213W        W27061  11.039   7.083   0.446 -0.2996 -0.0549  0.2156
10214W        W27062   1.155   4.533   4.145  0.0300 -0.1476 -0.1923
10215W        W27063   4.943   7.858   3.935 -0.2130 -0.3414  0.1643
10216W        W27064  13.359   8.078   0.439 -0.0855 -0.3274  0.1662
10217W        W27065  13.152   5.652   3.033 -0.1297 -0.1535  0.2496
10218W        W27066  17.625  15.669  14.170  0.1074 -0.1748  0.3982
10219W        W27067  12.427   6.536   0.271 -0.1914  0.4321  0.0199
10220W        W27068   1.029   8.405  12.059 -0.4129  0.3012  0.2069
10221W        W27069  10.035   1.809   3.183  0.0359  0.2350  0.2258
10222W        W27070  14.722   9.843  13.104 -0.1902  0.1924  0.0245
10223W        W27071   8.430  10.250  15.653  0.2514  0.1864  0.1294
10224W        W27072  17.434  12.208  14.345  0.0205  0.1844 -0.2365
10225W        W27073  17.677  15.565  11.719  0.2522 -0.1787 -0.0028
10226W        W27074  16.198   4.959  15.759 -0.2166  0.0107  0.1988
10227W        W27075   7.575  10.233  15.146  0.0313 -0.2020 -0.1098
10228W        W27076   6.648   0.953  15.720 -0.4416 -0.2101  0.0865
10229W        W27077   0.003  11.740  11.981  0.0200  0.1380  0.1112
10230W        W27078   9.797  11.259  16.479 -0.0537 -0.1080  0.1485
10231W        W27079   3.425   0.596   5.731 -0.1974  0.1237 -0.0833
10232W        W27080   9.167  16.499  13.702  0.0703  0.2519  0.0033
10233W        W27081  13.881   0.005  12.529  0.0924 -0.2408 -0.0353
10234W        W27082  15.483  12.221   1.542 -0.3134 -0.0955 -0.0350
10235W        W27083   7.288  10.270  14.164 -0.3837 -0.1107  0.1840
10236W        W27084   7.871   0.393  15.502  0.3048 -0.0422 -0.0430
10237W        W27085   2.914  12.048   4.128 -0.1626 -0.1500  0.2942
10238W        W27086  11.818   8.155  12.969  0.1618  0.0734  0.2428
10239W        W27087  11.589   2.416  12.148 -0.1732 -0.0621 -0.1099
10240W        W27088  12.518   9.553  14.792 -0.2930 -0.0607 -0.1093
10241W        W27089  15.672   0.262  13.878 -0.2110  0.1366  0.2385
10242W        W27090   6.177  15.107  12.867 -0.1824  0.2975 -0.0136
10243W        W27091  10.732   5.912  16.292  0.1352 -0.3072  0.0454
10244W        W27092  11.188  12.383  10.908 -0.0767 -0.0205 -0.0348
10245W        W27093   7.096   9.135  15.430  0.0046  0.1968 -0.0483
10246W        W27094   0.361   2.138  13.266  0.0634  0.1608 -0.0829
10247W        W27095   9.889   2.475  12.536 -0.2199  0.0185 -0.1340
10248W        W27096  11.816  16.422  13.748 -0.0111  0.0563  0.0175
10249W        W27097  13.321   5.475  11.373 -0.0124 -0.0259 -0.2288
10250W        W27098  12.226   4.401   1.393 -0.0375 -0.1143  0.1211
10251W        W27099   9.732   6.006   5.416 -0.4109 -0.5206 -0.1022
10252W        W27100   0.633  15.781   4.713 -0.0447 -0.0877 -0.2020
10253W        W27101  13.614   5.303   4.164  0.1524  0.1522 -0.0268
10254W        W27102  15.199   1.877  13.195 -0.0236 -0.0943  0.0399
10255W        W27103  16.029   6.662   1.915  0.0660  0.1872 -0.2311
10256W        W27104  16.340  11.606  12.313 -0.2492 -0.0175 -0.2285
10257W        W27105   2.965  14.011   0.864  0.1497  0.0800  0.0015
10258W        W27106   4.467  17.810  16.013 -0.0332 -0.1807  0.0172
10259W        W27107   7.331  13.660  13.161 -0.0398  0.0299  0.1224
10260W        W27108  17.720   2.640  14.641 -0.0584  0.3030  0.2269
10261W        W27109   9.026   6.122  16.386  0.0437  0.0588  0.1332
10262W        W27110   0.935  11.783   4.167 -0.3273 -0.0561  0.1839
10263W        W27111  11.809   4.015   4.791  0.4482 -0.1257  0.0808
10264W        W27112   6.441  10.246  13.135  0.0771 -0.0631  0.0535
10265W        W27113  11.758   7.209  13.467 -0.0476  0.2609  0.0409
10266W        W27114  13.002   9.609  14.634 -0.0959  0.1632 -0.0412
10267W        W27115   4.644   4.629   1.488 -0.0265  0.0718  0.2440
10268W        W27116   4.057  15.304   0.937  0.0324  0.2560  0.1891
10269W        W27117  15.527  17.071   3.116  0.2113  0.1018 -0.2517
10270W        W27118   6.135  15.193  13.780 -0.0532  0.1981 -0.2679
10271W        W27119  15.677   6.248  16.369  0.0956  0.2996  0.1934
10272W        W27120  17.261  12.646  11.380  0.1691  0.1651  0.2598
10273W        W27121   2.724   5.063  13.850  0.1274 -0.1602 -0.2046
10274W        W27122   2.132   9.633   4.571 -0.1217  0.1577 -0.0374
10275W        W27123   2.510  16.970   5.450  0.3928 -0.0133  0.0280
10276W        W27124   5.485  12.976   3.499  0.4743  0.0033  0.0311
10277W        W27125   8.680   3.800   4.774 -0.0477  0.1038 -0.0972
10278W        W27126   5.243   6.305   2.977 -0.1408  0.1264 -0.1373
10279W        W27127  10.208   1.014  13.835  0.0319  0.0963  0.2385
10280W        W27128  11.769  15.223  11.661  0.3115 -0.1128 -0.2913
10281W        W27129  16.590   9.461   4.970 -0.0358  0.1143  0.1672
10282W        W27130  13.186   2.231   4.815  0.0739  0.2493  0.1186
10283W        W27131   3.910  11.260   5.159 -0.2763 -0.1634 -0.0001
10284W        W27132  12.393  17.119  13.661 -0.1943  0.0077 -0.0263
10285W        W27133   0.408   5.248  16.171  0.3619  0.2801 -0.0068
10286W        W27134  13.997   7.372  14.257 -0.0108 -0.1510 -0.1818
10287W        W27135   5.140  15.196  13.207  0.3015  0.0749 -0.3155
10288W        W27136  15.741   5.063   4.319  0.1492 -0.1616  0.1821
10289W        W27137   8.505   7.286   0.976  0.1266 -0.2068  0.0671
10290W        W27138  10.484   5.714  15.852  0.0451 -0.1931 -0.0678
10291W        W27139   7.618   6.181   4.838 -0.0918 -0.0694 -0.0587
10292W        W27140   4.879   5.794  11.946  0.4164  0.1680 -0.1163
10293W        W27141  12.788   8.651   3.649 -0.2118  0.5366 -0.1340
10294W        W27142  11.282   6.526  11.422  0.3352  0.1358 -0.1981
10295W        W27143  10.826  11.745   0.357 -0.2558 -0.0336  0.0044
10296W        W27144  13.334  17.389  12.227  0.4186  0.2008  0.1061
10297W        W27145  14.312  12.011   4.230 -0.1373  0.0262 -0.0887
10298W        W27146  14.266   6.336   1.613  0.3418 -0.3185 -0.0205
10299W        W27147  12.942   0.670   0.456  0.5041  0.0047 -0.0967
10300W        W27148  14.345  13.779  15.793  0.0156 -0.0817 -0.0380
10301W        W27149  11.635   6.766   1.955 -0.2388 -0.2118 -0.2263
10302W        W27150   7.623   7.544  14.284 -0.1803 -0.2417  0.0239
10303W        W27151  13.921   9.184   0.348  0.1651  0.1941  0.0878
10304W        W27152  15.031   3.504   2.127  0.1484 -0.1499  0.1120
10305W        W27153   0.866  17.451  12.551  0.2923  0.1758 -0.0695
10306W        W27154   3.920   7.229  12.351  0.2861 -0.0745 -0.1448
10307W        W27155  12.641   5.570  14.510  0.1432  0.2027  0.1998
10308W        W27156  14.628   9.930   2.258  0.1625  0.0352  0.1541
10309W        W27157   9.908  10.278  16.409 -0.1387 -0.1229 -0.2401
10310W        W27158   0.901   9.789   3.152  0.1868 -0.0663  0.1741
10311W        W27159   1.770   3.424  13.136 -0.0812 -0.0189 -0.3058
10312W        W27160  15.258  14.707   2.279  0.1232 -0.0217 -0.0606
10313W        W27161   1.207   4.626   3.198  0.1970 -0.1125  0.1625
10314W        W27162   6.890   1.460  13.385 -0.2504  0.2352  0.3351
10315W        W27163  12.377   0.208  12.385  0.5882  0.2450  0.3345
10316W        W27164   3.759  16.270   5.529  0.1878 -0.1031  0.1274
10317W        W27165  17.093  13.278  13.500  0.0439 -0.2175 -0.0816
10318W        W27166   6.175  15.024   3.722  0.2927 -0.0652 -0.1234
10319W        W27167   7.210  15.163  14.416 -0.2375  0.2553  0.4536
10320W        W27168   9.628  12.262   1.114 -0.2766 -0.3009 -0.0859
10321W        W27169   7.793   3.756   4.952  0.0756 -0.4812 -0.0999
10322W        W27170  10.506   6.736   4.947 -0.2704  0.2735 -0.0412
10323W        W27171   0.277   4.027   0.740 -0.0857  0.1547 -0.0571
10324W        W27172   0.337  14.069   2.825 -0.0438  0.1473 -0.2471
10325W        W27173   1.738   5.212  12.942 -0.1709  0.1705 -0.2903
10326W        W27174   1.936   3.801   1.236  0.5364 -0.1985 -0.1290
10327W        W27175   4.596   2.589   3.996 -0.0483  0.4749  0.2139
10328W        W27176   5.539   7.302   4.046 -0.2131  0.2288 -0.1199
10329W        W27177   7.388   4.244  12.313  0.0470  0.0113 -0.1957
10330W        W27178   0.034   9.242   1.472 -0.0050 -0.2859  0.0257
10331W        W27179  16.685   1.180  16.369  0.3094 -0.1530  0.2395
10332W        W27180   7.280  17.243   3.034 -0.0822 -0.0001 -0.0910
10333W        W27181   5.097   8.777  16.590 -0.2599  0.0516 -0.0131
10334W        W27182  16.109   7.086  15.303  0.0810 -0.0279  0.0810
10335W        W27183   3.184  17.153   4.460  0.0828  0.1058 -0.2678
10336W        W27184   8.907  14.802   3.329 -0.1181 -0.2921  0.0315
10337W        W27185  10.920  11.597   1.422 -0.1793  0.0514  0.0401
10338W        W27186  11.064  14.310  13.824  0.0110  0.0599  0.2650
10339W        W27187   7.189   6.543  15.093 -0.2782 -0.0018 -0.1413
10340W        W27188   2.634   7.660  13.628 -0.0554 -0.0421  0.0677
10341W        W27189  10.182   3.619  11.821 -0.2422 -0.0276  0.2606
10342W        W27190   2.992  12.865  13.062 -0.1627 -0.2178  0.1365
10343W        W27191   8.696   8.969  12.007  0.0758  0.0342  0.0371
10344W        W27192  13.595   5.313  13.156 -0.2320 -0.0133 -0.1508
10345W        W27193   5.079   5.550   3.259 -0.0302 -0.0472 -0.0740
10346W        W27194  11.863   0.986   3.962  0.0421  0.0204 -0.1932
10347W        W27195  17.066   6.272   4.757  0.0223 -0.0626  0.1120
10348W        W27196   0.229  15.637   4.436 -0.3518 -0.2986  0.0307
10349W        W27197  15.552   1.350  12.327 -0.1263 -0.3174  0.2657
10350W        W27198  12.709   5.186   0.598  0.1243  0.0681 -0.3415
10351W        W27199  11.559  14.370  12.570  0.3255  0.1638  0.0821
10352W        W27200   5.775  12.100   4.523 -0.0329 -0.0055  0.0140
10353W        W27201   9.327   2.677  13.720 -0.0681  0.0570  0.2089
10354W        W27202  16.894   4.861  14.837  0.2895  0.2980  0.1202
10355W        W27203   4.220  17.825   4.078 -0.0328 -0.0236 -0.2925
10356W        W27204   6.923   9.407   2.803 -0.2235 -0.0442  0.4415
10357W        W27205  17.730   3.077  13.794  0.0324 -0.1640  0.1677
10358W        W27206  15.982  10.499   0.216  0.0138 -0.0039 -0.1135
10359W        W27207  17.586   2.427  11.968 -0.2184  0.0030 -0.0447
10360W        W27208  11.754   5.155   3.370 -0.0332  0.0044 -0.2978
10361W        W27209  11.866   4.376   3.994  0.0161 -0.2000 -0.0670
10362W        W27210   6.930   8.232  15.233 -0.2657 -0.1365 -0.1809
10363W        W27211   6.407  14.541   2.588 -0.1971  0.2608  0.0268
10364W        W27212   5.251  16.368   0.076 -0.0730  0.1288 -0.0506
10365W        W27213   8.584   8.154  13.217 -0.1559  0.1597  0.1256
10366W        W27214   6.823   9.616  13.820  0.0627  0.2709  0.2674
10367W        W27215   2.885   2.665   4.368  0.2176 -0.1185 -0.2657
10368W        W27216   8.730   5.780   3.571  0.0986 -0.0121 -0.3365
10369W        W27217   7.849   3.328  13.329  0.0753 -0.3956  0.1562
10370W        W27218   3.391  13.226  13.571  0.0044  0.1542  0.0396
10371W        W27219   9.557   4.134  15.154 -0.3279  0.0470 -0.0277
10372W        W27220   3.789   6.749  12.505  0.1213  0.2099 -0.1034
10373W        W27221   3.196  10.624  14.181  0.0310 -0.0451  0.2264
10374W        W27222   0.790   4.343   4.958 -0.0749 -0.0554  0.2468
10375W        W27223  13.525  17.758   1.426 -0.0059 -0.0661 -0.0182
10376W        W27224   1.989   8.879   1.157  0.1273  0.0585  0.1780
10377W        W27225   9.930   5.987  15.233 -0.0084  0.1353 -0.0541
10378W        W27226  10.981   6.245   1.481  0.2268 -0.0976  0.2956
10379W        W27227   2.914  13.212   4.898  0.1121  0.0003  0.2813
10380W        W27228  11.367   1.450   2.140  0.2842  0.1306  0.0430
10381W        W27229   2.029  15.795  12.143  0.0173 -0.0686 -0.2305
10382W        W27230  13.434  16.916  11.963  0.1839 -0.1426  0.0342
10383W        W27231   0.054   1.110  12.443  0.1690 -0.1828 -0.1535
10384W        W27232   0.462  11.221  11.515 -0.0808 -0.2745  0.0888
10385W        W27233   9.855   5.995  11.785  0.0705  0.0559 -0.1850
10386W        W27234  14.779   0.157   1.600  0.1426  0.0523 -0.0447
10387W        W27235  16.260   1.913   1.074  0.3490  0.0243 -0.1059
10388W        W27236   1.291  12.673   4.999  0.2085  0.2229 -0.2463
10389W        W27237  17.096  12.281  13.765  0.0274 -0.1831 -0.0973
10390W        W27238  10.742   7.671   4.987  0.3422  0.1373 -0.1687
10391W        W27239   0.506  11.573   0.848 -0.0521 -0.1181 -0.2263
10392W        W27240  13.084   1.740   1.678  0.1449  0.1708  0.5300
10393W        W27241  16.820  10.796   2.065 -0.0779 -0.2962 -0.0031
10394W        W27242   7.194  14.586  15.702  0.3048 -0.2370  0.2012
10395W        W27243   1.477   4.545   1.994  0.1067  0.0047 -0.0931
10396W        W27244  10.008  14.129  15.523 -0.0472 -0.1851 -0.2075
10397W        W27245   1.084   9.457  16.217 -0.2207  0.1514 -0.1419
10398W        W27246  10.197   8.243   0.268  0.1290  0.0658  0.0722
10399W        W27247  11.466  15.672  14.691  0.1090  0.4296 -0.0211
10400W        W27248  10.871   4.524  14.999  0.1472  0.1401  0.0691
10401W        W27249  13.317   9.552   0.681 -0.0835 -0.0254  0.0427
10402W        W27250   8.774  13.079   5.252  0.4611 -0.5442 -0.0319
10403W        W27251  14.711   6.359   3.035 -0.0651  0.2835  0.0156
10404W        W27252   7.866  12.085   1.634 -0.0188 -0.1604 -0.3014
10405W        W27253  17.380  14.988  10.714 -0.0118  0.1731 -0.0837
10406W        W27254  11.730  14.241   4.310  0.0060 -0.0228  0.2396
10407W        W27255   3.254   5.895   4.732 -0.0735 -0.0862  0.0545
10408W        W27256  11.129   2.902   0.691  0.2996 -0.4883  0.1653
10409W        W27257   3.365  11.251   3.475  0.0868  0.2070  0.1117
10410W        W27258   2.392   2.315  12.321 -0.0363 -0.3660  0.0475
10411W        W27259   7.182  15.853   3.283 -0.3199  0.1160 -0.0333
10412W        W27260   0.802  11.943   0.964 -0.1954  0.1184 -0.1605
10413W        W27261   4.254  15.556  15.334  0.2269  0.0176 -0.1473
10414W        W27262   2.913   1.597  12.041  0.1490 -0.1092 -0.2273
10415W        W27263   5.789  11.345   4.100 -0.0817 -0.3243 -0.2778
10416W        W27264   5.308   3.573  15.633  0.3882  0.0281 -0.0474
10417W        W27265   2.563   3.400   5.437  0.0194 -0.3403  0.4388
10418W        W27266   6.239  17.201   3.931  0.0867 -0.2633  0.0262
10419W        W27267  15.432   0.577   4.885 -0.0941 -0.0697 -0.0360
10420W        W27268   9.154  10.218   0.871 -0.0207 -0.0970 -0.0673
10421W        W27269   0.005   8.773  12.997 -0.0408  0.2711  0.1334
10422W        W27270  16.445  11.144  12.999 -0.1917 -0.3781 -0.0481
10423W        W27271   2.019  10.090   4.201  0.1120  0.2123 -0.2417
10424W        W27272  14.681   1.496   1.254 -0.1127 -0.1101 -0.1026
10425W        W27273   9.257   5.113  14.695  0.0310  0.2363 -0.1448
10426W        W27274  10.321   4.729  13.864  0.1187 -0.0670  0.0415
10427W        W27275   2.803  12.148  16.179 -0.0207  0.0346  0.2625
10428W        W27276   9.292  14.668  12.672 -0.1930 -0.5277 -0.1598
10429W        W27277  16.770   7.146   0.416  0.0349 -0.1511  0.2139
10430W        W27278  17.641  17.057   0.407 -0.0363 -0.3265  0.0186
10431W        W27279   0.353  10.143  15.759 -0.1376  0.2578 -0.0795
10432W        W27280  10.357  16.809  14.099  0.0909  0.1011 -0.1947
10433W        W27281  17.328   1.618  11.657 -0.2133 -0.2229  0.0169
10434W        W27282   8.295  16.473  15.496  0.2796 -0.1095  0.1558
10435W        W27283   4.738   0.929   5.304 -0.0652 -0.0596  0.2992
10436W        W27284   0.717   8.378   5.209 -0.0961  0.2999 -0.1800
10437W        W27285   0.437  11.497   1.743 -0.2022  0.1607  0.1976
10438W        W27286  13.057   4.389   4.315 -0.3398  0.0137 -0.1413
10439W        W27287  13.333  15.737   0.656 -0.0149  0.2498  0.1078
10440W        W27288   7.904  15.459  10.929 -0.2737  0.3183 -0.2259
10441W        W27289   6.495  16.570   2.220 -0.0735  0.0655 -0.0184
10442W        W27290   3.217  17.642  16.534 -0.1954  0.0866 -0.0967
10443W        W27291   8.186   0.989   0.069 -0.3272 -0.2015 -0.1962
10444W        W27292  15.267   3.806   5.592  0.1019 -0.0614 -0.0745
10445W        W27293   2.150   7.355  12.661 -0.2690 -0.1471 -0.1044
10446W        W27294   2.870  10.981  12.706 -0.2373 -0.2099  0.0901
10447W        W27295   7.549  11.264   0.254 -0.2694 -0.0105  0.1908
10448W        W27296  10.888   5.591   2.365  0.1253 -0.1187  0.0933
10449W        W27297  13.957   6.925  16.049  0.2192  0.2680  0.1287
10450W        W27298   8.925  15.685   1.425  0.1013 -0.3813  0.1165
10451W        W27299   4.652  17.700  12.879  0.0579  0.1211  0.2186
10452W        W27300  15.442   0.448  15.817 -0.1144  0.0629 -0.2260
10453W        W27301   1.965  10.332   3.685  0.0763  0.3416 -0.0309
10454W        W27302  13.191   7.947  14.141 -0.1936  0.2244 -0.0545
10455W        W27303  14.540   7.931   5.001 -0.0923 -0.2486 -0.0101
10456W        W27304   7.075   3.394   5.538 -0.1858  0.1990 -0.1378
10457W        W27305   9.673   5.228  12.564  0.0850 -0.0790  0.1073
10458W        W27306   4.881   1.999  14.099  0.0429 -0.0757  0.1060
10459W        W27307   1.509  10.517   3.998  0.2539  0.2194 -0.1360
10460W        W27308  13.485  17.423   4.933  0.3297 -0.4532  0.2011
10461W        W27309  17.434  11.441  11.907  0.1307 -0.1583  0.1039
10462W        W27310   7.018  12.900   2.954 -0.2404  0.0311  0.3673
10463W        W27311   7.956  14.819  16.004  0.0646  0.0494 -0.2541
10464W        W27312   9.818   2.730  15.782  0.1334 -0.0145  0.1416
10465W        W27313  16.133   5.098   2.071  0.0452 -0.0085  0.1199
10466W        W27314   1.069   9.751   0.857  0.2544  0.0890  0.0197
10467W        W27315  12.745  13.992   1.615 -0.1143 -0.1532 -0.1950
10468W        W27316   3.991   2.337   0.188  0.1696 -0.1933 -0.0732
10469W        W27317   8.210   9.050  12.828 -0.0644  0.1601 -0.3021
10470W        W27318  14.973   4.093   4.373  0.0980  0.2719 -0.1151
10471W        W27319   7.646   5.165   4.814 -0.2917 -0.3116  0.1590
10472W        W27320   5.923   9.558  13.167  0.2533  0.0140 -0.0110
10473W        W27321   9.431  13.901  14.064 -0.0634 -0.0262  0.0640
10474W        W27322  15.299  16.217  11.717  0.0120  0.0751  0.0403
10475W        W27323  17.764   9.239  12.094  0.1465  0.2603 -0.2607
10476W        W27324   4.433   9.900  12.426 -0.2123  0.0463  0.0759
10477W        W27325   9.459  15.347   3.469 -0.2033 -0.0272 -0.3106
10478W        W27326  10.585  12.384  11.594 -0.1529 -0.1402  0.0627
10479W        W27327  11.019   0.061  13.686 -0.2786 -0.2106  0.0787
10480W        W27328  10.079  10.191   2.323 -0.1050  0.0976  0.3399
10481W        W27329  13.090   9.652  16.381 -0.1937 -0.1634  0.0347
10482W        W27330   8.148  11.202  16.022  0.1132  0.1761  0.1824
10483W        W27331   9.692  10.690   0.035  0.1739  0.0049  0.1823
10484W        W27332   0.165   3.214   1.521 -0.2849 -0.0667 -0.1387
10485W        W27333   0.278  15.112   5.129 -0.0313  0.1566 -0.0669
10486W        W27334  14.749   8.459  13.120  0.1341  0.1765  0.0921
10487W        W27335  11.170  14.563  13.355  0.2291  0.1600  0.4479
10488W        W27336   9.695  16.655  13.564  0.1526 -0.0285  0.3441
10489W        W27337   5.609   2.339  11.830  0.0617 -0.4027  0.0722
10490W        W27338   9.235  15.391   0.396 -0.0428  0.1907 -0.1800
10491W        W27339  15.460   8.844   3.945  0.2735  0.2015 -0.0164
10492W        W27340   7.820   0.125   3.638 -0.0517  0.1904  0.0723
10493W        W27341   5.587   5.937  13.777 -0.0891  0.2274 -0.2193
10494W        W27342   0.784   0.671  11.689  0.1416  0.0697 -0.1515
10495W        W27343   1.747  11.209   4.291  0.1916  0.1653 -0.2127
10496W        W27344  13.624   4.396   2.062  0.0242  0.1986 -0.2030
10497W        W27345  13.323  12.793  16.273  0.0022  0.3616  0.1019
10498W        W27346  12.840  17.631  14.147 -0.1743 -0.0517 -0.2597
10499W        W27347   3.028  17.691   3.668 -0.0425 -0.0896  0.0603
10500W        W27348   0.461  17.083   2.028  0.4356 -0.2170 -0.0050
10501W        W27349  14.871  14.211  16.520  0.0345 -0.0599  0.3867
10502W        W27350  11.007  10.676   3.237  0.1526  0.3681  0.0694
10503W        W27351  17.463  16.448  13.237  0.2003  0.3477 -0.0297
10504W        W27352  11.203  12.891   0.341  0.1628  0.0800  0.0043
10505W        W27353   0.588   2.017  16.189 -0.0532 -0.0072 -0.0245
10506W        W27354  14.345   5.428   1.527  0.1392  0.1105  0.2078
10507W        W27355   0.481  13.160   0.874  0.1505  0.0098 -0.2334
10508W        W27356   7.099   5.377  14.458  0.3687 -0.1748  0.1622
10509W        W27357   9.251   2.952  12.496 -0.0485  0.0831 -0.1781
10510W        W27358   7.659   5.467   2.479 -0.3759 -0.1123  0.0989
10511W        W27359   3.779  11.009   0.085  0.1154 -0.1549 -0.0862
10512W        W27360  12.517  10.242  11.966 -0.0475 -0.1352 -0.2653
10513W        W27361   9.905  15.866   2.312  0.0080  0.2382  0.1064
10514W        W27362  10.922  16.215   0.313  0.0697  0.3525  0.0834
10515W        W27363  12.354  17.346   1.891  0.3151 -0.0044  0.1128
10516W        W27364   5.083   2.270   2.461 -0.1174  0.0628  0.3699
10517W        W27365  14.354  12.617   2.558 -0.0377 -0.0322 -0.2084
10518W        W27366  12.839   3.936   0.031 -0.0365 -0.1543  0.0731
10519W        W27367   5.238  11.504   1.400  0.0484  0.0071  0.2064
10520W        W27368   5.519   6.483   1.976 -0.0277 -0.2328  0.3126
10521W        W27369   3.054   7.300   2.542 -0.1785 -0.1065  0.1560
10522W        W27370  11.593  10.376  12.455 -0.1706  0.1125  0.2337
10523W        W27371  10.713   7.909  11.990 -0.0401 -0.0267 -0.0441
10524W        W27372   7.488   5.952  15.886  0.0112 -0.1478 -0.1492
10525W        W27373  16.523  17.130   2.454  0.1950  0.1186 -0.0911
10526W        W27374  16.668   5.197   3.550  0.1306 -0.0208  0.3503
10527W        W27375  17.525   8.855   2.949 -0.0234 -0.0879  0.1409
10528W        W27376  15.643   6.411   2.106  0.1622 -0.0669  0.1464
10529W        W27377   9.091  15.806   0.484 -0.2509  0.4139  0.1825
10530W        W27378   6.889  17.585   0.209 -0.1125 -0.2012  0.3494
10531W        W27379   1.483  12.033   4.858  0.0506  0.1400  0.2240
10532W        W27380   5.579  10.081   5.523  0.1399 -0.2031  0.2181
10533W        W27381   8.204   4.418   4.500 -0.0619 -0.0637 -0.0500
10534W        W27382  10.799  10.012  16.126 -0.0798 -0.0776  0.1278
10535W        W27383  10.704  10.086  15.636 -0.2522  0.1063  0.0728
10536W        W27384   9.336   6.970   6.141 -0.0115  0.1269  0.2571
10537W        W27385  12.016   1.872   5.124  0.3171 -0.1304 -0.0361
10538W        W27386   6.045  16.822  12.890 -0.0190 -0.0579 -0.0129
10539W        W27387   7.680   7.105   4.708  0.0866  0.1921 -0.1437
10540W        W27388   9.344  13.495  11.309 -0.1275  0.0091  0.0250
10541W        W27389  11.434  10.672  15.120  0.1033 -0.1046  0.1270
10542W        W27390  15.412  11.883  13.960 -0.2621  0.3380 -0.1056
10543W        W27391  16.778   6.434   0.993  0.1594 -0.2482 -0.0738
10544W        W27392  14.169  16.244   4.391 -0.2879 -0.1854 -0.1655
10545W        W27393  13.653   2.624  15.051 -0.0428 -0.0002 -0.0313
10546W        W27394  14.850   8.777   0.595  0.0082 -0.0058 -0.0429
10547W        W27395   7.011  13.751   4.721  0.0386 -0.0929  0.1342
10548W        W27396  13.448   0.371   3.738  0.2902 -0.1316 -0.1222
10549W        W27397  10.350  12.876   1.040 -0.1985 -0.1757 -0.0399
10550W        W27398   5.932  12.577   2.303  0.0402 -0.0342  0.0220
10551W        W27399   3.991  17.395  12.271  0.0459 -0.1721 -0.4397
10552W        W27400   5.180   5.056  14.899 -0.1322 -0.1088 -0.1218
10553W        W27401   2.194  16.387   3.000 -0.3878  0.0126  0.1779
10554W        W27402  13.078   1.592   0.827 -0.2205  0.2227 -0.0839
10555W        W27403   9.344   2.923  13.181  0.0148 -0.0137  0.2890
10556W        W27404   3.569   1.872  14.798  0.2141 -0.0021 -0.2126
10557W        W27405   7.264  12.279  12.319 -0.0581 -0.0061 -0.0694
10558W        W27406  17.551  15.236   2.218  0.3490 -0.2070 -0.1132
10559W        W27407  12.671  11.266   4.657 -0.0159  0.1410 -0.1056
10560W        W27408  15.582   1.780  11.331 -0.2775 -0.1192  0.0097
10561W        W27409   5.608  11.883  14.668  0.1647  0.0035  0.2313
10562W        W27410   4.549  15.033  12.673 -0.3965  0.1578  0.2112
10563W        W27411   1.636  13.859  15.467  0.0279 -0.2956 -0.0005
10564W        W27412  14.188   4.832  13.400 -0.0026 -0.2145  0.1954
10565W        W27413   6.566   6.388   1.233 -0.0611  0.2008  0.1155
10566W        W27414   0.481   4.718  11.114 -0.3506  0.0305  0.1413
10567W        W27415  15.588   5.781  15.026  0.0687  0.1503 -0.1414
10568W        W27416   2.102   2.706  12.301 -0.3104 -0.2379 -0.0615
10569W        W27417   4.068  14.231  12.611  0.1957  0.1235 -0.0506
10570W        W27418   5.499  14.985   3.132  0.1565 -0.2298  0.0220
10571W        W27419  11.751   1.199   4.418  0.0251  0.1639  0.0833
10572W        W27420  11.743  12.904   0.250  0.2140  0.1666  0.2594
10573W        W27421   5.352  13.240  16.150 -0.1063  0.1418 -0.4959
10574W        W27422   6.485  11.906  16.209 -0.0254 -0.2332 -0.0836
10575W        W27423   3.005   5.357  11.984 -0.2232 -0.1062  0.3222
10576W        W27424   1.600  14.614  12.327  0.0871 -0.3039 -0.3856
10577W        W27425   6.272  15.021  14.303 -0.0326  0.1821  0.1173
10578W        W27426   8.540   1.889   1.346  0.3095  0.0003 -0.0742
10579W        W27427   4.099   5.206  13.630 -0.1162 -0.4035 -0.1223
10580W        W27428  13.487   5.476  16.488 -0.0528  0.1431  0.0807
10581W        W27429  16.687   3.906   3.152  0.2477 -0.0756 -0.1629
10582W        W27430  12.587   4.305  16.352 -0.2393  0.0264  0.2615
10583W        W27431  12.432  15.000  13.992 -0.1705  0.1333  0.1868
10584W        W27432   6.495  11.893  11.137 -0.0566  0.0693  0.0072
10585W        W27433  12.924   1.329  14.979 -0.1376 -0.1177 -0.2138
10586W        W27434   3.057  15.884   3.583 -0.0457 -0.0932  0.1059
10587W        W27435  11.364   9.542   0.545  0.2225  0.1798 -0.0371
10588W        W27436   0.685   6.165  13.645  0.1939 -0.1659  0.2265
10589W        W27437   8.679  16.018  13.274  0.3849  0.0471  0.4008
10590W        W27438  15.911   9.780   5.043  0.1134 -0.1912 -0.1784
10591W        W27439  14.716   2.815  14.233  0.0731 -0.4226  0.1127
10592W        W27440   2.739   8.404   5.216  0.0392 -0.1438 -0.3529
10593W        W27441  17.250  16.436   3.287  0.0899  0.1731  0.0326
10594W        W27442  14.447   0.677   2.481  0.0605  0.1859  0.0025
10595W        W27443   4.724   2.938   3.624 -0.1343  0.1182  0.0629
10596W        W27444  13.487   1.226   4.153 -0.0835 -0.0889  0.2355
10597W        W27445  14.481  17.168  13.272 -0.4341 -0.2601  0.2607
10598W        W27446  12.077  11.505  14.752 -0.0677  0.0238 -0.2488
10599W        W27447  14.032   7.050   3.282  0.0830 -0.1905 -0.0597
10600W        W27448   9.105  13.419  14.173  0.3276  0.1182 -0.2091
10601W        W27449  17.236   2.075   4.959  0.1983 -0.2856  0.0722
10602W        W27450   7.718   4.546   0.144 -0.1803  0.0960  0.0651
10603W        W27451   4.306   2.606  14.433 -0.1411 -0.3077  0.1110
10604W        W27452   4.730   5.045  11.081 -0.0145 -0.0608 -0.1024
10605W        W27453   8.708  17.048   3.588  0.0965  0.2575  0.0898
10606W        W27454  16.172  13.148   2.445 -0.0884 -0.2179  0.3396
10607W        W27455   0.838   0.859  14.347  0.1270  0.2076  0.0522
10608W        W27456   4.148  14.699  11.551  0.2189 -0.1618 -0.0242
10609W        W27457  16.317   3.221   4.713 -0.3237  0.1482 -0.0044
10610W        W27458  16.468  17.855  13.216  0.1516  0.0649 -0.1067
10611W        W27459   8.661   0.910   1.879  0.0965 -0.0812 -0.1655
10612W        W27460  16.369   7.057   4.772  0.0861  0.0262 -0.1037
10613W        W27461   9.858   0.140  13.095  0.1114  0.0970  0.1167
10614W        W27462  11.544   4.645  15.653  0.0920 -0.0958 -0.1690
10615W        W27463  15.792   1.953   0.423 -0.0526  0.2543 -0.1020
10616W        W27464  12.612   6.105   6.372  0.1216 -0.0549  0.0058
10617W        W27465  14.732  10.279  13.321 -0.0296 -0.0978  0.4175
10618W        W27466   4.035   7.508  13.253  0.1747 -0.1939 -0.2566
10619W        W27467   3.158   8.127  12.412  0.1349 -0.0576  0.2374
10620W        W27468  16.363  13.859   3.353 -0.0774 -0.1139  0.2003
10621W        W27469  14.152  12.357   3.670 -0.1264 -0.0746  0.1089
10622W        W27470   4.944  10.112   0.373  0.1095  0.2387 -0.1008
10623W        W27471  15.308  13.451   0.505 -0.3367 -0.1668 -0.2500
10624W        W27472   6.617   3.107   0.048  0.2922  0.1665 -0.1010
10625W        W27473  10.203  14.377  14.264 -0.5469 -0.2019  0.2816
10626W        W27474   1.844  15.442  16.365  0.1669  0.1744  0.1012
10627W        W27475   0.012   2.113   4.386  0.1341  0.0117  0.0428
10628W        W27476  15.375  17.176  14.877  0.1842  0.0857  0.2820
10629W        W27477   9.022  17.326   1.436 -0.1921 -0.1512 -0.1208
10630W        W27478   6.957  14.171  11.605 -0.0580 -0.1390 -0.0302
10631W        W27479  12.583   8.936   1.781 -0.0403  0.0116  0.4043
10632W        W27480  16.043   5.223  15.312  0.0539 -0.3234 -0.1771
10633W        W27481   5.205   5.087   3.141  0.0162 -0.1767  0.0333
10634W        W27482   9.342   9.162   0.059 -0.0220 -0.0538  0.0983
10635W        W27483   2.099  12.799   3.489  0.1191 -0.3403 -0.4058
10636W        W27484  16.067  13.697  11.678 -0.2239  0.3211  0.2555
10637W        W27485   0.822  16.530   1.596  0.3742  0.1534  0.1102
10638W        W27486  16.321  11.551  15.397  0.1633  0.2307  0.0586
10639W        W27487  13.509  14.976   0.717  0.1133 -0.2559  0.2482
10640W        W27488   7.882  15.716   5.084  0.2031 -0.0322 -0.0576
10641W        W27489   0.511  17.343   3.361 -0.2301 -0.0149 -0.0860
10642W        W27490   6.492  13.121  16.607  0.0984  0.3125  0.1082
10643W        W27491  14.526   0.222  16.150  0.3455  0.0753  0.0716
10644W        W27492   5.626   4.165   3.110 -0.1037 -0.0442 -0.1529
10645W        W27493  14.647  16.340  13.726  0.1081  0.0019 -0.0888
10646W        W27494  15.020   6.357   0.367 -0.3133 -0.2016 -0.3660
10647W        W27495  16.607  13.858   2.871  0.1035 -0.0023  0.1924
10648W        W27496  16.445   4.684   3.754 -0.3548 -0.0490  0.1579
10649W        W27497  12.452   4.170   0.242 -0.2927 -0.0818  0.0611
10650W        W27498  13.649   0.885  14.922 -0.0220  0.3922  0.0620
10651W        W27499  12.245  10.979   3.610  0.2018  0.0884 -0.4257
10652W        W27500   4.111   2.899   5.602  0.0431 -0.1781 -0.2414
10653W        W27501   6.158   5.142   1.335 -0.1363  0.0422  0.0814
10654W        W27502   1.224   3.013   2.584  0.0313 -0.0167 -0.0340
10655W        W27503   8.621   1.188  14.255  0.1141 -0.3007  0.3139
10656W        W27504  16.933  17.009  15.487 -0.1831  0.4233  0.0776
10657W        W27505   9.107   8.265  16.227 -0.1764 -0.0139  0.0993
10658W        W27506   5.249   5.975   0.281  0.1479  0.1736 -0.4049
10659W        W27507  16.160  11.753   0.076 -0.0533 -0.0191  0.0632
10660W        W27508  14.648   3.546  16.607 -0.2749  0.2040  0.1681
10661W        W27509   0.208   2.760  15.781  0.0833  0.1314  0.1047
10662W        W27510  17.595  12.070   0.767  0.0179 -0.2139 -0.2120
10663W        W27511  12.506   4.369   5.527  0.1027 -0.2325  0.1693
10664W        W27512  16.824  17.282   4.361  0.1368  0.2390 -0.1534
10665W        W27513   5.657  15.542   5.195  0.0587  0.1176  0.0692
10666W        W27514   5.040  12.832   5.217 -0.1262  0.0948 -0.3819
10667W        W27515   2.693   1.207  12.283  0.1995  0.0213 -0.2452
10668W        W27516  14.780  10.102   3.204  0.0545 -0.1913 -0.1653
10669W        W27517   4.987  14.612  13.007 -0.1246 -0.1143 -0.0460
10670W        W27518  10.828   5.381   4.798  0.2517  0.3087  0.3031
10671W        W27519   1.878  10.158   0.629 -0.0437 -0.1604 -0.1032
10672W        W27520  14.801   7.872  14.141 -0.2006  0.1199 -0.1069
10673W        W27521  10.434   4.925  16.126 -0.1244  0.1084  0.2966
10674W        W27522  10.165   6.741  15.449 -0.3582 -0.0017 -0.2109
10675W        W27523  14.988   9.061   3.747  0.2084 -0.1522  0.2609
10676W        W27524   6.614   8.868  11.386 -0.1312 -0.1735 -0.1358
10677W        W27525  11.697  10.293  16.526  0.0972 -0.0694  0.1916
10678W        W27526  17.805   7.044  16.039 -0.1872  0.1002  0.2306
10679W        W27527  16.189   8.078   2.542  0.0789  0.4088 -0.0038
10680W        W27528  17.480   5.908  16.565 -0.3449  0.2629  0.1793
10681W        W27529   8.541  14.858  13.641 -0.3337 -0.0549 -0.1430
10682W        W27530   5.763  16.749  14.782 -0.2777 -0.0367 -0.1618
10683W        W27531  14.202   4.175   4.915 -0.2191  0.2400  0.0566
10684W        W27532  17.017   3.150   0.397  0.4161 -0.1981  0.1208
10685W        W27533   5.695   1.307   6.203  0.1015 -0.0377 -0.1589
10686W        W27534   1.609   0.961  12.074 -0.3418  0.1023 -0.0430
10687W        W27535  10.130   4.856  12.665  0.0362 -0.2521 -0.2695
10688W        W27536  13.926   6.084   4.741  0.0500 -0.1019  0.0411
10689W        W27537   1.753   4.101   2.099 -0.1662  0.0318 -0.1620
10690W        W27538  13.575   0.693   0.966 -0.1570 -0.3893  0.0429
10691W        W27539  11.996   2.664   2.269 -0.3737 -0.3064 -0.2496
10692W        W27540   4.114   9.967   3.776 -0.3552 -0.0997 -0.0230
10693W        W27541   3.502   8.232  13.169  0.1686  0.0012  0.2237
10694W        W27542  12.539   2.324   3.756  0.1304 -0.0090 -0.1119
10695W        W27543   5.428   5.132   5.401 -0.0680  0.0576 -0.0141
10696W        W27544  14.792   4.753  12.989  0.0596 -0.0240  0.0796
10697W        W27545   3.865   1.531   3.091  0.1149 -0.3002 -0.0677
10698W        W27546  16.624   0.921   0.313 -0.0824  0.1695  0.4446
10699W        W27547   9.713  13.317   0.994 -0.2181  0.0800  0.1196
10700W        W27548   0.904  13.907  14.699  0.0126  0.0464  0.1715
10701W        W27549   2.579  17.246   1.902  0.1449 -0.1067  0.1570
10702W        W27550  15.237   5.137   4.201  0.1338  0.0049 -0.0467
10703W        W27551   2.152  11.189  16.502 -0.0386  0.1512  0.1863
10704W        W27552  11.753  11.770   0.049  0.1419 -0.3076  0.0636
10705W        W27553  16.801  11.334   2.244 -0.0749  0.0779 -0.0639
10706W        W27554  10.495  16.950  15.453  0.3238 -0.1050 -0.1407
10707W        W27555   4.014   9.550   3.975 -0.2980 -0.1047  0.2067
10708W        W27556  16.742   0.708   3.688  0.1222  0.0196 -0.1887
10709W        W27557   3.734  16.426   2.533 -0.0006  0.0726 -0.1138
10710W        W27558  15.398   0.045   0.681 -0.0954  0.1269 -0.0365
10711W        W27559   5.386  13.337   4.475  0.1103  0.3099  0.0584
10712W        W27560   4.506   1.639   0.696 -0.1251 -0.0649  0.2663
10713W        W27561   7.974   4.221   2.094  0.0593  0.0423  0.1611
10714W        W27562   7.270  15.597   0.434 -0.2250 -0.1499 -0.2771
10715W        W27563  16.079  17.460   1.676 -0.0908 -0.1590  0.4582
10716W        W27564   0.429   3.258  14.862  0.1178 -0.0312 -0.1427
10717W        W27565  11.228   7.730  12.033  0.3851  0.0089 -0.0134
10718W        W27566  17.810   7.684  14.562 -0.1147 -0.1748  0.0834
10719W        W27567  16.769   1.638   6.174  0.0084 -0.0907  0.0093
10720W        W27568   4.764  15.590   3.671 -0.2357 -0.1662 -0.2205
10721W        W27569  15.284   2.016   3.617  0.0668  0.1433 -0.0713
10722W        W27570  11.050   1.867  12.093 -0.0742  0.0306  0.0589
10723W        W27571  10.707  13.109   3.186 -0.3649  0.2191  0.0605
10724W        W27572   8.882   2.700  16.089  0.0631 -0.0074  0.2138
10725W        W27573  17.282  14.997   4.463  0.1826  0.1295  0.0748
10726W        W27574  11.582  11.417   4.931  0.1796 -0.0286 -0.3149
10727W        W27575   9.752   1.176  13.958 -0.1867 -0.0045  0.0695
10728W        W27576   8.095   7.278   3.633 -0.1670  0.2527 -0.1692
10729W        W27577  10.433  10.478  14.573  0.1406  0.1726  0.0366
10730W        W27578   0.291  10.826   0.294 -0.0332  0.1395 -0.2119
10731W        W27579  10.469  16.187   2.261  0.1858  0.1782 -0.2025
10732W        W27580   2.666   3.834  15.521 -0.3221 -0.4084 -0.2633
10733W        W27581   5.508  15.881  11.363  0.1201 -0.0375  0.0701
10734W        W27582   7.572   2.528  14.954 -0.0636 -0.2421  0.0855
10735W        W27583   4.501   7.067  13.085  0.0925  0.0010  0.1928
10736W        W27584  15.743   8.287   5.705  0.0161  0.2235  0.1587
10737W        W27585   8.542   7.707   4.879 -0.0938 -0.0129  0.2517
10738W        W27586  15.568   9.128  16.244  0.0286 -0.0110 -0.1729
10739W        W27587  16.733   7.113   1.575  0.1358 -0.0348  0.2081
10740W        W27588   3.481  13.576   3.993  0.1885  0.1668 -0.1415
10741W        W27589  17.025  12.065  13.078 -0.0925  0.2043  0.1586
10742W        W27590   4.520  17.550   1.180  0.1727  0.5759  0.2529
10743W        W27591  10.128   1.299  12.221  0.2463  0.1702 -0.0045
10744W        W27592   5.803  15.232   6.359  0.2993 -0.4697  0.0474
10745W        W27593   9.691   1.791   5.101  0.0686  0.0203 -0.1858
10746W        W27594   5.136   7.033  16.293 -0.0436  0.0562  0.0345
10747W        W27595   9.234   1.272  13.838 -0.2734 -0.3201 -0.0644
10748W        W27596   3.347   8.070  11.550  0.0127 -0.3141  0.0955
10749W        W27597  17.445  17.432  13.843 -0.1603  0.0083 -0.0681
10750W        W27598   1.417  15.002   5.692  0.1997 -0.2016 -0.1600
10751W        W27599   0.032  16.519  14.670 -0.2630  0.0059  0.0134
10752W        W27600   0.425   9.940   3.396  0.0368 -0.0875  0.0513
10753W        W27601   8.459   4.988   5.648 -0.2689 -0.1863  0.1519
10754W        W27602  14.769   8.048   0.080 -0.0226  0.2913 -0.0390
10755W        W27603  12.107   4.212  16.372 -0.1852 -0.1786 -0.0825
10756W        W27604  11.746   5.305   0.224  0.3158  0.3688  0.1027
10757W        W27605  10.368   9.897   3.290  0.0474 -0.0081 -0.2553
10758W        W27606  11.698   2.842   0.964  0.0684 -0.0826  0.3267
10759W        W27607   4.017  11.806  16.066 -0.2435  0.0062 -0.3018
10760W        W27608   4.617  17.221  11.969  0.0440  0.1787  0.0900
10761W        W27609  10.491  11.073  12.250 -0.1152 -0.1441  0.0846
10762W        W27610   7.950   1.846   3.825 -0.0369 -0.1513  0.0870
10763W        W27611   9.953  11.601   4.167  0.0706  0.1848 -0.1607
10764W        W27612   9.400  13.439   3.020  0.0931 -0.0892  0.1472
10765W        W27613  12.330   0.896   3.835 -0.1686  0.4080  0.1210
10766W        W27614   3.013  16.437  15.518 -0.1798  0.0630 -0.0666
10767W        W27615  10.517  14.129  16.441  0.0570 -0.5038  0.4678
10768W        W27616   0.950  15.053  12.891  0.0642 -0.0405 -0.0761
10769W        W27617  10.410   9.157   2.123  0.0794  0.0739 -0.1531
10770W        W27618  11.589  15.058  12.479  0.1351 -0.1708  0.1917
10771W        W27619  12.810   9.712  15.984 -0.0064 -0.0830  0.0519
10772W        W27620  17.412   4.653   2.602  0.0300 -0.1538 -0.2921
10773W        W27621   4.313   5.374   0.855  0.0932  0.4049 -0.0391
10774W        W27622   2.781   2.971  14.575 -0.2047  0.4536  0.1646
10775W        W27623  12.444  12.742  15.669  0.2088 -0.1316 -0.0190
10776W        W27624   9.574   1.610  15.161 -0.1358  0.0651 -0.1557
10777W        W27625   4.804   9.640   1.061 -0.1587  0.0360 -0.2858
10778W        W27626   6.077   4.651  13.857 -0.2001 -0.4209 -0.1556
10779W        W27627  13.912  17.796  15.561 -0.1717  0.0603  0.1382
10780W        W27628   3.510  12.672  15.843 -0.0223  0.0883 -0.1733
10781W        W27629  14.592  11.444  15.570 -0.0330 -0.3055 -0.1058
10782W        W27630  13.483   3.151   0.009 -0.0925  0.0517 -0.0656
10783W        W27631   2.661  10.185   1.387 -0.0673  0.0854  0.0431
10784W        W27632  10.524   8.765   2.963 -0.2457 -0.2899 -0.1377
10785W        W27633   7.524  14.235   2.085  0.1122  0.1453  0.2050
10786W        W27634   8.838   7.145  13.077  0.2208 -0.1793 -0.1636
10787W        W27635  15.173  11.675   4.434  0.2471  0.1018 -0.1657
10788W        W27636   7.701   8.135   3.400 -0.0467  0.0409 -0.1699
10789W        W27637  17.425   0.407  11.833 -0.0127 -0.1854 -0.2695
10790W        W27638  10.853  17.527  13.198 -0.1426  0.3839 -0.4395
10791W        W27639   3.488   3.516  14.757  0.0236  0.1257 -0.0620
10792W        W27640  15.290   9.129  14.698 -0.2442  0.0301 -0.3902
10793W        W27641  12.126   2.203  12.196 -0.2847  0.0961  0.0004
10794W        W27642  16.498   6.368   3.318 -0.0641 -0.0154  0.1202
10795W        W27643  10.210  12.542  13.014  0.1040  0.0461 -0.2002
10796W        W27644   4.639  12.727  12.483 -0.1861  0.1820  0.1583
10797W        W27645   0.776  16.903   0.090  0.2623 -0.2084  0.0522
10798W        W27646   6.734   0.568  16.327  0.2804  0.0386 -0.0156
10799W        W27647  16.115  10.155  14.613 -0.0710  0.1247  0.2325
10800W        W27648  11.944  16.417  15.769 -0.0967 -0.1311 -0.1857
10801W        W27649  13.862  14.497   2.273 -0.1262  0.1510  0.0182
10802W        W27650  16.371   4.424  13.679 -0.0094  0.0896  0.2948
10803W        W27651   9.588  15.424   0.737 -0.0805  0.3558 -0.1468
10804W        W27652   2.279  14.207  15.833 -0.0339  0.2121  0.0367
10805W        W27653  14.256  16.090   5.214 -0.0957  0.1432  0.3084
10806W        W27654   5.334   9.731   4.639  0.1102 -0.1070  0.1618
10807W        W27655  16.427   3.123   4.176 -0.0103  0.0566  0.0987
10808W        W27656   9.126  12.419   1.902 -0.0944  0.0283  0.2319
10809W        W27657   9.747   2.723   4.692  0.1933  0.0469 -0.0165
10810W        W27658   1.360   2.257  16.350 -0.2946 -0.0049  0.1690
10811W        W27659   6.030  12.383   1.793 -0.1958  0.2037 -0.0405
10812W        W27660  11.445  13.809  15.332  0.0766  0.0068 -0.0345
10813W        W27661   1.312   0.685  11.753 -0.4231 -0.3814 -0.1214
10814W        W27662  16.077   4.251  15.033 -0.0323  0.3187  0.0679
10815W        W27663  16.842  13.629   1.088  0.1490  0.2094  0.3066
10816W        W27664  14.012   0.762   2.751  0.3263 -0.0409 -0.2044
10817W        W27665  17.570   2.783   2.679  0.0083  0.2765  0.2691
10818W        W27666   6.835  17.292   0.597 -0.0263  0.4543  0.0838
10819W        W27667  11.535   0.373   4.475 -0.1499 -0.2034 -0.0372
10820W        W27668   2.059   1.604   4.929  0.0698  0.0160  0.2014
10821W        W27669  16.726  12.015  13.468  0.0855  0.0281  0.0778
10822W        W27670   2.675  17.851   4.526  0.1013  0.0462 -0.1666
10823W        W27671  12.336  10.747   1.602 -0.1329  0.0207 -0.1575
10824W        W27672  17.583  10.034  11.535  0.1763  0.0725 -0.0792
10825W        W27673  15.280   0.942  13.293  0.1723  0.2228 -0.1073
10826W        W27674   0.191   3.839   2.920  0.0023  0.0250 -0.1628
10827W        W27675  12.853   6.586  14.723  0.1741  0.2112 -0.1622
10828W        W27676   1.441  16.919  12.213  0.0572 -0.1942 -0.1205
10829W        W27677   2.608  15.037   0.492  0.0427 -0.1512 -0.1663
10830W        W27678   6.638   5.887   3.326  0.2895  0.0737  0.0303
10831W        W27679   0.710  12.749  11.554  0.0275  0.0527 -0.0176
10832W        W27680  10.863   8.327  14.407 -0.2070 -0.3022 -0.0385
10833W        W27681   3.839  16.859   2.378 -0.3002  0.0898 -0.1226
10834W        W27682   1.378   2.005  13.380  0.0241  0.1193  0.1902
10835W        W27683  14.984  14.568   0.959 -0.0747  0.2647 -0.1009
10836W        W27684   7.602  10.018  11.575  0.0529  0.0347  0.0951
10837W        W27685   9.519   0.507   3.293  0.0730 -0.2829 -0.1620
10838W        W27686   3.330  15.035   3.588  0.3404  0.1786 -0.1599
10839W        W27687  13.223   9.067   0.934 -0.0583  0.0345  0.1264
10840W        W27688   2.643   2.966  16.451  0.0246  0.0076 -0.1170
10841W        W27689   8.724  15.972  12.786 -0.2290 -0.1657  0.1332
10842W        W27690   7.602   2.918  15.853  0.2027 -0.1963  0.0623
10843W        W27691   3.811  15.567   4.944 -0.1147  0.1953 -0.2301
10844W        W27692   8.677  10.228   0.703 -0.0635  0.0660  0.0931
10845W        W27693   6.188   4.870  12.035  0.2497  0.0369  0.0232
10846W        W27694   2.133   7.034  14.905 -0.0596 -0.2471 -0.0355
10847W        W27695   4.850   2.823  15.032 -0.0769  0.1388  0.2241
10848W        W27696   6.303  12.623  12.207 -0.0601 -0.3564  0.4885
10849W        W27697  10.846   5.644   3.218 -0.0463 -0.2027  0.2636
10850W        W27698   9.619  17.097  13.330 -0.1882  0.1138 -0.0032
10851W        W27699   2.639  12.129   3.717  0.1745  0.0115  0.0746
10852W        W27700   6.951   0.102  15.061 -0.0382  0.1364  0.2302
10853W        W27701  17.408  11.956  12.073  0.0918  0.1451  0.0254
10854W        W27702   2.063  13.292   5.159  0.0709  0.2720  0.0026
10855W        W27703   0.903  11.911   3.356  0.1416  0.1414  0.0749
10856W        W27704  12.940   0.656  13.645 -0.3189  0.2112 -0.0571
10857W        W27705   0.674   2.864   2.788  0.0439 -0.0881 -0.0330
10858W        W27706   5.328   9.603  13.917  0.3394 -0.0853  0.1355
10859W        W27707  17.544   5.067   1.869 -0.4326 -0.0045 -0.2482
10860W        W27708  13.180   0.632  10.974  0.0086  0.2787  0.2146
10861W        W27709  11.116  17.554   0.652 -0.1785  0.0980 -0.4106
10862W        W27710  10.585  15.859   6.003 -0.4038  0.0335  0.0601
10863W        W27711   2.622  11.628   3.909 -0.2746  0.1631  0.2004
10864W        W27712  14.324   1.386  16.244 -0.0213 -0.0413  0.3967
10865W        W27713   0.017   7.916  15.861 -0.1753 -0.0365  0.0213
10866W        W27714   4.144  17.485   2.900 -0.0552 -0.2928 -0.0217
10867W        W27715   2.223  13.036  15.238  0.0040  0.0013  0.0667
10868W        W27716   9.607  15.721   0.342 -0.1106  0.0177 -0.1357
10869W        W27717  14.144  13.632   2.939 -0.0807 -0.0767  0.0394
10870W        W27718  12.650   1.000  13.754  0.0443  0.0097 -0.1109
10871W        W27719   0.206   7.003  12.902 -0.4727 -0.2871  0.0956
10872W        W27720  17.377   6.419   5.217  0.2783  0.0445 -0.4651
10873W        W27721   2.260   3.932   3.772 -0.0637  0.1860  0.3061
10874W        W27722   3.338   9.902   0.127 -0.3145 -0.0582  0.0396
10875W        W27723   2.372  11.758   5.323 -0.1119  0.0919  0.2732
10876W        W27724   1.402   5.974   3.487 -0.1805 -0.1959 -0.0277
10877W        W27725  14.629  16.904  15.857 -0.1445 -0.0384 -0.1154
10878W        W27726   2.449  13.768  15.692  0.1594  0.1145  0.1406
10879W        W27727  16.534   7.040  10.490 -0.1173 -0.1043 -0.0949
10880W        W27728  15.436  14.850   0.821  0.1884  0.0409 -0.0689
10881W        W27729   0.644   5.428  15.043  0.0446 -0.2475 -0.1880
10882W        W27730   3.547   1.390   0.965 -0.1660  0.1710 -0.0901
10883W        W27731   5.241   0.067   0.896  0.1060  0.3475  0.1150
10884W        W27732   9.548   5.132   4.352 -0.1263 -0.0532 -0.2263
10885W        W27733   2.739   1.123  13.919  0.0630  0.0643  0.2271
10886W        W27734  11.532   4.350  12.947 -0.2158 -0.0982  0.2953
10887W        W27735   1.705  10.831   2.021 -0.2611 -0.0241  0.0603
10888W        W27736  14.753   2.634   5.600 -0.1306 -0.2296  0.0796
10889W        W27737   7.069   3.793  11.926  0.1358 -0.0373 -0.3369
10890W        W27738  12.406  12.398  16.433  0.0514  0.1415  0.2807
10891W        W27739   0.424   2.115   0.342 -0.5029 -0.1279 -0.0307
10892W        W27740   3.885  17.385   2.452 -0.0416  0.0826 -0.0206
10893W        W27741   0.006   6.722   2.410 -0.0353 -0.0563  0.2972
10894W        W27742  11.405   5.507   0.590  0.0927 -0.1369  0.2650
10895W        W27743   7.882   2.771  13.439  0.2544 -0.2499  0.0209
10896W        W27744   0.046  14.616   3.101  0.1630 -0.3722  0.1069
10897W        W27745   5.720  17.817  15.439  0.1278 -0.0441  0.1137
10898W        W27746   7.885   2.782  11.822  0.0324  0.0405  0.1337
10899W        W27747  17.374  10.491  14.888  0.1394 -0.2284  0.0392
10900W        W27748   0.066   0.306  14.943 -0.1320 -0.3009 -0.2196
10901W        W27749   5.591  15.132   0.416 -0.0675 -0.1413  0.1661
10902W        W27750   8.644   8.277  13.753  0.0158 -0.0870 -0.1258
10903W        W27751  14.072   8.800  14.734  0.1242  0.1244 -0.1099
10904W        W27752  10.572   2.154   1.446 -0.0664  0.1920 -0.3036
10905W        W27753   5.037   9.232   0.876 -0.3044 -0.2373 -0.1293
10906W        W27754   6.991  16.399   4.964  0.1795  0.1426  0.0940
10907W        W27755   9.429   2.681   5.272  0.0238  0.0302 -0.2785
10908W        W27756   2.756  11.740   4.471 -0.0229 -0.1833  0.0716
10909W        W27757   7.184  14.063   5.157 -0.2020 -0.0152 -0.3611
10910W        W27758   9.891  13.762   2.912  0.1428  0.0536 -0.3283
10911W        W27759  16.203   2.698  12.084  0.2739  0.1596  0.0696
10912W        W27760  16.469  14.328  13.437 -0.1825  0.1342  0.0826
10913W        W27761   1.501  17.226   3.721 -0.1704 -0.2073 -0.1564
10914W        W27762  13.447  14.765  14.208 -0.4884  0.0205  0.1356
10915W        W27763  16.148   2.115  14.323  0.1392  0.1066 -0.1416
10916W        W27764  17.381  10.634  15.923 -0.1076 -0.0488  0.1069
10917W        W27765   9.048   3.399  12.377 -0.1903 -0.0015 -0.0139
10918W        W27766   8.352   2.068   4.125 -0.1580  0.1459  0.1158
10919W        W27767  12.381  13.905  13.044 -0.0321 -0.0001 -0.3943
10920W        W27768  12.037   9.765  12.955 -0.1420  0.1229 -0.2036
10921W        W27769  10.549  10.864   0.465 -0.3457 -0.1549  0.1683
10922W        W27770  11.752   8.090  13.511  0.1095  0.3631 -0.1421
10923W        W27771  14.130  11.294   5.150  0.1193  0.2697 -0.0758
10924W        W27772   0.063   0.628   2.459  0.4531 -0.0057 -0.2114
10925W        W27773   0.174  13.965   0.301  0.4148 -0.0939  0.1269
10926W        W27774  10.306   2.125   0.980 -0.0480  0.3230 -0.2023
10927W        W27775   0.978   4.319  15.654 -0.2603  0.3469  0.0899
10928W        W27776  11.004  12.373   1.484 -0.1034 -0.1934  0.1871
10929W        W27777  10.858   1.291  12.929 -0.0287  0.1253  0.0647
10930W        W27778   4.635  13.472   0.352 -0.0208 -0.1760 -0.0540
10931W        W27779   8.873   4.908   3.638  0.1949  0.2493 -0.1663
10932W        W27780   5.858   8.467  15.297 -0.0722  0.0998  0.2356
10933W        W27781  11.533   5.642   4.110 -0.4349 -0.0692 -0.1905
10934W        W27782   3.296   1.982   0.262 -0.3374 -0.0508  0.1100
10935W        W27783   6.691   3.860   1.722 -0.0122 -0.1415  0.4001
10936W        W27784   6.979   4.254  15.754  0.0605 -0.0275  0.0790
10937W        W27785   7.152   8.303  11.982  0.2393  0.2562  0.1469
10938W        W27786  12.278   5.441  11.416  0.0981 -0.1098 -0.1659
10939W        W27787   9.360   2.453  13.162  0.2348  0.1110 -0.2746
10940W        W27788  17.286   7.270   3.465 -0.1349  0.0555 -0.2719
10941W        W27789   9.026  16.319   4.599  0.2579 -0.0934  0.0127
10942W        W27790  12.013  14.087  13.579  0.1008  0.3212  0.2909
10943W        W27791  15.657   1.439  11.849  0.2212 -0.1404  0.2975
10944W        W27792   3.987  12.542  12.760  0.2800 -0.0090  0.1496
10945W        W27793   4.348  10.172  11.020  0.0029  0.2265 -0.2717
10946W        W27794   9.102   3.527  15.668 -0.2267 -0.2111  0.0842
10947W        W27795  11.874   3.188   2.556 -0.0071 -0.1090 -0.0349
10948W        W27796   3.358  11.879   3.929 -0.0779  0.0038  0.0547
10949W        W27797  17.082  16.525  12.360  0.2675  0.1611  0.0048
10950W        W27798   4.628   9.853   0.635 -0.2004 -0.0975  0.0165
10951W        W27799  11.038   4.470  15.616 -0.0300 -0.3440 -0.0461
10952W        W27800   4.900   8.786   3.285  0.2009  0.0703  0.0818
10953W        W27801   6.873  16.377  16.078  0.0169  0.2070 -0.1576
10954W        W27802   8.229  11.346   4.333  0.0775  0.3329 -0.0477
10955W        W27803  17.601   6.733  14.199  0.0301  0.6165  0.3473
10956W        W27804  13.587   8.905   4.938 -0.3599  0.0612  0.1751
10957W        W27805   6.376  12.068   4.368 -0.1000 -0.0409  0.0330
10958W        W27806   6.480   4.580  12.950 -0.1236 -0.3670  0.0721
10959W        W27807  10.238  12.291   4.846  0.2198 -0.1330  0.0784
10960W        W27808   8.750  16.402  16.336 -0.2748  0.0668  0.0815
10961W        W27809  15.611   1.942   4.626 -0.1181  0.1036 -0.0730
10962W        W27810   2.280  16.802   5.078  0.2301 -0.0764 -0.0163
10963W        W27811   1.756   5.921  11.734  0.1668  0.1494  0.1517
10964W        W27812   7.766  11.163  12.384 -0.0087  0.0485  0.1646
10965W        W27813  16.193   0.766   5.527 -0.1852 -0.2617  0.0600
10966W        W27814  17.321  11.202  16.577 -0.0606 -0.0100  0.1054
10967W        W27815  16.592   4.692  15.549  0.0930 -0.0317 -0.0625
10968W        W27816   5.175  12.059   2.680  0.1186  0.1454  0.1522
10969W        W27817   8.387  12.783   1.645  0.0656 -0.1364 -0.0408
10970W        W27818  15.668  14.101   1.112  0.0406  0.2218  0.2687
10971W        W27819   9.744   1.741  12.436  0.0752  0.0837  0.0662
10972W        W27820   6.429   5.948   2.872 -0.1540 -0.0417  0.2779
10973W        W27821   9.908   3.194   3.320  0.2004 -0.2786  0.1299
10974W        W27822   8.889   9.272  16.408  0.1536  0.2504  0.0011
10975W        W27823   4.560   8.395  14.660  0.0619 -0.1126  0.2296
10976W        W27824   9.667   1.089   0.211  0.0200  0.0607 -0.1355
10977W        W27825   6.887   7.527   4.668 -0.1468  0.2525 -0.1120
10978W        W27826   8.323   3.100  15.469  0.1352  0.0330 -0.1147
10979W        W27827   9.496   3.289   3.047 -0.2393  0.1566 -0.2689
10980W        W27828  11.266  17.037  13.679 -0.1255  0.0706  0.1372
10981W        W27829   2.017  12.098   5.015 -0.3403 -0.1001  0.2364
10982W        W27830   4.561  11.835  14.997  0.0742  0.1576 -0.0253
10983W        W27831   9.813   5.770   3.635  0.1222 -0.1724 -0.0081
10984W        W27832   2.256   4.872  15.938 -0.0588  0.2500  0.1957
10985W        W27833  15.665   7.507  11.910  0.0556  0.2701 -0.2751
10986W        W27834  11.701  10.091  13.129 -0.0116 -0.0490  0.0522
10987W        W27835   8.464   6.205   5.262 -0.0480  0.1112  0.0614
10988W        W27836  16.483  17.690   5.690 -0.0336  0.0257  0.0101
10989W        W27837   0.110  17.844   0.849  0.0645 -0.0207  0.0987
10990W        W27838  13.671   9.952  16.560 -0.0381  0.0298  0.0550
10991W        W27839   2.150   7.577  16.302  0.0154  0.1440  0.3089
10992W        W27840  13.768   3.683  14.184 -0.1077 -0.0401  0.2683
10993W        W27841   7.277   5.336   4.569  0.0842  0.1378 -0.3578
10994W        W27842   6.416  17.657   2.862  0.0933  0.4324 -0.1627
10995W        W27843   0.520  14.771  13.162 -0.0275 -0.1275  0.2119
10996W        W27844   2.264  16.538   5.538  0.0548 -0.1222  0.0347
10997W        W27845  13.506  12.713  14.805  0.3682 -0.3149  0.3588
10998W        W27846   9.763  16.635   1.373  0.0825  0.1057 -0.1113
10999W        W27847   5.365  11.238  12.562  0.1122  0.1326  0.0703
11000W        W27848  11.675   5.942   0.824  0.0165  0.2625 -0.4390
11001W        W27849   7.953   0.699  12.689  0.1166 -0.0937 -0.1255
11002W        W27850  17.557  12.760   1.905  0.0357  0.2328  0.0304
11003W        W27851   2.687   9.864   3.412  0.0611 -0.1600  0.0936
11004W        W27852   1.785  15.741  15.240  0.1552  0.0564 -0.1780
11005W        W27853   9.741  10.243   1.372  0.1895 -0.1983  0.1147
11006W        W27854  11.764   5.275  11.421 -0.1002  0.0745 -0.1746
11007W        W27855  10.545   3.437   1.257 -0.2529  0.0881  0.2366
11008W        W27856   1.584  13.174   0.653 -0.0530 -0.0023 -0.0373
11009W        W27857  11.170   0.391  10.690  0.0827 -0.3141  0.1504
11010W        W27858  15.612   3.369   1.661 -0.1337  0.0054 -0.2148
11011W        W27859  11.336  16.552  13.759 -0.1827  0.1171  0.0365
11012W        W27860   6.056  17.791  16.292 -0.0346  0.2205 -0.0562
11013W        W27861   3.552   0.106   3.633 -0.1749 -0.5392  0.1131
11014W        W27862  16.685   6.714  14.025  0.2458 -0.0321  0.1852
11015W        W27863  14.628   3.765  16.110  0.0629 -0.2527 -0.0620
11016W        W27864  13.028   8.005   3.214  0.1675  0.2585  0.0253
11017W        W27865   0.486  13.639  14.873 -0.0049 -0.2031 -0.1357
11018W        W27866   3.569  14.364  14.579  0.2870 -0.0995  0.1462
11019W        W27867  12.345  17.044   4.559 -0.2701 -0.1872  0.0204
11020W        W27868   8.152  13.320   6.421  0.3020 -0.1442 -0.0872
11021W        W27869  12.341   8.687   4.760  0.0966  0.3435  0.0191
11022W        W27870  16.617  13.955   0.151  0.1313 -0.1931 -0.2207
11023W        W27871   2.255   4.129   2.048  0.0103  0.0845  0.3103
11024W        W27872   0.878   5.828  12.767  0.1508 -0.0676  0.0293
11025W        W27873  11.461  10.031   2.684 -0.2020 -0.1567  0.0891
11026W        W27874  17.661   0.648   1.242  0.0668 -0.0501  0.0511
11027W        W27875  15.698  11.557  12.981 -0.2233  0.1269 -0.0079
11028W        W27876   1.334   9.743  14.299 -0.3574  0.0314  0.3851
11029W        W27877  15.852   6.769   2.482  0.1286  0.2545 -0.1654
11030W        W27878  13.136  14.021  13.683  0.0921  0.1540 -0.0345
11031W        W27879   3.481  11.053  14.638  0.0024  0.3935  0.1184
11032W        W27880  16.335   7.026   0.135 -0.1311 -0.0333 -0.1452
11033W        W27881  10.688  10.338   3.398 -0.3201 -0.1057  0.0312
11034W        W27882   5.575  13.697   3.039  0.5664  0.2491 -0.1648
11035W        W27883   1.910  15.662  15.859 -0.0715  0.1545  0.2036
11036W        W27884   2.091   3.366  11.181 -0.0704 -0.1906 -0.0041
11037W        W27885   0.733   5.242  13.394  0.1195 -0.4662  0.1020
11038W        W27886   8.771   5.957   0.827  0.2536 -0.1955 -0.1097
11039W        W27887   0.963  16.225   2.400 -0.1891 -0.1388 -0.2772
11040W        W27888  16.392  11.663   3.853  0.1978 -0.5163 -0.2063
11041W        W27889   9.067  11.435  15.710  0.1307 -0.4680 -0.0587
11042W        W27890   6.109   2.038  12.687 -0.0921  0.0798 -0.0730
11043W        W27891  10.928  15.089  11.709  0.1143 -0.0927 -0.0298
11044W        W27892   9.459  16.203  14.977  0.2060  0.2801  0.0060
11045W        W27893  16.903   7.676   4.626  0.0069 -0.3829 -0.2211
11046W        W27894  13.346  12.946  13.349 -0.1208  0.0595  0.0145
11047W        W27895  10.167   4.017   2.817 -0.0028 -0.0300 -0.1020
11048W        W27896  13.339   3.702   4.848  0.0393  0.0585  0.1799
11049W        W27897  11.742   7.384  15.892 -0.0466 -0.0550 -0.0584
11050W        W27898   1.518  14.469   0.085  0.0540 -0.0611 -0.0983
11051W        W27899  13.661  13.622   3.140  0.4710 -0.0516 -0.0742
11052W        W27900  14.726   0.754   3.781 -0.1866 -0.0631  0.0443
11053W        W27901   8.193   0.041   1.566 -0.0956  0.1626  0.3324
11054W        W27902  16.257   5.341   0.657 -0.2150 -0.2030 -0.1054
11055W        W27903   3.438  10.561  15.561  0.0420 -0.1068 -0.3455
11056W        W27904   7.796   8.062   2.123  0.0225 -0.1320  0.1890
11057W        W27905   8.671   1.046   0.488 -0.2572  0.1660 -0.0849
11058W        W27906  10.544   5.381   4.047 -0.2050 -0.0076 -0.1140
11059W        W27907   8.337   6.543   5.569 -0.0343  0.0595 -0.1200
11060W        W27908   5.429  16.032  14.526  0.0136  0.2447 -0.3296
11061W        W27909   6.441   7.243  11.914  0.0248  0.4514  0.1175
11062W        W27910  14.063   8.770   2.453 -0.0729  0.2107 -0.0463
11063W        W27911   5.951  16.501   4.638 -0.1277  0.2229 -0.2237
11064W        W27912  13.647  11.608  11.302  0.0178 -0.3881 -0.0399
11065W        W27913  10.289   6.760  13.601 -0.1119  0.1440 -0.3002
11066W        W27914   0.041   4.968  11.780  0.2968 -0.1763  0.1293
11067W        W27915   2.508  12.265   5.084  0.0229 -0.0750 -0.1017
11068W        W27916   5.952   8.094   5.647 -0.2385  0.0138 -0.0082
11069W        W27917  10.325   8.800  13.222 -0.1525 -0.0315  0.4975
11070W        W27918   5.157  17.741  12.420  0.3249  0.0833  0.0657
11071W        W27919  13.942   6.585  14.510 -0.2469  0.0567  0.3115
11072W        W27920  12.060   5.846  16.609 -0.3335  0.1216  0.0316
11073W        W27921  15.216   0.871  11.337  0.2201  0.2888  0.1331
11074W        W27922   8.923  12.458  14.699  0.1278  0.2066  0.0493
11075W        W27923  15.355   9.572   2.113  0.0605 -0.0821  0.0451
11076W        W27924   4.265   4.932   2.989 -0.0406 -0.0999  0.2917
11077W        W27925  15.492  13.418  14.392 -0.2675 -0.0632 -0.2210
11078W        W27926   6.895   5.718   2.952  0.0525 -0.1542 -0.0296
11079W        W27927  11.142  10.495  14.398  0.2070 -0.0184  0.1198
11080W        W27928   8.966  17.817   3.227  0.2243 -0.1431  0.2368
11081W        W27929   3.489  11.782  16.110  0.0884 -0.1763 -0.0103
11082W        W27930  14.532  16.794   3.094 -0.3918 -0.0753  0.0218
11083W        W27931   3.582  11.413   2.597 -0.1379  0.1056 -0.1603
11084W        W27932   3.488   6.248  13.153  0.0147 -0.0377 -0.3759
11085W        W27933   8.593  15.372   1.163 -0.0260 -0.0714 -0.0247
11086W        W27934   7.615  15.930   4.616  0.3353  0.0325  0.0557
11087W        W27935   1.683  12.066  13.859 -0.1388 -0.1323  0.3463
11088W        W27936   5.444   9.028  16.212  0.0085 -0.1854  0.0438
11089W        W27937   7.683  14.797  16.414  0.1214  0.1112  0.0014
11090W        W27938  14.008   7.598   1.719  0.2062  0.2206  0.2234
11091W        W27939  14.782   4.371  14.795 -0.2780 -0.1539 -0.3517
11092W        W27940  12.588  10.547   4.639  0.0005 -0.0610  0.0411
11093W        W27941   6.797  16.601  15.645  0.0542 -0.3476  0.1151
11094W        W27942  15.462   6.972   4.622 -0.0318  0.1841  0.0074
11095W        W27943  13.823   0.705  11.813 -0.0748 -0.2449  0.0530
11096W        W27944   6.928   4.726  15.993  0.3355  0.1119 -0.0637
11097W        W27945   3.282   7.484   3.139 -0.0024  0.1118  0.0215
11098W        W27946   4.955   9.252   4.052  0.1209  0.2519 -0.1189
11099W        W27947   0.388   5.644   3.352 -0.1855  0.1166  0.2018
11100W        W27948  15.581   9.527  14.936 -0.3225  0.1688  0.2202
11101W        W27949  11.257  14.572  11.862 -0.2266  0.2179  0.1954
11102W        W27950  14.018   9.777  11.743 -0.1698  0.0306  0.0588
11103W        W27951  10.504  14.988  15.476 -0.1387  0.5534 -0.0889
11104W        W27952   3.682  12.198   3.647 -0.0479 -0.0012  0.0521
11105W        W27953   6.367  11.654   0.674 -0.0358  0.0303 -0.1424
11106W        W27954   1.975   4.700   0.050 -0.1103 -0.0406  0.2113
11107W        W27955   3.664   9.041  16.361  0.0655 -0.2090  0.0516
11108W        W27956  10.070   6.422   1.038  0.1913 -0.0671 -0.2139
11109W        W27957  17.141   8.142   2.188 -0.2230  0.1122 -0.0657
11110W        W27958   6.950  13.651  14.890 -0.0268 -0.0285 -0.0894
11111W        W27959   5.795   6.774  14.003  0.0401 -0.0331 -0.0685
11112W        W27960  16.281   3.037   1.095 -0.0468  0.2391 -0.0064
11113W        W27961   3.510   8.579   4.801  0.3200 -0.1261  0.1474
11114W        W27962   4.665  17.009  11.494  0.1532 -0.3370 -0.4631
11115W        W27963   2.105  15.411   3.330  0.0492  0.0315  0.1283
11116W        W27964  13.316   1.664  15.147  0.1195  0.0168 -0.2243
11117W        W27965   9.996   0.318  16.322  0.0262 -0.0279 -0.1986
11118W        W27966  14.862  16.492  15.125  0.0329  0.3582  0.1873
11119W        W27967   6.089   3.772   4.661 -0.1441  0.0666 -0.0459
11120W        W27968   9.646  17.844  15.386  0.2286 -0.3867  0.0447
11121W        W27969   8.883   5.848   1.395  0.0539 -0.2358 -0.1537
11122W        W27970  12.643   4.362   2.035 -0.1575  0.1522 -0.0789
11123W        W27971   8.789   1.034   3.223  0.0797 -0.0528  0.0606
11124W        W27972   6.754  15.815  13.929 -0.0363  0.0794  0.1175
11125W        W27973  14.584  10.260  13.877 -0.0990  0.0069  0.2221
11126W        W27974   6.083   9.865  15.051  0.3492 -0.1296  0.0035
11127W        W27975   5.514   3.743  15.210  0.3216 -0.2498  0.1430
11128W        W27976  14.311  13.856   1.192 -0.3933 -0.0435  0.0240
11129W        W27977  12.281  12.381  13.229 -0.0853 -0.0165  0.1688
11130W        W27978  14.516   1.085  12.537 -0.0906  0.0149 -0.0010
11131W        W27979  12.773  12.842  13.205 -0.1297 -0.0343 -0.0279
11132W        W27980  10.331   7.957  11.063  0.1931  0.2576 -0.0587
11133W        W27981  11.741  16.123  16.582 -0.0673  0.0584  0.0743
11134W        W27982   9.052   0.989   5.089 -0.0689 -0.3788  0.0773
11135W        W27983   6.861  16.447   4.401 -0.0292  0.2256  0.1585
11136W        W27984   7.542   9.944   3.337 -0.1187  0.1684 -0.0712
11137W        W27985  13.642   9.050  14.564 -0.0792 -0.0535 -0.0602
11138W        W27986   2.308  17.147  12.207  0.2277 -0.0768  0.1407
11139W        W27987  11.679  10.293   5.165  0.1638 -0.0889  0.0589
11140W        W27988  15.590  16.461   4.331 -0.1109 -0.0109  0.2689
11141W        W27989  10.733   0.093   5.104 -0.2752  0.0557 -0.1000
11142W        W27990   3.383  13.784   3.225 -0.0765 -0.1081  0.0173
11143W        W27991  17.598  11.722  11.143 -0.0925  0.0609  0.0930
11144W        W27992   4.039   2.735   1.918  0.1549  0.0346  0.3116
11145W        W27993   6.307   9.591  13.458 -0.0259  0.0609 -0.2402
11146W        W27994   8.248   2.999  12.629 -0.0206 -0.1626 -0.2980
11147W        W27995   8.304  17.835  16.586  0.1172 -0.0154  0.1516
11148W        W27996  13.755  10.703  13.685 -0.1143  0.1101  0.1944
11149W        W27997  17.572   5.274  14.368  0.3123 -0.2220  0.1027
11150W        W27998  16.478   1.806  12.252  0.3308  0.2841 -0.0589
11151W        W27999  14.193  16.907  12.479  0.1172 -0.0020  0.3835
11152W        W28000   8.697   9.707  13.554  0.0643  0.1097 -0.1784
11153W        W28001  11.565   3.723   0.284  0.3050  0.1063  0.0440
11154W        W28002   1.232   0.429  10.543  0.1934 -0.0632  0.1389
11155W        W28003  16.369   3.012  16.309  0.2523  0.0103 -0.2324
11156W        W28004  12.070  15.173   4.767 -0.0605 -0.1096  0.0944
11157W        W28005  16.741  11.612   1.633 -0.4021  0.1212 -0.1666
11158W        W28006   4.860   8.907  13.400  0.1124  0.3063 -0.1456
11159W        W28007  13.268  12.111  13.396  0.5359 -0.0320  0.1722
11160W        W28008   0.681   0.850   5.200  0.1922 -0.2791 -0.1807
11161W        W28009   8.870   4.399   2.660  0.2852 -0.2076  0.1562
11162W        W28010  17.740  10.234  16.288  0.2497 -0.1597  0.3386
11163W        W28011   6.553   0.999  13.161  0.1673 -0.1669  0.1079
11164W        W28012  13.881  10.264  16.133 -0.0600  0.0002 -0.0216
11165W        W28013  12.559  17.710  15.444  0.0054 -0.1678 -0.3424
11166W        W28014   5.048  12.093  15.197  0.2966  0.1131 -0.1483
11167W        W28015   3.837   8.229   3.702 -0.2197  0.0611  0.1745
11168W        W28016   2.986   1.539  16.103 -0.0369 -0.2784 -0.2020
11169W        W28017   9.104   9.553  11.391 -0.2264  0.1197  0.0777
11170W        W28018   7.821   0.993  14.703  0.1254  0.0910 -0.0784
11171W        W28019   0.361   0.809  12.057 -0.2058  0.0533  0.2560
11172W        W28020   2.205   0.317  12.626  0.1199 -0.2207 -0.1612
11173W        W28021  15.452   5.497  12.111 -0.3315 -0.0281  0.1071
11174W        W28022   5.523   4.125  13.891 -0.1265 -0.3044  0.1137
11175W        W28023  14.444  13.354   3.266 -0.2203  0.1289  0.0312
11176W        W28024  11.844   3.606   4.010 -0.0981  0.2134 -0.1601
11177W        W28025  17.330  10.091  15.177 -0.0621 -0.0508 -0.1682
11178W        W28026  16.311   9.464  13.028  0.2784 -0.2296  0.0740
11179W        W28027  10.919  12.617  13.453  0.2110  0.0220  0.2843
11180W        W28028   5.791  15.043  12.561  0.4177  0.0701 -0.3009
11181W        W28029  11.569   8.827   4.891 -0.0536  0.0513  0.0574
11182W        W28030  11.765   1.953  13.549 -0.0235  0.2358 -0.3546
11183W        W28031  13.401   3.851  15.006  0.0759 -0.1796  0.1076
11184W        W28032  10.685   3.130  13.740 -0.0633  0.1586  0.2388
11185W        W28033   6.035   5.111   3.419  0.0250  0.0801  0.1483
11186W        W28034   2.640   3.770   4.408  0.0825  0.4273 -0.1841
11187W        W28035  14.405   5.824   6.037 -0.1443  0.0124  0.3217
11188W        W28036   8.757  17.334  13.806  0.0470 -0.1399  0.2834
11189W        W28037   3.409   7.166  14.829 -0.0338 -0.1855  0.2685
11190W        W28038   7.058   2.884   4.051 -0.0191 -0.0181  0.3689
11191W        W28039   0.425  11.104  14.682  0.3893  0.3458  0.1026
11192W        W28040  17.321  13.379  15.546  0.3086 -0.2931  0.0772
11193W        W28041   7.639  13.722  10.154  0.0731  0.0197  0.0801
11194W        W28042  11.011   1.586  14.120 -0.1244 -0.0087  0.4570
11195W        W28043   6.727   2.409  14.922 -0.1577  0.2533  0.3035
11196W        W28044  12.487   0.650   4.451 -0.0317 -0.2967  0.2607
11197W        W28045   6.863  12.361   0.834 -0.1650 -0.1340 -0.0457
11198W        W28046  13.373   6.488  11.281  0.0104  0.0420  0.0730
11199W        W28047  12.409   4.549   4.025 -0.2940  0.1510  0.5714
11200W        W28048  16.667  14.761   3.534  0.0166 -0.0283 -0.5396
11201W        W28049  12.623   6.693   4.451 -0.1533 -0.0218  0.0099
11202W        W28050  15.279  10.696   0.526 -0.2948 -0.2297  0.2623
11203W        W28051   7.190   6.726   2.967  0.0722  0.2251 -0.2071
11204W        W28052  13.062  13.873  14.129  0.1019  0.0413  0.0316
11205W        W28053   3.380   8.472   3.899  0.2960  0.0533  0.0648
11206W        W28054  14.848  16.464  11.680  0.0331 -0.2561 -0.3938
11207W        W28055   5.839  11.093   2.095  0.1026  0.0809  0.0930
11208W        W28056  14.073   3.746  15.264  0.2960 -0.0597  0.0101
11209W        W28057   7.877  11.216   2.438 -0.0320  0.0949 -0.0576
11210W        W28058   3.832   3.443  13.328 -0.3707  0.1288  0.0387
11211W        W28059   3.103   2.085  11.881 -0.0568  0.0158  0.1980
11212W        W28060  10.850  15.082   2.288 -0.0815  0.1805 -0.0814
11213W        W28061  15.489   2.780   4.854  0.0774  0.2909  0.1388
11214W        W28062   6.900  15.995  13.414 -0.1525  0.0403 -0.2824
11215W        W28063   1.691   0.671  13.346  0.0773  0.2123 -0.0343
11216W        W28064   2.041  16.223   4.318 -0.4352 -0.1619  0.2905
11217W        W28065   8.684  17.424   2.325  0.2569  0.2544  0.1957
11218W        W28066   0.799   0.518  12.249 -0.1883  0.0455 -0.2619
11219W        W28067   3.679   1.137   0.388 -0.1202  0.0799  0.0731
11220W        W28068  15.141  10.139  15.565 -0.2009  0.1781 -0.0239
11221W        W28069   1.873   6.650   0.425  0.1705  0.1506  0.1601
11222W        W28070  14.066  14.565   1.800 -0.0190  0.0433 -0.1711
11223W        W28071   8.932   1.194  15.507 -0.3196 -0.0724  0.1314
11224W        W28072  17.682  16.459   3.891  0.0667 -0.1041  0.2751
11225W        W28073  12.343  10.621  13.293  0.0238 -0.0886 -0.1548
11226W        W28074   9.374   3.042  15.622 -0.2841 -0.0664 -0.0053
11227W        W28075   1.576   5.098  13.702 -0.0126 -0.0895 -0.2703
11228W        W28076  11.591   9.955  11.630 -0.1737 -0.1124  0.0089
11229W        W28077  10.374   7.579   0.285 -0.1946  0.1387  0.3103
11230W        W28078   4.679  12.839   5.575 -0.2951 -0.2038 -0.0370
11231W        W28079  12.204   8.218  15.844 -0.0276 -0.1461  0.0696
11232W        W28080   6.574  17.485  15.145  0.1498 -0.3610  0.4379
11233W        W28081   6.910   4.504  16.468  0.0946  0.1753 -0.0574
11234W        W28082  11.694   7.623  12.174  0.1310  0.1702  0.0018
11235W        W28083   3.598  13.811  16.161  0.0585 -0.0307 -0.0720
11236W        W28084  10.966   5.110   4.234  0.0867  0.3944  0.0179
11237W        W28085  15.731   3.797   3.440 -0.0477 -0.0685  0.1723
11238W        W28086  11.718   2.530   4.689  0.3944  0.0780 -0.0115
11239W        W28087   0.824   3.691   2.065 -0.0967 -0.2809  0.0641
11240W        W28088  10.597  10.908  13.286  0.0522  0.2251 -0.0557
11241W        W28089  17.444   5.954   4.918  0.2803  0.0695  0.0486
11242W        W28090  17.829  17.399  16.580 -0.1352  0.2424 -0.1815
11243W        W28091   0.389   1.132   4.325 -0.0373  0.0505 -0.1109
11244W        W28092  16.378   2.931  13.991  0.2318 -0.0593  0.0587
11245W        W28093  15.074   1.511  14.013 -0.2543  0.1126 -0.2488
11246W        W28094   4.176  13.496   3.697  0.1928 -0.1034 -0.0937
11247W        W28095  16.431   9.826  11.512 -0.1234  0.1902 -0.2690
11248W        W28096  10.134   6.013   2.562  0.0392 -0.0116 -0.0758
11249W        W28097   3.287   5.029  16.286 -0.0824 -0.0339 -0.3114
11250W        W28098   9.227   8.421  13.722 -0.0856  0.0165 -0.0382
11251W        W28099  16.968  14.340   2.813 -0.0819 -0.2139 -0.1850
11252W        W28100   4.016  11.953  11.680  0.0417 -0.1326  0.3755
11253W        W28101  17.551  13.766   0.459 -0.0102  0.1718  0.1189
11254W        W28102  12.677   4.654  13.605 -0.2257  0.2039  0.0567
11255W        W28103   1.950   0.031  11.883 -0.2858 -0.1993  0.1988
11256W        W28104  14.703  15.157  16.234 -0.1600  0.2803  0.2833
11257W        W28105  11.821  14.266   2.254  0.0515 -0.1689 -0.2233
11258W        W28106   8.162   3.173   3.032 -0.0842 -0.3249 -0.0648
11259W        W28107  17.764  15.164   2.938 -0.0259  0.3938 -0.2690
11260W        W28108  10.088   5.734   4.106  0.1657 -0.1537 -0.3681
11261W        W28109  10.582   1.988   0.457  0.0459 -0.1170  0.3212
11262W        W28110   1.646  14.766  14.663  0.1211  0.0602 -0.1860
11263W        W28111   6.539   4.869   1.142  0.1593 -0.1003 -0.2273
11264W        W28112  10.938  16.601   0.701  0.0686  0.0586 -0.0197
11265W        W28113   5.050   8.356  14.789 -0.0139  0.0463  0.1407
11266W        W28114   4.079   1.792   1.625 -0.3664  0.2246  0.1100
11267W        W28115  10.089  16.356  13.727 -0.3393  0.0181 -0.0057
11268W        W28116   8.410   5.250  14.685 -0.0641  0.3974 -0.0164
11269W        W28117  12.269   4.498   2.408 -0.1436  0.0003  0.2218
11270W        W28118   5.695  17.326  12.182  0.2040  0.0021  0.1068
11271W        W28119  14.625  14.443   4.393 -0.0265 -0.1741 -0.1783
11272W        W28120   5.904   2.180   4.752 -0.1669  0.4584  0.0446
11273W        W28121   4.448   0.257  12.814 -0.2256 -0.1544 -0.3393
11274W        W28122   2.910  11.817  15.782 -0.1673  0.0264  0.1428
11275W        W28123  12.568   3.491  14.857  0.0642  0.0860  0.0631
11276W        W28124   3.626   5.376  13.524  0.0895 -0.0120  0.0405
11277W        W28125   0.223   0.976   1.987  0.1886  0.0367  0.3197
11278W        W28126  10.340  11.756  13.605  0.2383  0.2090 -0.0244
11279W        W28127   3.099   3.246  14.919 -0.2749 -0.1109 -0.1296
11280W        W28128   1.659  12.765  11.673  0.2324 -0.1274 -0.0975
11281W        W28129   2.662   4.046   2.470 -0.2975 -0.2438  0.2508
11282W        W28130   2.161   9.842  13.483 -0.1549 -0.2966 -0.0360
11283W        W28131   1.550   2.073   4.396 -0.0809  0.1215 -0.0526
11284W        W28132   8.413  11.112  16.429 -0.1996  0.2901 -0.5662
11285W        W28133   5.728  11.263  11.878 -0.0197 -0.1536  0.1461
11286W        W28134   7.731  16.465  10.709  0.2731 -0.1392  0.0845
11287W        W28135  13.957  13.993  11.554 -0.0922  0.0869 -0.2252
11288W        W28136   3.715   1.213  14.015  0.1454 -0.2089 -0.0621
11289W        W28137  15.698   0.548  10.529  0.1423  0.1006 -0.0212
11290W        W28138  15.537   0.736   1.416  0.1572 -0.2296  0.2367
11291W        W28139   2.149   1.986  13.811  0.0543  0.2184 -0.3623
11292W        W28140   5.100  10.188  11.685  0.1550 -0.1480 -0.3566
11293W        W28141   5.844   6.367  12.917  0.2246 -0.3137 -0.1364
11294W        W28142   0.135   2.263   2.999 -0.0737 -0.1099 -0.1934
11295W        W28143   0.731   1.549   4.217 -0.0662  0.3912 -0.1000
11296W        W28144   9.659   3.472   0.293  0.1815  0.0513  0.0913
11297W        W28145  13.091  13.867   3.299 -0.1309 -0.2055  0.1843
11298W        W28146   4.807  14.430  14.990 -0.3643  0.3234 -0.1749
11299W        W28147   2.256  11.153   3.415 -0.3378 -0.0770  0.0003
11300W        W28148   8.204   9.572  13.587  0.1425 -0.0199 -0.2580
11301W        W28149   0.494  16.042   4.289 -0.0242 -0.2964  0.2778
11302W        W28150   6.876   2.332  16.035 -0.0099 -0.1723 -0.1521
11303W        W28151   0.684  14.008   0.011  0.2461  0.0322 -0.0466
11304W        W28152   2.886   3.194  13.946 -0.0165 -0.2410 -0.2444
11305W        W28153   1.186   2.175   4.791  0.0339 -0.2065 -0.3814
11306W        W28154   0.553  16.745   5.902  0.0627 -0.2577 -0.1956
11307W        W28155   7.896   4.835  11.281  0.1131  0.1976  0.1352
11308W        W28156  14.379  12.835   3.437  0.2102 -0.2336 -0.2871
11309W        W28157   6.912   4.497  14.433  0.0094 -0.3082  0.1481
11310W        W28158   3.167  16.739   0.980 -0.2064 -0.0045  0.1803
11311W        W28159   9.560   2.179  15.050  0.1088  0.2384 -0.0374
11312W        W28160   9.368  14.544  14.002 -0.2558 -0.1585 -0.0089
11313W        W28161   3.462  11.723   1.857  0.0211 -0.1736  0.0341
11314W        W28162   1.433   8.357  13.787  0.0427  0.1263 -0.2315
11315W        W28163  15.028   9.597  13.475  0.0738 -0.0819 -0.1929
11316W        W28164  11.259   1.244   4.602  0.0249  0.0415 -0.2754
11317W        W28165   4.588   5.354   4.816  0.2115  0.0033  0.0551
11318W        W28166   0.925  15.063   1.986 -0.1955  0.1736  0.0051
11319W        W28167  16.501   5.665   3.865  0.0713  0.2153  0.4001
11320W        W28168  12.213   7.144   3.200  0.0204 -0.1708  0.2449
11321W        W28169  10.937  16.479   1.349  0.3215  0.0750 -0.0651
11322W        W28170   7.303   7.853   4.694 -0.1017  0.0351 -0.0810
11323W        W28171  15.235   7.552   2.498 -0.2283  0.0592  0.0523
11324W        W28172  13.070  11.071  14.506  0.0601 -0.0595  0.2989
11325W        W28173   0.797   2.139  15.011  0.0698 -0.1900 -0.0466
11326W        W28174   1.372   8.161   2.763 -0.2793  0.1509 -0.0385
11327W        W28175   1.879   8.511  13.995  0.0950 -0.2363 -0.0667
11328W        W28176   5.378  13.032   0.722 -0.4299  0.2234 -0.3026
11329W        W28177  10.952   1.283   1.890 -0.4315  0.1781 -0.2385
11330W        W28178  15.407   2.621   3.224  0.1726  0.1008 -0.1085
11331W        W28179   6.098  10.874  11.946  0.1160 -0.1409 -0.1016
11332W        W28180   5.773   2.174  13.056 -0.0862 -0.1228 -0.1763
11333W        W28181   2.792  14.770   5.780 -0.1751  0.2400 -0.1148
11334W        W28182   5.575  11.190   3.609  0.1331  0.3981 -0.0897
11335W        W28183   4.577   2.846  13.283  0.1258 -0.5568  0.4546
11336W        W28184  13.778   0.278  13.141 -0.0406  0.1082  0.1785
11337W        W28185  13.628   9.206   4.428  0.1196 -0.2593  0.0180
11338W        W28186   9.079  16.533   2.543 -0.2008  0.0966 -0.0643
11339W        W28187   3.529  13.062  13.074 -0.1314 -0.0175  0.2201
11340W        W28188   4.351  10.445   1.587 -0.2102  0.2372 -0.3576
11341W        W28189  12.131  17.746   4.149  0.0458  0.0279 -0.1611
11342W        W28190  16.730   6.610   4.026 -0.1325 -0.0229 -0.4531
11343W        W28191  12.947  11.321   0.558 -0.1534  0.2156  0.0946
11344W        W28192   5.948  14.858   1.485  0.0938 -0.0949 -0.3757
11345W        W28193  14.369  14.666  13.157 -0.0098  0.2852  0.4721
11346W        W28194   6.718  14.925  12.053 -0.1002  0.0726  0.0822
11347W        W28195   9.306   3.338  16.527 -0.2205 -0.1148 -0.0756
11348W        W28196   2.790  16.361  16.385  0.1342  0.3883  0.2608
11349W        W28197  15.193   5.525  16.317 -0.0725  0.2773 -0.1152
11350W        W28198   6.266   0.024  11.782 -0.1373 -0.0526 -0.1107
11351W        W28199   7.186  17.423   3.511  0.0965 -0.4126  0.0577
11352W        W28200   9.227   9.552   3.725 -0.0940 -0.0979  0.0395
11353W        W28201   3.001   1.102   2.172 -0.0991 -0.0550  0.0016
11354W        W28202   3.408   3.518   2.309 -0.1768 -0.1166  0.1251
11355W        W28203  11.442  13.762  12.823 -0.0460 -0.1214  0.0902
11356W        W28204   1.554   8.375   4.042 -0.3154  0.1885 -0.3283
11357W        W28205   3.298   4.953  14.810  0.1765 -0.0992 -0.1439
11358W        W28206  17.245   7.220  11.641 -0.1571  0.0094 -0.3122
11359W        W28207  15.876  16.941   4.093 -0.3595  0.0289  0.1178
11360W        W28208   4.797  12.591   0.558  0.1055  0.1048 -0.5497
11361W        W28209  14.046  12.374   5.137 -0.2064 -0.0777  0.2252
11362W        W28210   2.336   3.626  11.547 -0.0503  0.0180  0.1070
11363W        W28211  12.255  17.049  15.959  0.0446 -0.0940 -0.0716
11364W        W28212  13.311  14.944   2.488  0.2143  0.2120 -0.3102
11365W        W28213   4.995   3.095   4.043 -0.0593 -0.1711  0.1176
11366W        W28214  17.567   6.318  11.258  0.2721 -0.0872 -0.1467
11367W        W28215   3.308   4.588   0.541  0.0008  0.2084 -0.2561
11368W        W28216  15.392   9.094   2.163  0.1411 -0.3765 -0.1183
11369W        W28217   7.125  10.055  11.844  0.1521  0.1330  0.0626
11370W        W28218   6.984  16.609   2.432  0.0928 -0.1380  0.1062
11371W        W28219   6.280   4.932  14.282  0.2876  0.0687 -0.2762
11372W        W28220  15.456  16.442  13.029  0.2357 -0.0525  0.2182
11373W        W28221  12.344  12.161  15.627 -0.3219 -0.0003 -0.0636
11374W        W28222   3.482   6.410  12.320  0.1131  0.0813  0.0925
11375W        W28223  17.637   6.941  15.599 -0.0994  0.0510  0.2003
11376W        W28224  16.617  13.984   1.387 -0.0805 -0.2969 -0.3009
11377W        W28225   7.809   8.880  12.444  0.2227 -0.1512 -0.0820
11378W        W28226   0.729  10.700  15.243 -0.2118 -0.1125 -0.0547
11379W        W28227  13.091   4.737  11.760  0.1089  0.3417 -0.1427
11380W        W28228   7.412  16.853   1.205 -0.0213 -0.0119 -0.1417
11381W        W28229   1.513   8.383  12.172 -0.2129  0.0111 -0.1071
11382W        W28230   5.043   3.095  14.586 -0.2897  0.1619 -0.1684
11383W        W28231   1.988  14.427   0.442 -0.0559  0.1413 -0.2334
11384W        W28232   2.132  12.825  13.895 -0.0146 -0.0474  0.0701
11385W        W28233  15.267   5.812   4.842  0.0811  0.2036 -0.1104
11386W        W28234  15.589   9.221   3.684 -0.1488 -0.2045 -0.0970
11387W        W28235  10.321   9.988  14.343  0.1408 -0.3430 -0.2709
11388W        W28236   6.668  13.003   1.735  0.1929  0.1562 -0.0691
11389W        W28237   3.162   1.779  12.688  0.3285 -0.1219 -0.0569
11390W        W28238   4.645  11.968   2.707  0.0981 -0.1369 -0.2064
11391W        W28239   0.453   9.214   0.669 -0.0985  0.0383  0.3761
11392W        W28240   1.757  11.341   3.332  0.1380  0.2447  0.1804
11393W        W28241  16.011  14.070   5.008  0.0221  0.0667  0.0652
11394W        W28242   0.515  17.513  14.430 -0.0446 -0.0852  0.2007
11395W        W28243  14.403   3.025  14.966 -0.2350 -0.0493 -0.0440
11396W        W28244  14.836  10.707   3.342  0.1823 -0.0730  0.1291
11397W        W28245   3.341  11.308   2.098  0.2877  0.0094  0.4046
11398W        W28246   6.823  11.188  10.930  0.0265  0.2392 -0.1031
11399W        W28247   2.548  17.710  12.721  0.0441  0.0975 -0.0550
11400W        W28248   5.644   5.151   0.153  0.0453 -0.1803  0.0300
11401W        W28249   2.747  17.229   0.048  0.0428  0.0193  0.0574
11402W        W28250  10.406  16.438   4.664 -0.2464  0.1946  0.2230
11403W        W28251   7.200  15.341   3.322 -0.4261 -0.2191 -0.1222
11404W        W28252   7.961  10.920   0.125  0.0730  0.0381 -0.2652
11405W        W28253   7.267   8.860  13.137 -0.0765 -0.1302 -0.1552
11406W        W28254  17.724   9.179  13.406 -0.0669  0.0419  0.0768
11407W        W28255  15.717   1.014  15.105 -0.2938 -0.1227  0.1701
11408W        W28256   7.477   4.550  10.408 -0.1206  0.1545 -0.0252
11409W        W28257   9.469   1.993   3.075  0.1525 -0.0903 -0.1046
11410W        W28258   0.056   6.752   1.897  0.1864  0.2048 -0.1173
11411W        W28259   7.036  15.141   0.566  0.0257 -0.1824 -0.0198
11412W        W28260  10.719   9.296   1.242 -0.2986 -0.1524 -0.1966
11413W        W28261  11.819   7.149   4.008  0.0729  0.1890 -0.1892
11414W        W28262   1.572   9.180  13.138  0.1590  0.0212  0.1295
11415W        W28263   1.724   9.611   3.895 -0.1505  0.1143 -0.0019
11416W        W28264  14.327   8.816   1.380  0.0249  0.0265 -0.0898
11417W        W28265  16.122   1.646  14.138  0.0995  0.0610 -0.3726
11418W        W28266   1.028   6.425  11.051 -0.0511 -0.3489  0.0699
11419W        W28267   6.279   5.669  13.723 -0.2494 -0.0355 -0.0090
11420W        W28268   8.645   0.360   1.527 -0.0568 -0.0243 -0.2140
11421W        W28269   7.634   6.273  16.367  0.0838 -0.4065 -0.1171
11422W        W28270   5.111  15.620  13.002 -0.3599 -0.0332 -0.0107
11423W        W28271  16.660   5.793   2.657 -0.0038  0.1176  0.1530
11424W        W28272   3.648  13.671   5.256  0.1758  0.0185  0.0005
11425W        W28273  11.508  13.266   5.051  0.1931 -0.2198  0.1534
11426W        W28274   2.468  10.515  14.899 -0.1577 -0.1028  0.2020
11427W        W28275   2.117   5.615  11.658 -0.0619  0.2247  0.3644
11428W        W28276  10.037   0.694   3.179  0.1567  0.4743 -0.2034
11429W        W28277   6.119  11.502  16.492  0.1773 -0.0600 -0.0680
11430W        W28278   9.023  16.381  14.276  0.0510  0.0513  0.0897
11431W        W28279  16.893  10.766  11.786  0.2713  0.0246  0.0565
11432W        W28280   3.384  12.029   4.937 -0.2944 -0.0173 -0.0589
11433W        W28281  12.857   1.738  15.334 -0.1635  0.0180 -0.0111
11434W        W28282   8.506   9.263   0.429 -0.2786  0.1789  0.0238
11435W        W28283  15.171  16.840  15.899  0.2013  0.1494  0.2091
11436W        W28284   4.656  12.977   0.141 -0.0927  0.3180 -0.0671
11437W        W28285  16.399   9.284  14.513 -0.1022 -0.1221  0.1201
11438W        W28286  16.888  16.127  14.317  0.4451 -0.0331 -0.0235
11439W        W28287  12.726   8.105   2.620 -0.1123 -0.0275  0.1191
11440W        W28288   6.508   0.615  12.413 -0.0602  0.3169  0.0027
11441W        W28289  15.589   6.292  14.284  0.2056 -0.0344  0.1757
11442W        W28290   3.791  15.238   1.883 -0.5024 -0.0340  0.1564
11443W        W28291   1.636   2.447   4.842  0.4542 -0.3548 -0.1764
11444W        W28292   3.883  17.466   3.806  0.1717 -0.0581 -0.0505
11445W        W28293   8.473   1.929  11.579  0.2285 -0.0027  0.2504
11446W        W28294  14.250  10.597   0.341  0.1169 -0.1187  0.0589
11447W        W28295  11.255  16.978   0.681 -0.3174 -0.0780 -0.0279
11448W        W28296   8.905   7.854  14.511 -0.2464 -0.1032  0.2750
11449W        W28297   8.965   7.147   2.618 -0.1082 -0.2850  0.0166
11450W        W28298  12.192   7.478   0.123 -0.0318 -0.0464 -0.0682
11451W        W28299   1.605   0.611  16.453  0.0377 -0.0471 -0.0654
11452W        W28300  10.063  11.682  16.498  0.2240  0.2987  0.2020
11453W        W28301  16.057  11.091   0.615 -0.2091 -0.2200  0.2198
11454W        W28302   3.890  17.227   1.937 -0.2497  0.1885  0.3859
11455W        W28303   4.031   8.165  14.086  0.0209 -0.1916  0.1592
11456W        W28304  16.499   0.411  14.002  0.1835 -0.2093  0.1966
11457W        W28305  11.621  10.184   3.198  0.0788  0.0495 -0.2050
11458W        W28306   5.743   9.854  14.122  0.1121 -0.1140  0.0983
11459W        W28307  13.100   8.135  12.301 -0.0083 -0.2892  0.2464
11460W        W28308  13.196  14.395  13.358 -0.2434 -0.2290 -0.0065
11461W        W28309  16.125   0.891   3.814 -0.4317 -0.0034  0.2935
11462W        W28310   6.201   3.393  11.276  0.0904 -0.2212  0.0719
11463W        W28311   6.583   5.936  14.818  0.1588  0.2695  0.1966
11464W        W28312   6.775  16.783   4.750 -0.0819 -0.1190 -0.0696
11465W        W28313   5.480   6.043   5.806  0.1536 -0.1817  0.0111
11466W        W28314   7.983   3.900  12.118  0.1554 -0.1845  0.3521
11467W        W28315   3.915   8.991   1.826 -0.0657 -0.0222 -0.0489
11468W        W28316  11.441   9.084  12.270  0.0806 -0.4412 -0.1414
11469W        W28317   9.956   5.560  12.812 -0.1527 -0.0558 -0.0571
11470W        W28318   7.881  17.047  13.866  0.0858 -0.2480 -0.2396
11471W        W28319   1.416  13.196  13.131  0.1053 -0.3030 -0.0896
11472W        W28320   7.680  13.469  16.006  0.0310 -0.3894 -0.0861
11473W        W28321   0.352   8.460  15.173  0.2939 -0.2261  0.2120
11474W        W28322  16.932   2.657  12.553 -0.0589 -0.2654 -0.1216
11475W        W28323  11.119  13.652  13.670 -0.0654 -0.0702  0.4122
11476W        W28324   5.081  11.538   1.896  0.2569 -0.0660  0.0867
11477W        W28325   7.322  15.269  14.872 -0.1311 -0.1603  0.1188
11478W        W28326   2.260  16.763   4.323  0.0026  0.2661  0.0248
11479W        W28327   3.514  17.464   0.938 -0.2589  0.0796  0.1923
11480W        W28328   5.155  12.007   3.529 -0.1330  0.2044 -0.0968
11481W        W28329  13.713   5.810  12.508 -0.0254  0.1649  0.3113
11482W        W28330  11.768   0.055   0.368  0.4048  0.0727  0.0814
11483W        W28331  12.945   6.357  12.589 -0.1121 -0.0429  0.1619
11484W        W28332  13.868  14.600  13.971 -0.1984  0.1005  0.1298
11485W        W28333   4.730   5.952   4.791 -0.1452  0.2115  0.5957
11486W        W28334   7.342  11.444   0.706 -0.1307 -0.0217 -0.3178
11487W        W28335  10.354  10.531   3.864 -0.1994 -0.1196  0.0745
11488W        W28336   9.604  16.461  16.390 -0.1433 -0.2167 -0.2328
11489W        W28337   6.559  10.673  12.879 -0.2052 -0.0937 -0.2006
11490W        W28338   9.036  11.269  11.870  0.2520  0.0949 -0.1010
11491W        W28339   9.616   1.986  15.511  0.3067  0.1023 -0.3918
11492W        W28340  11.854   1.133  14.227 -0.0131  0.1836  0.1474
11493W        W28341   4.066  16.531   2.917  0.0409 -0.0132  0.3527
11494W        W28342  15.650   0.848  14.064 -0.1542  0.2922  0.0201
11495W        W28343  16.852   3.019  14.104  0.0451  0.0972 -0.0398
11496W        W28344   4.475   4.030  13.858 -0.3146 -0.0917  0.1090
11497W        W28345  17.275   9.364   4.157 -0.2466  0.2650  0.0266
11498W        W28346  14.175  13.214  15.200 -0.0674  0.1984  0.0708
11499W        W28347  17.716   0.863   0.720 -0.0110 -0.5387  0.0271
11500W        W28348   0.621  10.147   2.991 -0.1003 -0.2301 -0.0725
11501W        W28349   1.064   1.948  12.994 -0.2356  0.2323  0.1967
11502W        W28350  14.916   6.843   3.237 -0.1036 -0.0032 -0.0346
11503W        W28351   3.091  16.337   3.314  0.1259 -0.0266 -0.1339
11504W        W28352   1.568   8.306   2.277  0.0187  0.1181  0.0229
11505W        W28353  13.557   1.093   2.408 -0.0776 -0.0916 -0.1907
11506W        W28354  11.129  16.771  13.117 -0.0060  0.1043  0.0869
11507W        W28355  16.504  16.050  12.669  0.5059  0.0181 -0.0849
11508W        W28356  10.078  15.423  14.757  0.2470  0.2256 -0.1050
11509W        W28357  16.212   0.702  12.042  0.2765  0.0252 -0.1550
11510W        W28358  11.126  11.517   5.209  0.0842 -0.0600  0.0162
11511W        W28359   6.954  10.655  12.632 -0.3630  0.0564 -0.1183
11512W        W28360  16.333   5.006  11.116  0.2428  0.0206 -0.2263
11513W        W28361   4.663   2.069   1.567  0.0033 -0.0265  0.1418
11514W        W28362   2.857   2.030   3.725  0.4493  0.0500  0.0210
11515W        W28363   9.693  14.535  15.456  0.4060  0.1531  0.1278
11516W        W28364   9.085   4.683  13.257  0.1590  0.0971 -0.0032
11517W        W28365  16.868  10.324  13.291 -0.0992 -0.0652  0.3864
11518W        W28366   3.124  16.076   2.371  0.0180  0.1955 -0.2590
11519W        W28367   7.172  14.960   4.155 -0.1201  0.0403 -0.0865
11520W        W28368   6.949   7.035  14.931 -0.2443  0.2627  0.0470
11521W        W28369   3.435   7.934  12.040 -0.3191 -0.2682  0.1368
11522W        W28370   4.184   3.122  13.030  0.1019  0.1709 -0.4466
11523W        W28371   2.085  16.532  14.148 -0.1252 -0.2534  0.2466
11524W        W28372  15.686  10.837   5.190  0.1446  0.3034  0.0795
11525W        W28373  14.298  14.225  14.309  0.1009 -0.0746 -0.0437
11526W        W28374  12.487  16.065   0.883 -0.0138 -0.0985 -0.1543
11527W        W28375   4.796  17.390  13.220  0.1231 -0.4445 -0.1970
11528W        W28376  11.629  11.784   4.612  0.1189 -0.1711  0.3000
11529W        W28377  17.341   8.277   0.796  0.0908  0.1559 -0.0592
11530W        W28378   8.555   1.110   4.703  0.3719 -0.0613 -0.1327
11531W        W28379   2.509  11.647   3.416 -0.3224 -0.2961 -0.0127
11532W        W28380  14.327   4.745   5.626 -0.2850 -0.0135  0.1389
11533W        W28381  12.055   3.617   4.554 -0.0336 -0.2508 -0.3045
11534W        W28382   0.577   4.984  14.613 -0.0073  0.4520  0.0827
11535W        W28383   7.730   3.550  16.185 -0.2977  0.0530  0.0048
11536W        W28384  13.983   5.616  15.697 -0.0721 -0.0586  0.2236
11537W        W28385   0.499   1.286  14.099  0.1232  0.1210  0.0693
11538W        W28386   9.579  11.927   5.860  0.2033 -0.0086 -0.2503
11539W        W28387   6.657   3.346   5.825 -0.1067 -0.3306  0.0086
11540W        W28388   9.199   7.889   2.959  0.1707  0.0491  0.0790
11541W        W28389  10.161  14.559  11.656 -0.2861  0.0554 -0.0582
11542W        W28390   5.444   9.825   3.462 -0.0284 -0.0217  0.1227
11543W        W28391   7.899  13.003  13.308 -0.1790  0.0847 -0.1833
11544W        W28392   0.472   4.203   2.800 -0.0497  0.5507  0.0753
11545W        W28393  15.174  14.940  12.896 -0.1837  0.0048 -0.1077
11546W        W28394   9.978  14.237   4.692 -0.1097  0.0736 -0.1827
11547W        W28395  15.163   3.037   6.257  0.3198 -0.0840 -0.1572
11548W        W28396  13.574   1.037  14.355 -0.0744  0.1630  0.1897
11549W        W28397  15.035   4.386   1.275  0.1797  0.2062  0.2768
11550W        W28398  11.277  15.444  11.653 -0.2563  0.0342  0.0122
11551W        W28399   7.289   2.928   3.062 -0.0013  0.2217 -0.2214
11552W        W28400   0.114  14.681   0.202 -0.2691 -0.2149  0.0912
11553W        W28401  17.676   3.714  13.132 -0.0935  0.0355 -0.2696
11554W        W28402  17.503  12.151  12.815 -0.1814  0.0948 -0.2264
11555W        W28403   2.455  13.231   0.628  0.0579  0.0843 -0.0704
11556W        W28404  10.474   3.451   0.611 -0.2088  0.3168 -0.0596
11557W        W28405   4.970   2.562  12.503 -0.4460 -0.2314  0.0638
11558W        W28406  17.686   3.952  14.733  0.3914 -0.0572 -0.0167
11559W        W28407  12.754  17.505   2.140  0.0728  0.1057 -0.1679
11560W        W28408  12.843   9.191   0.674  0.0254  0.0018 -0.1717
11561W        W28409   6.282  13.689  13.135  0.0436  0.0181 -0.2657
11562W        W28410  11.690  10.685   1.627 -0.0415 -0.3225 -0.0341
11563W        W28411   9.284   4.915  14.202  0.3702  0.1071 -0.1957
11564W        W28412   6.608  11.673   4.472 -0.2387  0.3182  0.1524
11565W        W28413   3.618   3.039  11.785 -0.0981  0.3102 -0.0549
11566W        W28414  13.165   7.212   1.378  0.0352  0.2906 -0.0261
11567W        W28415  14.006   8.408   4.265 -0.2293 -0.0809  0.1023
11568W        W28416   7.292   2.120   2.962  0.0146  0.5436 -0.0378
11569W        W28417  17.235  14.432   1.669  0.0399  0.0327  0.1945
11570W        W28418   8.940   5.544  13.674 -0.3423  0.0883 -0.1540
11571W        W28419   2.293   1.270   0.206 -0.2475  0.1301  0.3510
11572W        W28420   0.757  11.821   1.954 -0.3420 -0.2134 -0.2007
11573W        W28421   5.899  12.977   5.723 -0.0318 -0.1197  0.1002
11574W        W28422  15.116  17.803   1.921 -0.1888 -0.2063 -0.2833
11575W        W28423   5.147   2.207  13.692 -0.3146 -0.0235 -0.2205
11576W        W28424   9.917   1.366   4.163  0.1063 -0.1558  0.2652
11577W        W28425  15.519   0.237   3.266 -0.0300  0.3014  0.0886
11578W        W28426  15.771   6.012  12.030 -0.0797 -0.1312  0.1750
11579W        W28427   9.140   5.126  13.410 -0.1086  0.0800 -0.1137
11580W        W28428  12.544  10.514   3.349 -0.2270  0.0376 -0.0619
11581W        W28429  11.293   5.025   3.456 -0.0662  0.1869  0.1972
11582W        W28430  11.127  13.066   2.530  0.1892 -0.0151  0.3021
11583W        W28431  16.815  10.164   2.912 -0.2323  0.0756  0.2746
11584W        W28432   2.905   2.028  12.358  0.1326  0.1451 -0.0701
11585W        W28433   4.608  15.423   1.150 -0.1782 -0.0203  0.1610
11586W        W28434   3.765  17.091  14.061 -0.4087 -0.1948 -0.2872
11587W        W28435  16.587  13.601  11.766  0.1027 -0.0402 -0.0487
11588W        W28436   2.586   4.531   2.410  0.0279  0.3097 -0.1008
11589W        W28437   1.960   2.175  12.515 -0.0223 -0.1664  0.3430
11590W        W28438   1.995   1.213  13.320 -0.1294 -0.2279  0.0748
11591W        W28439  10.886   5.592  11.562 -0.2133 -0.1204 -0.1789
11592W        W28440  17.003  14.959  14.506  0.2505  0.3012  0.2635
11593W        W28441  14.442   8.653   2.027 -0.0236 -0.0784  0.1942
11594W        W28442   2.832   7.286  16.549  0.2629  0.1645 -0.0376
11595W        W28443  12.088  15.410   5.202  0.1751  0.3298 -0.1310
11596W        W28444   9.751  10.273   0.861 -0.3199  0.1910 -0.1795
11597W        W28445   9.617   9.902  15.398 -0.2152  0.1131 -0.0793
11598W        W28446   1.308   8.604   0.539  0.0263 -0.2650 -0.3258
11599W        W28447   9.562   6.481   3.155 -0.0937 -0.3067 -0.0314
11600W        W28448  17.184  11.703   4.898  0.2157 -0.1428 -0.0918
11601W        W28449   4.735  15.838   2.940  0.0947  0.1037  0.2298
11602W        W28450   0.524  11.860  13.520  0.1292  0.1108 -0.1954
11603W        W28451  15.770  13.317  11.994 -0.0207 -0.0511 -0.0866
11604W        W28452   3.109   9.380   5.005 -0.3273 -0.1242 -0.0845
11605W        W28453   7.889   7.541   5.246 -0.1409  0.0533 -0.1088
11606W        W28454   5.560  12.454  12.460 -0.1428 -0.1961  0.0038
11607W        W28455   6.549   5.784   1.735  0.1735  0.6165  0.0556
11608W        W28456  13.360   0.924   0.155  0.2213 -0.3422  0.2598
11609W        W28457  13.542   0.941   1.482 -0.1382  0.0510 -0.3009
11610W        W28458  15.877   8.328  16.535  0.3197 -0.0619  0.3678
11611W        W28459   8.180  11.742  14.341 -0.0239 -0.0754  0.2080
11612W        W28460  10.189  12.020  12.822  0.0499  0.3397  0.1246
11613W        W28461  15.665   7.892   1.783  0.3315 -0.1150  0.3372
11614W        W28462   0.385  17.702  16.631 -0.1394 -0.1980 -0.4941
11615W        W28463   7.184   3.759   1.708  0.4592  0.3245  0.4794
11616W        W28464   3.706   4.947   1.433 -0.0579  0.0800 -0.1171
11617W        W28465  11.529  12.441   0.399 -0.0501  0.0507  0.0427
11618W        W28466   9.892  11.915   1.892  0.3807 -0.0609 -0.1644
11619W        W28467   8.820   5.159  14.943  0.1411  0.1233 -0.0136
11620W        W28468   7.851   8.767   4.594 -0.4036  0.3138  0.0956
11621W        W28469   1.687   5.970   3.107 -0.0566 -0.3282  0.0226
11622W        W28470   4.413   8.906   3.212 -0.2153 -0.0330  0.1329
11623W        W28471   4.016  16.107  14.731 -0.1265  0.0701  0.2304
11624W        W28472   6.866   7.554   2.143 -0.3090  0.1237 -0.0505
11625W        W28473   6.897   8.397  12.427 -0.2237 -0.1234 -0.0141
11626W        W28474   3.068  17.233  11.839  0.0816  0.1437 -0.0036
11627W        W28475   0.007   8.933   4.845  0.0242 -0.0061  0.1621
11628W        W28476   9.121   8.235  11.040  0.0548  0.0252  0.2119
11629W        W28477  11.180  12.849  14.319  0.2544  0.2612  0.2293
11630W        W28478   7.322   9.688  13.866  0.1840 -0.1978 -0.0972
11631W        W28479   8.686   7.722   0.748  0.0366  0.0131  0.1427
11632W        W28480   3.079   6.059   1.262  0.2545  0.1432  0.0694
11633W        W28481   6.451   5.484   2.631 -0.0971 -0.0376 -0.1031
11634W        W28482   4.185   0.847   2.492  0.1384  0.6582 -0.0460
11635W        W28483   6.874  11.481  11.959  0.0642  0.0876  0.2880
11636W        W28484  13.681   1.110  12.893  0.0577  0.1395  0.0447
11637W        W28485  10.233  15.942   4.791 -0.2014  0.1875  0.1842
11638W        W28486  11.931  15.845  14.926  0.0714 -0.1662  0.1939
11639W        W28487   8.846   7.717  11.212  0.0368 -0.1598 -0.2733
11640W        W28488  12.236   7.505   1.704  0.3398  0.0520  0.1239
11641W        W28489   3.784   4.890   4.732  0.0431 -0.1089  0.0399
11642W        W28490  15.504   9.198   3.068 -0.0746 -0.1089 -0.1740
11643W        W28491   6.069   5.429   4.196  0.1036 -0.3190 -0.0488
11644W        W28492   9.242  10.795  13.334 -0.0349  0.1984 -0.1495
11645W        W28493   9.442  17.496  15.153  0.0976  0.2103  0.0967
11646W        W28494  12.799  15.768   3.734 -0.0448 -0.0825 -0.0497
11647W        W28495   5.813   5.511  15.205 -0.1196  0.0632  0.1662
11648W        W28496  11.496   5.391   1.587  0.3665 -0.1697 -0.1493
11649W        W28497  17.480   1.610   2.164 -0.0727 -0.0259  0.0584
11650W        W28498   0.062   6.552   0.537 -0.0019 -0.0294 -0.0532
11651W        W28499   0.207  17.561  14.807 -0.3286 -0.0278  0.2882
11652W        W28500  11.712   9.527  11.956  0.2624 -0.1652 -0.1675
11653W        W28501   3.472   0.428  15.290 -0.0228  0.0980 -0.0443
11654W        W28502  13.274   9.604   1.714  0.0220  0.0086  0.0625
11655W        W28503   7.429   5.872  14.144  0.1301 -0.2509  0.1058
11656W        W28504  15.615  17.760   6.434 -0.0372  0.0493 -0.0259
11657W        W28505   3.882  17.507   5.033 -0.1257  0.0888 -0.3952
11658W        W28506   5.517   5.428   4.128 -0.3094 -0.1239 -0.1962
11659W        W28507   2.416  13.012   2.754  0.1719 -0.1838  0.0316
11660W        W28508  15.622   6.934   2.043 -0.1287 -0.2239 -0.1212
11661W        W28509   9.962  11.882  13.962  0.0496 -0.2387 -0.0074
11662W        W28510   2.689   2.754  15.553 -0.1176 -0.2835  0.3320
11663W        W28511  11.447   8.839   0.530  0.0179  0.3949  0.1835
11664W        W28512   7.831   4.435  12.033 -0.0091  0.0489  0.0148
11665W        W28513   1.760  16.172  12.376 -0.0927 -0.0915 -0.1931
11666W        W28514  10.649   1.107  12.392 -0.0713  0.0752  0.1873
11667W        W28515  13.686  14.702  12.668 -0.3693 -0.4112  0.0696
11668W        W28516   7.003   7.380   0.876 -0.0199 -0.3039 -0.0892
11669W        W28517   9.267   0.962   3.190 -0.1222  0.0759 -0.0632
11670W        W28518  16.617  10.902   2.507  0.1543  0.1766 -0.2942
11671W        W28519  13.577   5.379  15.532  0.2248 -0.1745  0.0148
11672W        W28520  17.173  12.716  15.066 -0.3793 -0.1808 -0.1141
11673W        W28521   0.636   0.336  14.302 -0.2633 -0.1575 -0.1204
11674W        W28522  13.162   1.346   2.496 -0.3008 -0.3008 -0.0517
11675W        W28523   9.100   8.820  12.352  0.0669  0.0603 -0.0288
11676W        W28524   5.971   7.213   2.468  0.2713  0.3523  0.0414
11677W        W28525  10.642  10.895   4.008  0.2042  0.3117  0.1133
11678W        W28526   1.093  16.120   1.926  0.1690  0.1394 -0.1910
11679W        W28527   5.388   3.988  13.384 -0.0079  0.0889 -0.0011
11680W        W28528   8.377  12.242  10.234  0.0715 -0.3214  0.1056
11681W        W28529  14.750   7.404  15.546  0.1705 -0.1045 -0.2000
11682W        W28530   4.483  17.742   1.655 -0.0988  0.1595 -0.0867
11683W        W28531  11.660  15.553   4.461  0.1661  0.1699 -0.0828
11684W        W28532  15.110   6.372  12.984 -0.2735  0.0099 -0.0922
11685W        W28533   5.944  13.887  14.730 -0.0425  0.0393 -0.0955
11686W        W28534  10.864  14.285  16.072 -0.0455 -0.0792  0.0699
11687W        W28535   7.836   3.606   1.437 -0.1272  0.2722 -0.0608
11688W        W28536  16.853  14.433   1.094  0.2271  0.0196  0.0615
11689W        W28537  12.358   3.100  13.481  0.3636 -0.1240  0.1718
11690W        W28538   5.942   8.765   2.870  0.0919 -0.1296  0.0011
11691W        W28539  12.217   0.919  12.382  0.3065 -0.2629  0.3028
11692W        W28540   5.498  17.634   4.922  0.0240 -0.1576  0.3700
11693W        W28541   1.777   3.673   5.676  0.2614  0.1979  0.1212
11694W        W28542   3.944  13.653   5.599 -0.1494  0.3518 -0.3520
11695W        W28543   0.408  14.710   2.751  0.4076  0.0709  0.0830
11696W        W28544   9.749   2.552   3.693  0.0352 -0.0049  0.1660
11697W        W28545  14.309   7.374  14.721  0.4600 -0.2259 -0.0074
11698W        W28546   2.121   0.485  16.408 -0.1303 -0.2665  0.1034
11699W        W28547  15.915  12.832   0.971  0.1057 -0.1234  0.0141
11700W        W28548  12.741  16.067  16.087 -0.1037 -0.1408 -0.0667
11701W        W28549   0.719  10.332   2.329  0.1197  0.0962 -0.4936
11702W        W28550   7.908  17.206   4.292 -0.0413  0.3452  0.0296
11703W        W28551   3.242  14.478   1.672  0.0197 -0.0311 -0.3015
11704W        W28552  12.458   3.600  13.362 -0.1321  0.0550 -0.1247
11705W        W28553  13.347   3.871  15.939 -0.0271  0.0714  0.3292
11706W        W28554  13.551   5.015   0.235 -0.2212  0.3565 -0.2706
11707W        W28555  17.127   2.441   3.963  0.3237  0.1628  0.0244
11708W        W28556  16.431   5.271   1.430 -0.3560  0.1532  0.1626
11709W        W28557  13.506   5.107   1.234 -0.3720  0.3216  0.1012
11710W        W28558   3.572   9.208   0.317  0.0196 -0.1010 -0.1265
11711W        W28559  10.611   1.604  12.057 -0.0312  0.1961 -0.2329
11712W        W28560  10.484   6.243  15.955 -0.0515  0.1985  0.2549
11713W        W28561   5.310   3.592  14.763 -0.0942 -0.1280  0.2347
11714W        W28562   8.007  13.828  11.905 -0.0451  0.1062 -0.0491
11715W        W28563   0.790  12.112  15.491 -0.3196  0.2495  0.1648
11716W        W28564  13.803   0.712   5.374 -0.0155 -0.4463  0.0846
11717W        W28565  14.476   5.206   2.689  0.1781 -0.0572 -0.1062
11718W        W28566   3.488  13.405  16.393  0.2365 -0.1411  0.2046
11719W        W28567  11.349   1.054   2.577  0.1096 -0.2185  0.1612
11720W        W28568  14.632  14.487  13.564 -0.1520 -0.0725 -0.2107
11721W        W28569  17.085   1.980  13.019  0.2606 -0.3467  0.0354
11722W        W28570   1.266  14.013   2.674 -0.1384  0.1108  0.4631
11723W        W28571  13.109  11.188  12.494  0.2627  0.2334 -0.1340
11724W        W28572   1.998   0.498  13.729 -0.2103  0.0822 -0.0424
11725W        W28573   4.946  17.405   0.177 -0.0545  0.1500 -0.1662
11726W        W28574   3.472   3.864   5.395 -0.2602  0.1534  0.1384
11727W        W28575  14.898  13.513   1.779  0.1168 -0.0588  0.1681
11728W        W28576   0.482   5.163   4.277 -0.2747  0.1657  0.1726
11729W        W28577  14.218   1.541   0.961 -0.0222 -0.0928  0.0201
11730W        W28578  10.761  12.176   0.698 -0.1117  0.0833  0.1070
11731W        W28579   3.041  17.297   2.737  0.1131  0.0418 -0.0612
11732W        W28580  16.180   5.461  14.443  0.0681 -0.1150 -0.1514
11733W        W28581   6.348  12.254  13.559 -0.0336 -0.2768 -0.0898
11734W        W28582   5.553  15.208  13.562 -0.0258  0.0083  0.1789
11735W        W28583   6.349   0.125  12.261 -0.0590 -0.0061 -0.5998
11736W        W28584   6.182  16.006   3.408 -0.2796 -0.2124  0.4048
11737W        W28585  17.210  17.506  12.270 -0.3686 -0.2245 -0.0244
11738W        W28586  16.649  12.043  12.762 -0.1828 -0.1140  0.1995
11739W        W28587  16.403   8.715  11.556 -0.1164  0.1584 -0.3160
11740W        W28588   9.248   5.494  15.002  0.1536 -0.0317  0.0457
11741W        W28589  13.161  11.979  12.779 -0.0399  0.3065 -0.0258
11742W        W28590   6.435   4.692  15.267 -0.0013  0.1269  0.2895
11743W        W28591  10.814   6.739   1.388  0.0366 -0.0479  0.0122
11744W        W28592  13.919  14.881   4.209  0.2271  0.1054 -0.1914
11745W        W28593   0.044   4.875   2.192 -0.1607 -0.0057 -0.0335
11746W        W28594  13.310  17.453   0.100  0.0715  0.0133 -0.2067
11747W        W28595  14.288  16.251   5.671 -0.1964 -0.2655 -0.0858
11748W        W28596   7.185   1.439   1.778  0.0771 -0.0151  0.2821
11749W        W28597  15.958  12.665   5.536  0.0477  0.0096  0.0417
11750W        W28598   8.598  13.190  12.231 -0.2066 -0.1139 -0.0222
11751W        W28599  13.489   3.019  11.559  0.0683 -0.1749 -0.0218
11752W        W28600   2.269   0.723  15.976 -0.2010  0.3734  0.1560
11753W        W28601   1.823  10.860  13.081 -0.2985 -0.0937  0.0552
11754W        W28602  14.814   8.385  13.976  0.1751 -0.0906 -0.3729
11755W        W28603  13.149   1.326   4.579  0.0669 -0.3106 -0.1856
11756W        W28604   1.969  12.350  14.257 -0.1257 -0.5758 -0.1199
11757W        W28605  17.040  16.142  16.631 -0.2584 -0.0698 -0.2613
11758W        W28606   3.643   5.967  12.264 -0.1972  0.2362  0.0240
11759W        W28607  10.866  17.228   0.325 -0.3318  0.0839  0.2840
11760W        W28608   3.248  14.751  13.262 -0.0694  0.0252 -0.0067
11761W        W28609   7.772   5.937  10.604  0.0935 -0.0966  0.2002
11762W        W28610   0.013   7.080  12.412 -0.0436  0.0449  0.3611
11763W        W28611   8.043   0.763   1.006 -0.1910 -0.2889  0.0377
11764W        W28612   5.343   3.786   2.556 -0.0114 -0.0495 -0.1784
11765W        W28613   6.372   1.946  15.591  0.0706  0.0758 -0.0615
11766W        W28614  10.860   9.226  16.412  0.1603 -0.2520  0.0444
11767W        W28615   7.524  12.783   3.154 -0.2671  0.0776  0.1592
11768W        W28616   0.563   6.156   1.411 -0.0046 -0.0759 -0.1864
11769W        W28617  17.176   8.109   4.722 -0.1302  0.1104 -0.2629
11770W        W28618   7.037   3.643  15.533 -0.0769  0.1611 -0.1884
11771W        W28619   5.153  13.120  14.209  0.0876 -0.2373 -0.0117
11772W        W28620   0.066  15.570  10.283 -0.0595 -0.2956 -0.0833
11773W        W28621   4.734   4.568   4.514 -0.0833  0.0239  0.0440
11774W        W28622   4.038  16.525   1.451 -0.0042 -0.0458  0.1472
11775W        W28623  15.176   7.101  14.905  0.1162 -0.2280  0.0566
11776W        W28624   0.096  11.042   1.704 -0.1322  0.1844 -0.1229
11777W        W28625   7.436  10.250  14.654  0.1106 -0.1062 -0.0849
11778W        W28626   9.237   4.251  12.214  0.0062 -0.0110  0.0494
11779W        W28627   3.633  14.301   1.325  0.1349 -0.1189  0.1651
11780W        W28628   3.339   1.759   1.282 -0.0554  0.1657  0.0625
11781W        W28629   2.350   7.432   0.072 -0.2851  0.2094 -0.1151
11782W        W28630   2.016   6.424  11.800  0.2999  0.2096 -0.0117
11783W        W28631   1.607   7.862   1.541 -0.0053 -0.0389  0.3079
11784W        W28632  14.460   9.742   3.389 -0.0030 -0.0918  0.2483
11785W        W28633  12.687   1.923   1.437 -0.0054 -0.1595 -0.0114
11786W        W28634   8.098   7.263   2.396 -0.0509  0.4055 -0.0947
11787W        W28635  15.149  12.045   4.787 -0.0631  0.1987  0.0790
11788W        W28636  10.416   7.557  13.901 -0.4565  0.0854  0.0852
11789W        W28637   1.418  15.445  13.703  0.0541  0.1397 -0.1352
11790W        W28638   9.521  11.737   0.026  0.0596  0.0681 -0.1273
11791W        W28639  16.478   7.626  12.353  0.4048 -0.0143 -0.2535
11792W        W28640   3.730   6.793   4.475  0.0283 -0.0866 -0.0884
11793W        W28641  14.114  13.139   2.466 -0.1078 -0.2372 -0.0967
11794W        W28642   0.786   6.416   0.256 -0.2181 -0.2662  0.1204
11795W        W28643   9.856   5.521  13.313 -0.3558 -0.0336  0.1582
11796W        W28644   4.738   3.220  12.442 -0.2458  0.2032 -0.1811
11797W        W28645   9.975   9.720  15.725 -0.0633 -0.3104 -0.3201
11798W        W28646   5.066   5.268   1.283  0.0615  0.2429 -0.0235
11799W        W28647   6.964   0.165   1.042 -0.2676  0.1076  0.3444
11800W        W28648  15.321  14.171   0.184 -0.2774  0.0325  0.1490
11801W        W28649   1.553  17.411   0.496 -0.0120  0.2953  0.0642
11802W        W28650   1.247  16.177   1.433  0.1780 -0.0529  0.0915
11803W        W28651   6.244   9.603  16.159 -0.2036  0.0828  0.0610
11804W        W28652   8.332   3.078   3.749  0.0203 -0.0814  0.1560
11805W        W28653   6.478  15.045   1.492 -0.4306  0.1002  0.3608
11806W        W28654  14.071   1.068   2.367 -0.1134 -0.0340 -0.0457
11807W        W28655  12.692   1.426  12.280 -0.0321 -0.1082  0.0173
11808W        W28656  13.491   0.458   2.749 -0.0187 -0.2373  0.1575
11809W        W28657   6.117   1.730  14.704 -0.0977 -0.1215  0.2855
11810W        W28658  16.317   8.164  12.100  0.1980 -0.1013  0.2592
11811W        W28659   2.113   7.062  14.404  0.0662 -0.2086 -0.0890
11812W        W28660  12.378  14.768   3.319 -0.2048 -0.1600 -0.1710
11813W        W28661   8.568  16.473   4.405 -0.1965 -0.1653 -0.0664
11814W        W28662  15.522   1.774  12.642 -0.1199  0.1954  0.0003
11815W        W28663  11.718   9.243   0.123  0.3034 -0.1824  0.1577
11816W        W28664  13.197   5.098   3.114 -0.2974  0.2960  0.1713
11817W        W28665  13.773  10.913  16.161  0.3347 -0.1231  0.1824
11818W        W28666   7.696   9.357  16.275  0.1272  0.2532 -0.5025
11819W        W28667   0.831   2.783  12.274  0.1102  0.2754 -0.2857
11820W        W28668   9.659  17.585  14.384 -0.1247  0.1451 -0.0725
11821W        W28669   6.551   2.027   0.353  0.0470  0.1965 -0.0498
11822W        W28670  16.124  16.414   6.246  0.0412  0.1718 -0.2120
11823W        W28671  15.224  13.408  11.884 -0.0445  0.1616  0.0948
11824W        W28672   4.318  13.608   5.271 -0.2027  0.1368 -0.2002
11825W        W28673   3.156   5.261  14.121 -0.0032 -0.2553 -0.0196
11826W        W28674  11.578   7.654  15.472 -0.1361 -0.4186 -0.0965
11827W        W28675   3.187   1.063   0.248  0.0305 -0.1911 -0.1536
11828W        W28676   9.249  15.726  15.187  0.0177 -0.2669 -0.0403
11829W        W28677   4.352  12.321   2.296  0.1637 -0.0053 -0.3534
11830W        W28678   2.525   4.373  11.010  0.1289 -0.1467  0.1490
11831W        W28679  16.303   1.321   2.639 -0.1424  0.0512  0.1733
11832W        W28680   4.734   0.463   5.344 -0.0084  0.0950 -0.1909
11833W        W28681   2.522   1.674   1.613  0.1710  0.0411 -0.0006
11834W        W28682   1.295  14.793   1.553 -0.2811 -0.2115 -0.2254
11835W        W28683  12.982   5.435   5.465  0.4586  0.0377 -0.0769
11836W        W28684   0.233   3.772  13.488  0.1562  0.0421 -0.4087
11837W        W28685  11.880   1.216   2.281 -0.0533 -0.0057 -0.0682
11838W        W28686   2.815  14.576   3.430  0.0624 -0.1387 -0.0046
11839W        W28687  14.212   7.020   0.143 -0.2185 -0.1570 -0.1491
11840W        W28688  15.995   9.074   2.674 -0.0150 -0.0818  0.0455
11841W        W28689   3.190   6.062  15.541 -0.0427  0.0988 -0.1657
11842W        W28690   0.968  16.488  14.509 -0.1526  0.1499  0.1893
11843W        W28691   5.705  13.751   4.388 -0.1176  0.0401 -0.0451
11844W        W28692  16.825   7.247   4.403  0.0289  0.1163 -0.0169
11845W        W28693  11.452  13.332   0.463  0.0593  0.0724  0.1028
11846W        W28694   0.003  15.122  16.022 -0.0180  0.1040  0.1478
11847W        W28695  15.124   9.861   3.438 -0.1026 -0.0044  0.0095
11848W        W28696   2.229   9.255  10.696 -0.1218  0.0191  0.1450
11849W        W28697   1.286   5.494   5.531 -0.1365  0.2041 -0.1083
11850W        W28698   7.201   2.535   2.596 -0.1418 -0.0587  0.1490
11851W        W28699   4.447  17.524  15.488 -0.1162 -0.1108 -0.1702
11852W        W28700   6.184   9.230   0.703  0.1916  0.0657  0.0880
11853W        W28701   3.923  11.363  12.405 -0.0554 -0.2213  0.1784
11854W        W28702   0.773   0.863  13.865  0.1399 -0.0024  0.0265
11855W        W28703  14.625  11.609  14.450  0.1627 -0.0634 -0.0580
11856W        W28704   9.123  14.500   0.595 -0.1607  0.0513 -0.0342
11857W        W28705   9.249   2.237  11.851 -0.2366  0.1066 -0.1023
11858W        W28706   9.275   5.692  16.591  0.1610 -0.2491 -0.0029
11859W        W28707  16.221  17.215  12.267  0.1601 -0.1974 -0.4272
11860W        W28708   4.782   7.152   2.214  0.0874 -0.0327 -0.1132
11861W        W28709   4.150   5.288   2.517 -0.5228  0.1409  0.2958
11862W        W28710  17.565   7.491  16.041  0.0017 -0.0902 -0.2075
11863W        W28711  17.275   9.132  12.115 -0.0990 -0.1769  0.1692
11864W        W28712   4.441  16.065   0.195 -0.0551 -0.2964  0.0953
11865W        W28713   5.246  16.544  15.765  0.0414  0.1594 -0.1352
11866W        W28714   8.106  15.351   3.462  0.3679  0.1331  0.1339
11867W        W28715  13.125   5.877  14.017 -0.2517 -0.1779 -0.3130
11868W        W28716   0.056   5.154   0.794 -0.0132 -0.2183  0.0835
11869W        W28717  12.669   8.426  14.794  0.0746 -0.1341 -0.0349
11870W        W28718   0.133   3.529  13.967 -0.0183  0.0854  0.0587
11871W        W28719  10.564  10.999   2.969  0.2910  0.3171  0.0187
11872W        W28720  17.016   8.744   0.679 -0.3300 -0.0039  0.1523
11873W        W28721  15.782   9.353   1.562  0.0296  0.1571 -0.2668
11874W        W28722   6.447  14.464   2.056 -0.1032  0.0726  0.0097
11875W        W28723  16.851  14.726   2.447 -0.0069  0.2484  0.0321
11876W        W28724  17.840   4.204  12.247  0.1149 -0.0225  0.3263
11877W        W28725   3.473   4.802  13.549 -0.0791 -0.1754  0.1434
11878W        W28726  16.279   5.465  11.397  0.1087 -0.2437 -0.1840
11879W        W28727  12.910  15.028   4.448 -0.0277  0.1652 -0.0868
11880W        W28728   2.838  15.989   1.378 -0.1867  0.0460  0.2858
11881W        W28729  14.398  11.486   3.965  0.1237  0.1980  0.1578
11882W        W28730   6.651   3.178  13.703 -0.0643  0.0169  0.2383
11883W        W28731   5.021   7.118  13.048  0.2270 -0.0828 -0.1249
11884W        W28732   8.343   4.690   2.813 -0.0471 -0.0309  0.0874
11885W        W28733  12.035  10.324  15.555 -0.0728  0.0635 -0.1500
11886W        W28734  11.383  16.717   3.349  0.2277 -0.0005  0.2828
11887W        W28735  17.084   2.242   1.444 -0.0979  0.1420 -0.1120
11888W        W28736   7.084  15.860  16.065  0.1585 -0.0514 -0.0427
11889W        W28737   8.982  13.199  11.454 -0.2040 -0.0902  0.3508
11890W        W28738   6.943  17.075  14.499 -0.0848  0.0235 -0.1018
11891W        W28739   7.097   9.454  13.455 -0.1596 -0.2994 -0.0304
11892W        W28740   9.440   8.984   0.560 -0.0637 -0.5479 -0.0507
11893W        W28741   0.109   3.260   0.452  0.0927  0.0394 -0.2424
11894W        W28742  14.888   8.706   3.342 -0.1052 -0.0403  0.0385
11895W        W28743  15.992   3.779  12.112 -0.2645 -0.4085  0.1355
11896W        W28744  17.369  11.036  10.508  0.2397  0.0682  0.3332
11897W        W28745   0.692   5.415  14.438  0.0914  0.1899 -0.0461
11898W        W28746   3.379  10.237  12.616 -0.2186 -0.0266  0.1546
11899W        W28747  17.235   9.496   2.666  0.1367 -0.1429 -0.0723
11900W        W28748  12.657   2.032  16.126 -0.1682 -0.4748 -0.1046
11901W        W28749   9.455  15.020   3.928  0.0282  0.3658 -0.4118
11902W        W28750   7.951  14.566  13.070  0.1444 -0.0939  0.0442
11903W        W28751   3.217  10.471   3.734  0.0955  0.0665  0.0352
11904W        W28752   1.288  14.928   3.957 -0.1747  0.3766  0.0902
11905W        W28753   7.760   8.206  12.580 -0.3099 -0.0092  0.1695
11906W        W28754   9.022   8.238   4.443  0.0087  0.0485  0.0845
11907W        W28755  16.731  16.622  15.196 -0.1917  0.2692 -0.1180
11908W        W28756  10.260   0.415  13.852  0.1338  0.0599  0.0474
11909W        W28757  13.583   1.762  16.542  0.0809  0.0600  0.0221
11910W        W28758  14.959   9.291  11.475  0.4608 -0.0533  0.3669
11911W        W28759  17.356  17.209  15.739 -0.1337  0.3162 -0.1916
11912W        W28760  14.452  17.541  13.622  0.0033  0.1460  0.2180
11913W        W28761   2.682  17.617   3.349 -0.1803  0.2955 -0.0455
11914W        W28762   1.893   1.456  12.885 -0.1181 -0.3868 -0.1968
11915W        W28763   9.687   2.183  12.862  0.1458 -0.0609 -0.0669
11916W        W28764  12.530  16.908   1.684 -0.2683  0.0326  0.1252
11917W        W28765   3.807  12.731   5.465 -0.0028  0.0895  0.2953
11918W        W28766   5.788  13.910  15.197 -0.1180 -0.0185 -0.2321
11919W        W28767   2.682  11.350   2.777 -0.1571 -0.1565  0.0007
11920W        W28768   3.645  13.503  14.187 -0.0170 -0.0229 -0.3827
11921W        W28769  15.189   5.692   1.020  0.0172  0.3081 -0.1566
11922W        W28770   1.296   1.847  13.847  0.1354 -0.1203  0.1040
11923W        W28771  12.000   1.041   3.438  0.0779 -0.0197  0.1740
11924W        W28772  13.031   2.140  15.816 -0.2811  0.1477  0.1657
11925W        W28773  14.547  13.876  16.258  0.0325  0.1023 -0.1620
11926W        W28774  16.514   2.515   0.079  0.0252  0.1725 -0.1595
11927W        W28775   1.415   0.767   4.758 -0.0711  0.0391 -0.1473
11928W        W28776   9.853   6.278   0.588 -0.1305 -0.3182 -0.0987
11929W        W28777   7.421   4.234   3.726 -0.1228  0.0278 -0.1528
11930W        W28778  16.215  13.411  14.856  0.2798  0.0644  0.0858
11931W        W28779   3.233   4.705   4.341 -0.1242 -0.3832 -0.2964
11932W        W28780   5.088   3.329   1.819  0.0096 -0.2038 -0.1413
11933W        W28781   8.366   5.394  15.715 -0.2275 -0.3617  0.3503
11934W        W28782  16.115  11.936   0.537  0.1174 -0.0333 -0.0593
11935W        W28783  14.507   7.534   3.034 -0.0763 -0.0612  0.1366
11936W        W28784   5.480  14.402   5.811  0.1907 -0.0431  0.2770
11937W        W28785   3.626   5.645   3.402  0.0271  0.0804 -0.0843
11938W        W28786  10.844  17.071  13.354  0.0683  0.0884  0.0587
11939W        W28787  16.829  12.134  16.116 -0.0545  0.1354 -0.1120
11940W        W28788  16.852   6.949  15.724 -0.1681  0.2172 -0.1460
11941W        W28789   2.299  13.864   3.864  0.0874 -0.3776 -0.0747
11942W        W28790   4.183  10.444  15.845 -0.3639  0.0359  0.0889
11943W        W28791  11.241   5.222  13.224 -0.1141 -0.0077  0.0476
11944W        W28792  14.683   5.449  14.926 -0.1231  0.1889 -0.1199
11945W        W28793   0.561  12.830   4.567 -0.2486 -0.0195  0.0604
11946W        W28794   5.722  16.346  13.106  0.1800 -0.1281 -0.0304
11947W        W28795   3.999   6.144  11.719 -0.1044  0.1593  0.0711
11948W        W28796   4.182  15.156   4.255 -0.0817  0.0399  0.0021
11949W        W28797   7.363   5.825  11.183  0.0441  0.0848 -0.2466
11950W        W28798  10.725  11.592  14.943 -0.1466  0.2220  0.0437
11951W        W28799   2.388  10.248   3.223 -0.2939  0.1195  0.1375
11952W        W28800   4.527  11.281   0.171  0.3113  0.0046 -0.1341
11953W        W28801   7.137  10.358   2.498 -0.0519  0.0543  0.0888
11954W        W28802   8.182  10.878   4.103 -0.1167 -0.1401  0.2446
11955W        W28803   9.958   9.154  11.414 -0.2697 -0.1554 -0.3104
11956W        W28804   5.395   0.007  15.970 -0.1746  0.0084 -0.1246
11957W        W28805   8.272  13.782  15.240  0.1554 -0.3608  0.1383
11958W        W28806  15.187  14.887   4.648 -0.2920  0.0884 -0.2004
11959W        W28807   7.030   1.414  13.951  0.0438  0.0542 -0.0462
11960W        W28808  14.943   9.313   0.333 -0.0234 -0.3260 -0.0039
11961W        W28809   6.683   8.060   4.131  0.1113 -0.3079  0.1499
11962W        W28810   9.168  10.224  10.214  0.0930  0.0961 -0.3420
11963W        W28811  14.906  13.304  14.615 -0.1093 -0.2661  0.3254
11964W        W28812   8.934   6.224   5.011  0.1363 -0.2485 -0.2242
11965W        W28813   8.786   9.295   3.040  0.2169  0.0158  0.1851
11966W        W28814  10.214  14.628   4.825 -0.0642 -0.0214 -0.0564
11967W        W28815  14.383  15.779   4.848  0.0108  0.0968 -0.0046
11968W        W28816   3.321  16.187   0.203 -0.0213 -0.0813 -0.1809
11969W        W28817   6.423   6.465   4.030 -0.0785 -0.0670 -0.0434
11970W        W28818   6.275   6.779  13.660 -0.0062  0.2178  0.0181
11971W        W28819  12.192  10.781  14.205  0.2250  0.1521 -0.1128
11972W        W28820  14.167   6.097   4.290 -0.1252 -0.3645 -0.0875
11973W        W28821   3.799  15.810  14.024  0.0504 -0.0554  0.2724
11974W        W28822   3.156  12.996  16.513  0.1677  0.1849 -0.0827
11975W        W28823   3.361   1.292  14.802  0.0396 -0.1048  0.0125
11976W        W28824  17.267  14.515   4.244 -0.2338 -0.1216 -0.4494
11977W        W28825   6.813  13.268   1.293  0.1105 -0.0961 -0.4697
11978W        W28826  12.368  15.953   2.818 -0.1515  0.2653 -0.2414
11979W        W28827  14.723   2.465  11.508  0.1082 -0.1590  0.0719
11980W        W28828  11.744   9.522  13.428  0.0264  0.1008  0.1897
11981W        W28829  16.400  14.388   5.235  0.4011  0.1288  0.2538
11982W        W28830  10.068   6.274  15.620 -0.0196  0.2034  0.1261
11983W        W28831   6.412   8.176   1.695  0.1039  0.0146 -0.0731
11984W        W28832  17.760  16.790   2.773 -0.2365  0.0476 -0.1919
11985W        W28833  15.248  11.831  14.800 -0.1041 -0.0709  0.2287
11986W        W28834  17.297   6.462  12.971  0.0193 -0.0708 -0.0197
11987W        W28835   7.067  14.300   1.250  0.0182 -0.0092 -0.2551
11988W        W28836   9.602   1.230  11.410 -0.1112  0.1917  0.0704
11989W        W28837  17.214   8.182   1.647 -0.0011  0.0931 -0.0265
11990W        W28838   4.656  15.398  10.354 -0.1077  0.0339 -0.0842
11991W        W28839   1.158   0.775   0.667 -0.1762 -0.0738 -0.1567
11992W        W28840   3.245   6.225   2.183 -0.0885 -0.3301 -0.0586
11993W        W28841   3.628   0.888  10.696  0.2348  0.1487  0.0653
11994W        W28842   9.270   9.572   0.781 -0.1421 -0.1344 -0.0640
11995W        W28843   3.907  17.721  13.370  0.0539  0.0701 -0.2862
11996W        W28844   8.907  10.227  16.314 -0.1309 -0.0588 -0.0192
11997W        W28845  10.545   1.018   2.010 -0.0108 -0.0952  0.2498
11998W        W28846  10.055   0.686   3.707  0.0799  0.1441  0.2458
11999W        W28847   0.689   9.425  12.143 -0.0911  0.2499  0.1552
12000W        W28848   8.103  12.192   3.705 -0.1173  0.4384  0.1692
12001W        W28849  12.741  16.052  11.237 -0.1143  0.0062 -0.1417
12002W        W28850   5.019  11.959   4.086 -0.1513  0.1466 -0.2246
12003W        W28851   3.085   5.823   0.459 -0.0360  0.0331  0.3995
12004W        W28852  13.156  12.705  11.880 -0.1670  0.0580 -0.1223
12005W        W28853   8.298   5.799  16.160 -0.0941 -0.0247 -0.0837
12006W        W28854   7.120   2.245   0.258  0.2212 -0.3060 -0.0033
12007W        W28855  10.443   8.153  11.584  0.0451  0.3540 -0.0830
12008W        W28856   3.891   5.415  11.553 -0.0994 -0.0115  0.1275
12009W        W28857   4.683   8.652   3.747 -0.1731  0.1659 -0.2908
12010W        W28858   1.024   4.502   2.653 -0.3903 -0.0299  0.3135
12011W        W28859  17.829  10.311   1.369 -0.1521  0.3412 -0.1049
12012W        W28860   1.273   8.052   4.336  0.0341  0.0260  0.1863
12013W        W28861   1.744  11.485  14.717 -0.0775  0.0880  0.1099
12014W        W28862   1.954   0.490   3.406  0.0833 -0.3099 -0.1489
12015W        W28863  16.400   3.416   2.889 -0.1500 -0.2646  0.1921
12016W        W28864   9.966   6.390  13.361  0.0292  0.3407  0.1798
12017W        W28865   4.172   9.685  11.097  0.0087  0.0613  0.0172
12018W        W28866  13.173   5.292   0.282 -0.1643 -0.1867 -0.0421
12019W        W28867  17.477   2.329  14.305  0.1770  0.2590  0.0999
12020W        W28868  13.338  15.202  15.215 -0.0295 -0.1067 -0.1113
12021W        W28869   8.786   9.763  14.920 -0.2230  0.1498  0.0557
12022W        W28870   2.246   0.751   0.267 -0.1272 -0.0571 -0.3769
12023W        W28871   3.559   8.914   3.450  0.0261  0.1086  0.1623
12024W        W28872   0.426  13.259  15.466 -0.0151 -0.2358  0.2056
12025W        W28873  16.358  10.731  11.859 -0.0132 -0.1016  0.2036
12026W        W28874   4.275  15.248   4.716 -0.1388 -0.0739 -0.0140
12027W        W28875  14.428   7.216  12.702 -0.0937 -0.0623  0.0218
12028W        W28876   0.779  13.281   6.521  0.1385  0.1718  0.2182
12029W        W28877   6.139   9.458  12.668  0.1957  0.1530  0.1167
12030W        W28878  12.669  10.108   3.887 -0.0582 -0.0103  0.0425
12031W        W28879   9.007  16.092  14.774  0.1172 -0.3398  0.0925
12032W        W28880   5.959  10.432   6.001  0.1323  0.1825 -0.3123
12033W        W28881  10.072  16.648   0.529 -0.1177 -0.1048 -0.0021
12034W        W28882  14.985   8.686  14.343  0.2650  0.1279  0.0440
12035W        W28883   7.216   9.094   5.253  0.1829 -0.1114 -0.1655
12036W        W28884   4.117  17.448   1.508  0.1493  0.4684 -0.2147
12037W        W28885   1.985  10.833  10.556 -0.2291  0.0137  0.0957
12038W        W28886   2.870   4.881   2.260  0.0810  0.0088 -0.2233
12039W        W28887  11.140   5.815  14.380  0.2237  0.1417  0.5522
12040W        W28888   2.587   4.605   5.199  0.0398 -0.1172 -0.4457
12041W        W28889   0.067   0.610   1.702  0.2635 -0.0119 -0.3046
12042W        W28890  12.627  12.908  10.978  0.2848 -0.2751 -0.0372
12043W        W28891  17.496   8.590  15.539  0.0552 -0.1152 -0.2374
12044W        W28892  13.691  13.250  13.525 -0.0170 -0.0206 -0.0093
12045W        W28893   6.101  11.620  14.638 -0.0357  0.1025 -0.1913
12046W        W28894   5.307   5.201   1.847 -0.0969  0.1438 -0.2998
12047W        W28895  14.693   6.132  15.091  0.1424 -0.4127  0.0353
12048W        W28896   5.542   1.497  10.735  0.0833 -0.0845 -0.0055
12049W        W28897   3.017   8.219   4.085  0.0155 -0.0085 -0.0943
12050W        W28898  10.753   6.637  16.179 -0.0161 -0.1435  0.0527
12051W        W28899  15.013   2.765  12.686  0.4682 -0.2124  0.1489
12052W        W28900  13.385   2.555   1.820  0.0814  0.1972 -0.2905
12053W        W28901  12.268  11.499   5.072  0.3119  0.2509  0.0064
12054W        W28902   4.297  13.109  12.400 -0.0017 -0.2884  0.2868
12055W        W28903   2.212  17.747  15.332 -0.1897  0.1346  0.2587
12056W        W28904   2.377  13.593   4.254 -0.0457  0.0935 -0.2558
12057W        W28905  17.618   0.489   0.290  0.2052  0.0578  0.0979
12058W        W28906   2.288   7.723  15.487 -0.3814 -0.0105 -0.4718
12059W        W28907   8.025  16.651  14.123  0.0210 -0.0419  0.0204
12060W        W28908  11.491   3.796   4.451 -0.1879 -0.1907  0.1972
12061W        W28909   8.323   2.139   3.526 -0.0288 -0.1175 -0.3846
12062W        W28910  16.138  17.533  15.101 -0.1761  0.1112 -0.2830
12063W        W28911  10.077   3.878  12.634 -0.2136 -0.1141 -0.0499
12064W        W28912  10.159  10.732  13.588  0.2405 -0.1746 -0.0283
12065W        W28913  11.193   1.508   2.608  0.0872  0.3460 -0.1220
12066W        W28914   5.107   1.783   4.947 -0.2773 -0.1364 -0.0969
12067W        W28915   4.113   8.617   5.948 -0.0535  0.3644 -0.0704
12068W        W28916   6.338  16.234   1.306 -0.0513  0.1743 -0.3034
12069W        W28917  12.042  15.022  15.037 -0.1134  0.0221 -0.1084
12070W        W28918  16.140  13.473  15.829  0.1236  0.0745 -0.3148
12071W        W28919   0.061   3.244   3.031  0.2028  0.1967  0.0640
12072W        W28920  10.327   9.437   4.577  0.0880 -0.0621 -0.2035
12073W        W28921   1.153  12.323   1.522  0.0345  0.4023 -0.2092
12074W        W28922  12.609  11.054  11.976 -0.0412  0.0523  0.0417
12075W        W28923  13.628  17.485   2.054 -0.3267  0.2121 -0.0900
12076W        W28924  17.299   5.316  12.419  0.0331  0.0178 -0.0234
12077W        W28925  16.309   1.348   4.091  0.3588 -0.1162 -0.0576
12078W        W28926   7.356   4.725  12.075 -0.5521  0.0534 -0.0144
12079W        W28927   9.397   8.460   0.012 -0.2081  0.3255  0.1317
12080W        W28928   6.006  10.277  14.134  0.2663 -0.1863  0.0322
12081W        W28929  12.109   7.972   5.094 -0.1883 -0.0061  0.2002
12082W        W28930  17.373  17.211  16.630 -0.2793 -0.0648 -0.1136
12083W        W28931   4.497  13.239  13.311  0.1332 -0.1408 -0.1498
12084W        W28932  13.855   9.252  14.093  0.2516  0.1384 -0.0950
12085W        W28933   2.561  10.272  15.359 -0.2718  0.0300  0.1955
12086W        W28934   4.030   1.160  13.298  0.1881 -0.1037  0.0488
12087W        W28935  16.490  15.432   2.232  0.2570 -0.3075 -0.2230
12088W        W28936  15.079  10.581  12.119 -0.2562  0.0356  0.1470
12089W        W28937   4.059   6.856  11.157  0.0217  0.0179 -0.1954
12090W        W28938  14.031   0.765  13.086  0.2027  0.4162  0.0283
12091W        W28939   3.217  11.495  13.428 -0.0221  0.2748  0.1539
12092W        W28940  11.518   9.723   2.295 -0.2428 -0.3098  0.1098
12093W        W28941   0.638   0.142   2.563  0.1634 -0.0425  0.0876
12094W        W28942  15.480  10.261   3.757 -0.1203  0.1083  0.0495
12095W        W28943  13.811   5.474  13.850 -0.1519  0.3257  0.0649
12096W        W28944   7.898   2.638  14.089 -0.0123 -0.2898  0.3420
12097W        W28945   9.301  15.660  16.063  0.1205 -0.1983  0.0535
12098W        W28946  12.451   1.839   4.839  0.0456 -0.2249  0.0079
12099W        W28947  13.838   7.591   4.885  0.0810 -0.0850 -0.0144
12100W        W28948  13.744   1.755  11.887  0.0483  0.0520 -0.0680
12101W        W28949  17.452   0.356  10.558 -0.0153  0.0314  0.1228
12102W        W28950   1.149   2.941   3.906  0.1075  0.2485  0.1582
12103W        W28951   4.481   9.686  10.679 -0.3692  0.1708 -0.2868
12104W        W28952  10.872  14.270  14.681 -0.1255  0.1774  0.0154
12105W        W28953  10.655   4.862  14.231  0.0874 -0.0584  0.4333
12106W        W28954   3.216  17.129   0.089 -0.2668  0.0103  0.2767
12107W        W28955  14.063   2.256   4.866  0.1311 -0.0726  0.0616
12108W        W28956  10.973  17.420  13.695  0.1001  0.0250  0.3105
12109W        W28957   8.820   4.950   5.326 -0.3768 -0.0812  0.2957
12110W        W28958   3.607  15.238   0.346 -0.0699  0.0545 -0.5887
12111W        W28959   5.944   1.144  14.817  0.1612  0.0946  0.1296
12112W        W28960  10.557  14.790  11.511  0.2594 -0.3118 -0.1022
12113W        W28961  17.089   4.175  13.485  0.1555 -0.1588  0.4634
12114W        W28962  11.299   5.620   5.450  0.2183 -0.1135 -0.0903
12115W        W28963   1.360  14.226  15.297  0.3030 -0.0187 -0.0059
12116W        W28964   7.430  16.725  12.569  0.0571  0.0041  0.4593
12117W        W28965   1.640   9.611   4.457 -0.2017 -0.0267 -0.3341
12118W        W28966   1.919   3.922  13.076  0.0695  0.0143 -0.3286
12119W        W28967  12.036  13.526  12.876 -0.2607  0.1651  0.1613
12120W        W28968  13.942   8.629  15.288 -0.3345 -0.0632 -0.3316
12121W        W28969  15.234   7.492  12.188  0.1217  0.0800 -0.2441
12122W        W28970   9.854  15.051   3.607  0.0679 -0.2936  0.0646
12123W        W28971  14.345  13.814   0.605  0.0481 -0.4105  0.0443
12124W        W28972   7.642   5.938  11.632  0.2052 -0.0984  0.1807
12125W        W28973  16.610  17.093   3.924  0.0633  0.1065 -0.2609
12126W        W28974  11.643  13.810   1.036 -0.2701 -0.2327 -0.1121
12127W        W28975  17.591   5.164  15.104  0.1126  0.3348 -0.2207
12128W        W28976  16.779  13.499  16.498 -0.4071  0.1849  0.0626
12129W        W28977  10.354   7.974  14.264 -0.1927  0.2312 -0.2090
12130W        W28978  15.176  16.392   4.582  0.0335 -0.2151 -0.1205
12131W        W28979   3.544   7.226  15.295 -0.0724  0.1819  0.1706
12132W        W28980   0.753   5.062   4.753 -0.0408 -0.1250 -0.0911
12133W        W28981   0.253  15.160  11.102  0.0854  0.0081 -0.0966
12134W        W28982  16.053   3.768   0.404 -0.0262 -0.1333 -0.1103
12135W        W28983  10.521  16.654   1.493  0.0233  0.1220 -0.2300
12136W        W28984   7.209   9.033  14.881  0.2318 -0.0024 -0.0505
12137W        W28985   8.086   6.809   2.036  0.0963 -0.2566  0.0580
12138W        W28986   7.966   2.066   5.907 -0.1492  0.3077  0.0474
12139W        W28987   5.559  13.629  15.955 -0.0500  0.0095  0.2020
12140W        W28988  12.507   7.319  12.934 -0.0040  0.0195  0.0354
12141W        W28989   7.667   9.781  16.577 -0.0977  0.1300 -0.0370
12142W        W28990  14.202  12.213   4.679 -0.2783  0.1844 -0.1685
12143W        W28991   9.758   1.013   1.345 -0.0768  0.1389  0.3851
12144W        W28992   3.534  10.686  16.473  0.4174 -0.1238  0.1130
12145W        W28993  10.295   6.755  15.918 -0.3732  0.1810 -0.3752
12146W        W28994  16.958   2.528   1.837 -0.0158 -0.1453  0.2843
12147W        W28995   4.721  15.583   4.520 -0.0513 -0.0316 -0.1948
12148W        W28996   2.193   2.540  14.823 -0.3183  0.1545  0.0543
12149W        W28997  16.070  14.325   1.805 -0.0689  0.1594 -0.0086
12150W        W28998   7.972  17.332  15.444 -0.2044  0.1210  0.1680
12151W        W28999  14.557   8.681  14.630 -0.0170 -0.0161 -0.1135
12152W        W29000   9.848   8.359  16.461  0.0071 -0.2463  0.1052
12153W        W29001   6.801  14.441   1.721 -0.2748  0.1459 -0.1752
12154W        W29002  16.139   2.765   0.613  0.3023  0.0821 -0.0183
12155W        W29003  13.730   3.434  15.125 -0.2314  0.1849  0.4025
12156W        W29004   4.159  12.436   4.447 -0.1191  0.0631  0.1046
12157W        W29005   4.692   3.318  12.969  0.2734  0.1178 -0.1171
12158W        W29006   1.082   6.342  14.955  0.0703  0.1729 -0.0828
12159W        W29007  10.132  12.597   4.416 -0.0150 -0.2061  0.0302
12160W        W29008  10.887   3.471   5.037  0.1182 -0.2137 -0.0760
12161W        W29009   3.714  17.067  12.482  0.1309 -0.2552  0.0747
12162W        W29010   9.774  12.906  12.743  0.2555 -0.0835  0.0244
12163W        W29011  15.596  12.238  13.664 -0.1703  0.1747 -0.2192
12164W        W29012  16.959  11.205  12.963  0.0449  0.0485  0.1500
12165W        W29013   5.465   0.440   2.176  0.4571  0.0257 -0.0972
12166W        W29014   0.918  12.514  14.176  0.0582  0.0317  0.2110
12167W        W29015   6.192   9.159  13.871  0.0022 -0.1283  0.0326
12168W        W29016   4.237  15.936  15.916  0.0963 -0.2440 -0.1357
12169W        W29017   9.347   6.127   0.607 -0.0393  0.1437 -0.0059
12170W        W29018   0.195  15.676   5.020 -0.0692  0.1171  0.0847
12171W        W29019  10.811   7.558  12.848  0.1397  0.1831 -0.1900
12172W        W29020   5.498  15.418   0.891  0.2160  0.0298  0.1537
12173W        W29021   9.920  17.458  15.273 -0.1761  0.1442  0.2895
12174W        W29022  14.677   6.653  14.307 -0.1906  0.2975 -0.2244
12175W        W29023   4.903  17.748   6.030 -0.0409  0.1007 -0.1626
12176W        W29024   3.014  17.697   1.209 -0.0099  0.0319 -0.1459
12177W        W29025   1.125  15.180  12.109  0.2421  0.1654 -0.2437
12178W        W29026  10.638  16.606  11.811 -0.0510 -0.4125  0.1232
12179W        W29027  15.782   9.423   4.683 -0.2575  0.0772  0.0662
12180W        W29028   9.848  12.390   2.067  0.0665  0.3374 -0.0836
12181W        W29029   5.103   0.072   5.094 -0.0952 -0.3370  0.0814
12182W        W29030   7.495   6.213  14.829 -0.1948  0.0090 -0.5552
12183W        W29031   3.254   1.097  13.070  0.4589 -0.0636  0.2545
12184W        W29032  15.486  11.342   4.873  0.2132 -0.2501 -0.0415
12185W        W29033   9.296  15.179  16.240 -0.2770 -0.0155 -0.0888
12186W        W29034  10.179   3.565  15.687  0.3231  0.2941  0.2111
12187W        W29035   7.577  11.098  14.561  0.1562  0.2385  0.0198
12188W        W29036  13.758  12.039  11.015 -0.1093 -0.1037 -0.2162
12189W        W29037  15.931   8.824  16.434 -0.1267 -0.0783 -0.1277
12190W        W29038  15.208  15.836   3.247 -0.0360 -0.0349  0.1211
12191W        W29039   6.282   1.413  13.832 -0.0565  0.1255 -0.1763
12192W        W29040  15.516   2.247  13.016  0.2297  0.1318  0.1042
12193W        W29041   3.914  14.767  15.917  0.0099  0.1112  0.2577
12194W        W29042  11.430  13.725  12.246 -0.3715 -0.0995 -0.1553
12195W        W29043   1.105  17.591   0.553  0.2737 -0.2608 -0.0906
12196W        W29044   1.136  17.483   2.749 -0.0972 -0.1851 -0.1391
12197W        W29045  12.460  17.248  15.541 -0.1033 -0.3282  0.2515
12198W        W29046   6.335  10.072  16.270  0.0161 -0.0829  0.0497
12199W        W29047  10.054  17.342  13.564  0.1736 -0.2200  0.2510
12200W        W29048  13.390   9.898   5.058 -0.0571  0.3193  0.5905
12201W        W29049  14.479   4.996  15.064 -0.1461  0.3145 -0.1544
12202W        W29050  10.718  12.925  15.748  0.0253  0.3344  0.0690
12203W        W29051  16.318   2.975  15.716  0.2039 -0.4196  0.3434
12204W        W29052   8.351  12.422  12.814  0.0785 -0.3130 -0.0526
12205W        W29053   5.378  15.899   5.060  0.1507  0.2872  0.3736
12206W        W29054   9.814   0.946  12.570 -0.0260 -0.0002 -0.1507
12207W        W29055   3.085   7.212  14.498  0.1162  0.1852  0.2320
12208W        W29056  10.406   1.297  13.500 -0.1433 -0.2543  0.3053
12209W        W29057   3.102   8.817  12.965 -0.1215  0.2156  0.0782
12210W        W29058   3.245  12.556   1.147  0.4546 -0.1318  0.0686
12211W        W29059   7.093  14.806   3.261  0.0176 -0.1175 -0.2180
12212W        W29060  11.914   7.712   3.904 -0.0120  0.2192  0.0125
12213W        W29061   7.425   0.179  15.306  0.3037  0.3112  0.1575
12214W        W29062  11.446  14.633   5.116  0.1228  0.0051 -0.1009
12215W        W29063  13.978   2.115   0.045  0.0002  0.0640 -0.0119
12216W        W29064   8.429  17.472  15.626 -0.1820 -0.0923  0.0078
12217W        W29065  11.043   8.837   4.842 -0.2304  0.1080  0.3058
12218W        W29066  12.554   4.329  14.365  0.1452 -0.1227 -0.0987
12219W        W29067   1.202  17.500  15.667 -0.1265  0.2680 -0.1283
12220W        W29068  11.495  12.694   3.719  0.0314  0.2776  0.1300
12221W        W29069   3.454   6.033  12.723 -0.0388 -0.3337  0.2427
12222W        W29070   7.057   0.176  15.635  0.2672 -0.0877 -0.0572
12223W        W29071  11.421   8.782  14.836 -0.1244 -0.1442  0.2448
12224W        W29072   0.901   8.937   0.854 -0.1297 -0.2287 -0.1680
12225W        W29073  14.559  15.214   2.041  0.1739 -0.3969  0.2212
12226W        W29074   9.661   6.957   4.685 -0.2506  0.2147 -0.2146
12227W        W29075   4.971   5.136  15.843 -0.0807 -0.1686  0.0941
12228W        W29076  15.806   1.144  13.167  0.1587 -0.0665 -0.0468
12229W        W29077  15.401  15.295  15.526  0.0650  0.0377  0.0199
12230W        W29078   3.703   4.796  15.022  0.1973  0.3218 -0.1025
12231W        W29079  10.487  16.822   2.631 -0.0737  0.1287  0.0209
12232W        W29080   2.564  12.591  13.022  0.0877 -0.2608  0.1160
12233W        W29081   5.871  13.020   1.395 -0.1296 -0.1498 -0.0501
12234W        W29082   4.240   6.977   3.246 -0.1349  0.0227 -0.0842
12235W        W29083   5.213  16.122  13.066 -0.0943  0.1330 -0.1008
12236W        W29084   2.354  12.822   1.561 -0.0276  0.2599 -0.0930
12237W        W29085  10.055   1.609   1.857  0.0134  0.2021  0.2035
12238W        W29086  16.973   4.589  15.894 -0.0932 -0.2852 -0.2564
12239W        W29087  12.678  16.074   2.121 -0.2185  0.0499 -0.2672
12240W        W29088   5.977   0.451  12.192  0.0426  0.1962 -0.0527
12241W        W29089  12.412   3.021  14.656  0.0691 -0.1381  0.1173
12242W        W29090   0.158  11.739  13.953  0.1183  0.2100 -0.0373
12243W        W29091   3.642   4.846  14.426  0.4076  0.2734 -0.0293
12244W        W29092   7.823   9.955   1.909 -0.2002 -0.1257 -0.4381
12245W        W29093   3.527   8.751   1.661  0.1004  0.0931 -0.2091
12246W        W29094  11.551  12.509  11.244  0.1125  0.2329 -0.0168
12247W        W29095   5.099  11.807  10.747  0.0239 -0.2098  0.1040
12248W        W29096  10.411   0.443   3.365 -0.0614 -0.1246 -0.3097
12249W        W29097  12.045   0.566  13.084  0.0760 -0.3018 -0.1316
12250W        W29098   1.957   9.467   5.557 -0.3573  0.1060  0.2154
12251W        W29099  11.650   6.779  10.451 -0.0611 -0.0675 -0.1009
12252W        W29100   0.065  17.661  16.162 -0.0333  0.2570  0.0898
12253W        W29101  11.370   9.889  13.469 -0.0783 -0.1678 -0.0279
12254W        W29102  16.605   1.212   2.218  0.1719 -0.3485  0.2796
12255W        W29103  10.260   9.155  12.899 -0.1821  0.2119 -0.1155
12256W        W29104   6.996  14.500  13.910 -0.1798 -0.0342 -0.2661
12257W        W29105  12.936  15.212  12.314  0.0123 -0.0170  0.1052
12258W        W29106   2.273  15.742   1.160  0.0716  0.2841 -0.2478
12259W        W29107  15.993   6.458   1.441  0.1083 -0.0303 -0.1381
12260W        W29108   1.717   2.705   3.772 -0.1250 -0.2612 -0.1550
12261W        W29109   2.961   8.252   2.450 -0.1400 -0.0038  0.4226
12262W        W29110   0.683   4.522   1.422  0.2497 -0.1935 -0.0953
12263W        W29111  12.619  16.323   3.071  0.1060 -0.0976  0.2546
12264W        W29112   6.686  11.595   0.259  0.0440 -0.0002  0.0822
12265W        W29113  10.078  17.197   3.058  0.1463  0.2703  0.3204
12266W        W29114  17.746  12.019   0.254  0.3891  0.2953  0.1224
12267W        W29115   4.405   8.339  11.642 -0.0915  0.2232  0.1876
12268W        W29116  11.079  16.807   1.673  0.2016 -0.1762  0.0723
12269W        W29117   2.371   6.933  12.485  0.0261  0.2146 -0.2468
12270W        W29118   3.032  14.287   5.058  0.0064 -0.0078 -0.1528
12271W        W29119   6.257  11.837   0.195  0.1055  0.0989 -0.2456
12272W        W29120  12.252   4.792  15.090 -0.1059  0.1047 -0.1734
12273W        W29121  17.394  10.470  11.699 -0.0113 -0.2936 -0.0208
12274W        W29122   8.062  10.680  15.011  0.0765  0.2018  0.0181
12275W        W29123   6.876  14.731   1.302 -0.2407  0.1504  0.1602
12276W        W29124   7.106   6.154   2.595  0.1567 -0.0873  0.0592
12277W        W29125   6.616  10.265  12.648  0.3526  0.1391  0.0328
12278W        W29126   5.525   5.119   3.613  0.2167 -0.1392  0.2268
12279W        W29127   2.374   2.671  13.270  0.1925 -0.0276  0.2302
12280W        W29128   0.503   5.302   2.636  0.0379  0.4923 -0.1597
12281W        W29129   8.627   7.874  15.442  0.0263  0.1912  0.0335
12282W        W29130   3.836   0.514  15.610 -0.0142 -0.0286 -0.2084
12283W        W29131   5.495   5.427   2.732 -0.2632  0.0420 -0.2495
12284W        W29132  14.059   4.057  15.974  0.3615 -0.1550  0.0461
12285W        W29133   0.507   1.159   3.044 -0.0869  0.2426  0.1239
12286W        W29134   3.700  17.145   0.098 -0.5202 -0.2717  0.1703
12287W        W29135   8.568   8.334   1.948  0.0350 -0.2954 -0.1228
12288W        W29136   4.439  10.912   1.466 -0.1476  0.1438  0.1943
12289W        W29137  14.549   1.602   3.629  0.0589 -0.1642  0.1913
12290W        W29138  10.352   2.775   2.384  0.0628 -0.0585 -0.2551
12291W        W29139   5.971   0.523   3.167  0.1379  0.0573 -0.2116
12292W        W29140  16.205  16.679   1.825 -0.1806  0.0949 -0.2326
12293W        W29141   7.142   7.067   1.736  0.0631  0.2315 -0.1133
12294W        W29142  12.632   4.461  14.837  0.0451  0.2957  0.0651
12295W        W29143  16.448   1.728   1.730 -0.0099  0.0357 -0.0559
12296W        W29144   2.800  14.618  11.951  0.2097 -0.1868  0.5662
12297W        W29145  12.915   6.088   5.105 -0.0353 -0.1528  0.1821
12298W        W29146   3.184  16.822  12.610  0.2871 -0.0942  0.0172
12299W        W29147   2.303   7.456   3.072  0.2029  0.4107  0.0147
12300W        W29148   9.091  17.196   3.912 -0.0167 -0.0748  0.0594
12301W        W29149  17.137   7.938   1.139  0.2404 -0.0266  0.1246
12302W        W29150   0.578   1.187  16.280 -0.0363 -0.0497 -0.0625
12303W        W29151  11.280   0.717  13.776 -0.1442 -0.1681  0.1069
12304W        W29152  10.939   3.443  14.586 -0.0604  0.1976  0.1161
12305W        W29153  10.640   6.203  14.215  0.0760  0.4667 -0.0128
12306W        W29154  11.620  13.010   2.608 -0.2030  0.1112 -0.1743
12307W        W29155  10.048  13.726  13.618  0.1171  0.0534 -0.3539
12308W        W29156  12.793  10.472   1.552  0.1483  0.2190 -0.4371
12309W        W29157  12.342  10.502   3.822 -0.0196  0.0489  0.0809
12310W        W29158   1.886   3.154  15.833  0.0032  0.0114 -0.2597
12311W        W29159   4.427  16.541   4.119  0.1649  0.0222 -0.1322
12312W        W29160   1.645   5.979   5.690  0.1719 -0.0818  0.0019
12313W        W29161  11.597  10.429  11.913 -0.0049 -0.2026 -0.1608
12314W        W29162  14.952  10.176  16.606  0.1203 -0.1351  0.1809
12315W        W29163  13.281   2.255   2.677 -0.1980  0.2925 -0.2465
12316W        W29164  11.684   2.570   3.687 -0.3830  0.2419  0.1010
12317W        W29165  10.194   9.277  11.853 -0.1175 -0.0813 -0.2008
12318W        W29166  15.150  17.031  13.910  0.2480 -0.1880  0.0897
12319W        W29167  10.637   7.099   2.334  0.0848 -0.2200 -0.0523
12320W        W29168   0.050   9.327  12.981  0.3389 -0.4679  0.0900
12321W        W29169  16.939  12.514  12.214  0.0669 -0.2999 -0.0175
12322W        W29170   5.627   3.586  13.077 -0.0611  0.1975 -0.0758
12323W        W29171  15.110  11.500  16.453  0.0501  0.0312 -0.4858
12324W        W29172   3.392   3.283  14.103 -0.0803 -0.0543  0.1395
12325W        W29173  16.760   9.822  11.869  0.2411  0.1544 -0.1809
12326W        W29174  13.665   3.018  15.416 -0.0172  0.0957  0.0093
12327W        W29175   9.887   4.875  16.109 -0.0118 -0.1350 -0.0586
12328W        W29176  12.394  15.526  11.464 -0.1390 -0.0219 -0.1261
12329W        W29177  10.183   6.682   3.792 -0.0844 -0.0576  0.1192
12330W        W29178  11.229  11.701  14.160  0.4037 -0.0201 -0.0550
12331W        W29179   2.101   6.056  11.393 -0.1974  0.2772  0.1704
12332W        W29180   0.962  15.663   3.759  0.2300  0.1740  0.1831
12333W        W29181   2.943  16.123  12.942 -0.0065 -0.1144  0.2238
12334W        W29182   8.131  11.865   4.273 -0.1262  0.1604  0.0826
12335W        W29183  12.831   1.441   1.233  0.2103  0.1767  0.0337
12336W        W29184  16.715   3.188   3.800  0.2992  0.2167 -0.0837
12337W        W29185   8.112   9.415   2.234 -0.0569 -0.0935 -0.0311
12338W        W29186  16.767  12.186   2.642 -0.1099  0.0848 -0.0356
12339W        W29187   4.189   4.042   3.183 -0.0865 -0.5129 -0.0519
12340W        W29188   3.879   2.987   1.067  0.1152 -0.1407 -0.1502
12341W        W29189   5.052   3.859  15.145  0.0879  0.3622 -0.0006
12342W        W29190   5.988   8.229  12.379  0.0590 -0.1847  0.0274
12343W        W29191   7.824   7.402   0.658  0.1621 -0.0898  0.0157
12344W        W29192   2.310   3.984  13.560  0.0304 -0.1286  0.1987
12345W        W29193   3.229  15.960   2.997  0.0985  0.2250  0.0640
12346W        W29194  13.834   5.528   1.415  0.0507 -0.1397 -0.4216
12347W        W29195   0.249  15.875  13.988 -0.1205  0.0327  0.1551
12348W        W29196   6.374  17.706   0.149 -0.0075 -0.1059 -0.1482
12349W        W29197   2.187  11.477  12.458 -0.1857 -0.1801  0.1169
12350W        W29198   1.406  12.566  12.683  0.0205  0.2931 -0.0442
12351W        W29199  17.786   6.115   5.291  0.0570 -0.2012 -0.2471
12352W        W29200   0.486  11.307   0.426  0.0060  0.0384 -0.0602
12353W        W29201   0.984  16.161  15.592 -0.0219 -0.1392 -0.2093
12354W        W29202   5.430  15.440  14.472  0.0008 -0.0646  0.1815
12355W        W29203   8.990   4.013   1.345 -0.1584  0.0612  0.0308
12356W        W29204  15.082   8.723   5.210  0.0725 -0.0968  0.0017
12357W        W29205   1.968  17.467  13.909 -0.1135 -0.3047  0.2892
12358W        W29206   9.092  10.906   3.778  0.1242 -0.0172 -0.1461
12359W        W29207   3.248   2.280   1.866 -0.0942 -0.0705 -0.0460
12360W        W29208   3.223   6.861  16.492 -0.2033 -0.1737 -0.0842
12361W        W29209  14.954   4.606  14.262 -0.2362  0.1753 -0.0558
12362W        W29210   3.449  10.911  12.376  0.1503  0.1727 -0.1618
12363W        W29211   6.942  10.464  13.484 -0.0150  0.2988 -0.1369
12364W        W29212  10.023  11.050   1.824 -0.1312 -0.1124  0.1232
12365W        W29213  13.088   9.174  16.468  0.0056 -0.0172 -0.1258
12366W        W29214  13.309   8.610  13.106  0.0835  0.1835  0.1951
12367W        W29215  12.156   8.373   2.284  0.1655 -0.2152 -0.0078
12368W        W29216  16.030  10.397  12.818  0.0417  0.1110  0.2649
12369W        W29217   6.784  11.377   4.084 -0.0107  0.1837 -0.2610
12370W        W29218   5.319   3.403   4.348 -0.1693  0.2495  0.3199
12371W        W29219   8.481   9.867  15.313 -0.2251  0.2275 -0.2220
12372W        W29220  16.140   2.951   5.082 -0.2023  0.1152 -0.0392
12373W        W29221   5.313  13.198  11.490  0.3210 -0.1029  0.0472
12374W        W29222   6.254  10.766   2.449 -0.3920  0.0275  0.2650
12375W        W29223  13.596   2.099   0.884  0.1500 -0.1247 -0.1836
12376W        W29224  12.423   0.610  12.723 -0.2533  0.0435 -0.1892
12377W        W29225   1.824  16.220  13.700  0.1511  0.0784 -0.1583
12378W        W29226   5.449  12.423   2.405 -0.3704 -0.1225  0.0714
12379W        W29227  17.069   9.772  11.260 -0.0511  0.0952  0.0622
12380W        W29228  17.493  16.692  15.652  0.0179  0.1051  0.0547
12381W        W29229  15.365   6.655   2.484  0.0778  0.0300 -0.3265
12382W        W29230   0.415  16.097   2.836 -0.0618 -0.0579 -0.3636
12383W        W29231   0.264   0.253  15.976 -0.0758  0.0411 -0.0022
12384W        W29232  15.286  10.907  13.766  0.0910  0.1165 -0.5765
12385W        W29233   8.489   2.829   4.768 -0.2538 -0.0173 -0.1934
12386W        W29234  13.680   6.498   3.769  0.2082 -0.0538 -0.2786
12387W        W29235   7.088   2.454  11.273  0.0449 -0.2675  0.0553
12388W        W29236   7.514   5.796  12.102  0.0642 -0.2121 -0.1317
12389W        W29237  17.394  17.748   0.058 -0.0363  0.0575  0.0211
12390W        W29238   5.581   3.261   3.964  0.1555  0.1807  0.0065
12391W        W29239  11.761   7.541  14.703  0.0386  0.4262 -0.1749
12392W        W29240   7.234  11.405  16.432 -0.4723  0.1348 -0.0392
12393W        W29241  16.602   3.925   2.653 -0.0874 -0.3659 -0.0198
12394W        W29242   1.572  17.186  14.089 -0.2170  0.0063 -0.0572
12395W        W29243   8.773   2.581   0.015  0.2171  0.0487 -0.1769
12396W        W29244   6.805   5.349   2.002 -0.4192  0.1130 -0.0477
12397W        W29245  16.917  14.534  13.510  0.3834  0.0897 -0.2073
12398W        W29246   7.009   2.116  12.748  0.1102  0.0349 -0.2746
12399W        W29247   4.022   1.815   3.925  0.0966 -0.0382 -0.2762
12400W        W29248  14.071  12.600  13.037  0.0055 -0.1656 -0.0342
12401W        W29249   2.528   9.415   1.679  0.1331  0.0232  0.0849
12402W        W29250  14.477  17.447  16.575 -0.2227 -0.0667  0.0178
12403W        W29251  16.283  14.304   4.189  0.2425 -0.0770 -0.0808
12404W        W29252  17.613   1.672   4.230  0.0051 -0.1455 -0.0085
12405W        W29253  14.577  10.971   0.249  0.0124 -0.1760 -0.4350
12406W        W29254  16.076   0.888   0.395  0.2918  0.1268  0.1364
12407W        W29255   0.152  17.846   2.743 -0.3084  0.0777 -0.0948
12408W        W29256  12.589   8.307  12.325 -0.1426  0.0856 -0.0378
12409W        W29257  15.159  15.224   2.329  0.0149  0.0530 -0.1781
12410W        W29258   6.480  17.053  12.102  0.0679 -0.0956 -0.1562
12411W        W29259   2.856   8.233   3.598  0.3150 -0.4083  0.2616
12412W        W29260  16.855  12.234  16.601 -0.0146 -0.0206 -0.1702
12413W        W29261   3.206   5.196   2.695 -0.1437 -0.3268 -0.1519
12414W        W29262   6.702  14.620   2.983 -0.1706  0.1324  0.4954
12415W        W29263   0.219   8.724  15.591  0.1864  0.0417  0.1851
12416W        W29264  14.921   6.445   4.573 -0.2129  0.1096 -0.0987
12417W        W29265  15.153   1.401  13.269  0.1863 -0.0422  0.3562
12418W        W29266  13.096  14.155  12.411  0.0141  0.1866  0.2594
12419W        W29267   3.396   4.206  12.966 -0.1278 -0.2727 -0.3209
12420W        W29268   6.278   1.340  16.483  0.3731  0.2477  0.3041
12421W        W29269  17.660   8.287   2.794  0.0301  0.1090 -0.1391
12422W        W29270  10.604   1.017   0.904  0.0888  0.1203 -0.2688
12423W        W29271  17.370   6.744  12.029  0.1271  0.2869 -0.0778
12424W        W29272  15.377   2.150  10.922 -0.0521  0.0885  0.3205
12425W        W29273  11.012  11.000  15.204  0.1901  0.2132  0.0631
12426W        W29274   4.034   7.943   5.086 -0.0600 -0.1553  0.3163
12427W        W29275   4.011   9.312   0.006  0.2254  0.1198 -0.0989
12428W        W29276  13.413   0.497   5.175 -0.2196 -0.2356 -0.1206
12429W        W29277   6.388   2.127  14.612  0.0869 -0.1317  0.0315
12430W        W29278   8.647  14.806   2.871 -0.0084  0.2458 -0.3553
12431W        W29279  14.807   7.608   3.408  0.0145  0.2586  0.4610
12432W        W29280   8.246   5.512   4.032  0.2495 -0.2430  0.0290
12433W        W29281  17.203   5.938  14.576  0.0336 -0.3374  0.1321
12434W        W29282   0.926  14.709  14.149  0.2894 -0.0874  0.1297
12435W        W29283  16.331   8.306  15.510 -0.2053  0.0825 -0.0031
12436W        W29284   4.366  12.168  11.381  0.2810  0.0538 -0.1959
12437W        W29285   7.176   1.348  11.436 -0.1721 -0.0689 -0.2227
12438W        W29286  16.803  12.536  10.518  0.1217 -0.1409  0.1885
12439W        W29287   9.412   0.250  13.013 -0.2069 -0.3392  0.1753
12440W        W29288  12.902   0.562   4.677  0.1347  0.0156 -0.1162
12441W        W29289   7.312  10.831   2.326  0.0982  0.2809  0.0203
12442W        W29290   2.779  13.877  15.108  0.3960 -0.0601 -0.0749
12443W        W29291   1.213  14.870  12.526 -0.1110  0.1946  0.1936
12444W        W29292  13.465   3.877   2.244  0.0618 -0.1304  0.0268
12445W        W29293  17.727   3.622   0.214 -0.1114 -0.1844  0.1331
12446W        W29294   8.216   6.952  12.644  0.0174  0.1479  0.3939
12447W        W29295  16.612   0.676  14.655 -0.0384 -0.0526  0.3404
12448W        W29296  13.098  17.832  12.136 -0.3228 -0.0367  0.1516
12449W        W29297   0.592  16.110   1.688  0.1591  0.2918  0.1196
12450W        W29298   2.247  16.028  14.105 -0.0131  0.3050 -0.0735
12451W        W29299  17.843  10.963   1.228 -0.0303 -0.3115 -0.1004
12452W        W29300   3.368   3.513  16.147 -0.1010 -0.1498  0.1686
12453W        W29301  13.627   9.448   5.010 -0.0123  0.2091 -0.0071
12454W        W29302  13.873  11.907  10.490  0.2771 -0.2136 -0.0980
12455W        W29303   8.207   1.984   5.076  0.2868  0.0497  0.3152
12456W        W29304   3.434  16.327  14.637  0.3570 -0.3702 -0.0051
12457W        W29305  13.748   7.487   3.991  0.1715  0.0577 -0.0378
12458W        W29306  15.166   0.076  11.696 -0.1070  0.3437 -0.0510
12459W        W29307  14.552   1.734  15.267 -0.1074 -0.0737 -0.0938
12460W        W29308   0.691   0.131  11.895  0.1335  0.0278 -0.0361
12461W        W29309  16.335  15.934   4.432  0.3510 -0.2482  0.0277
12462W        W29310   3.938   5.745   2.596  0.1433 -0.1326 -0.0163
12463W        W29311   6.785  15.459   4.403 -0.2686 -0.2954  0.1800
12464W        W29312  13.100  14.404   1.603  0.0398  0.0985  0.1721
12465W        W29313  17.155   8.102  13.955  0.2597 -0.5868  0.3396
12466W        W29314  14.147  17.452  12.953 -0.0819  0.1928  0.0060
12467W        W29315  13.804   2.632  14.550  0.0934  0.1414 -0.1103
12468W        W29316  17.821   9.916  10.984  0.3024 -0.1467 -0.2853
12469W        W29317   0.177   5.990  13.770 -0.0352  0.0893  0.0974
12470W        W29318   9.404   5.613  13.566  0.2648  0.0482  0.2777
12471W        W29319   5.925  16.108   3.837 -0.0573  0.1579  0.0626
12472W        W29320  15.008  14.376   4.728 -0.2139  0.0140  0.0997
12473W        W29321  16.971   3.508  14.024 -0.2705  0.0158  0.1359
12474W        W29322  11.830   4.978  16.002 -0.2468 -0.3231 -0.2835
12475W        W29323   7.846   4.066   1.670 -0.3238 -0.2650  0.1723
12476W        W29324  14.669   5.911   5.536 -0.0255  0.0547  0.1054
12477W        W29325   8.731  17.404   5.467  0.2495 -0.0112 -0.0670
12478W        W29326   0.151   8.349  11.167  0.3462 -0.4722  0.3261
12479W        W29327  15.169   0.429   0.559 -0.1216  0.1996  0.1172
12480W        W29328   8.230  15.671   4.760 -0.2239  0.2158 -0.1420
12481W        W29329   2.343   6.461   3.155  0.1032  0.0599 -0.0005
12482W        W29330  15.879   9.906   2.695 -0.1923  0.0132  0.2392
12483W        W29331  14.134  16.944   4.233  0.2604 -0.2076  0.1137
12484W        W29332  12.088   5.660  14.475  0.0094 -0.0900 -0.0134
12485W        W29333   1.536   2.555  14.098  0.1005 -0.0272 -0.3316
12486W        W29334  15.482  14.625   1.341  0.0982 -0.0792 -0.3207
12487W        W29335   0.159  11.973   4.785  0.0660 -0.0398 -0.2259
12488W        W29336  17.366  16.612   0.083  0.2384  0.0975  0.0696
12489W        W29337  11.916   6.780  10.910  0.0455 -0.0719 -0.2280
12490W        W29338   2.932  16.325   3.838 -0.1371  0.1546  0.0327
12491W        W29339  16.994  14.807  12.815 -0.1169 -0.1988  0.0056
12492W        W29340   8.917   4.596   0.244 -0.3022  0.2321 -0.1548
12493W        W29341   2.468   5.120  14.663 -0.2564  0.3354  0.0918
12494W        W29342   0.715  13.214   4.893 -0.0066  0.6303 -0.0394
12495W        W29343  15.437   3.095  11.925 -0.1591  0.0712  0.0958
12496W        W29344   5.556  11.824  16.009  0.1372 -0.0970  0.0414
12497W        W29345   2.600  14.490  12.413 -0.1736 -0.0486 -0.1039
12498W        W29346  16.881   6.855   3.416 -0.1530  0.1322  0.0161
12499W        W29347  15.494   5.673   6.108 -0.2260  0.2206 -0.1032
12500W        W29348   4.911   9.749  13.626 -0.1939  0.1826 -0.1346
12501W        W29349  13.162  16.713  14.457  0.2580 -0.1351 -0.0623
12502W        W29350   0.982  15.658  15.471  0.4396 -0.1541  0.3135
12503W        W29351  15.346  17.378  13.613  0.1940 -0.2183  0.1581
12504W        W29352  10.276   8.369  15.277  0.1309 -0.0229 -0.1389
12505W        W29353   7.460   7.658  13.792  0.0576 -0.0755  0.1285
12506W        W29354  10.570  14.346   0.878 -0.0697 -0.2098 -0.2903
12507W        W29355   9.521   6.270  16.217 -0.1196 -0.1530 -0.2272
12508W        W29356   9.741  12.349  14.654  0.1147  0.0729  0.2942
12509W        W29357   1.336   6.068  12.471 -0.1372  0.0386 -0.3986
12510W        W29358  12.335   8.418   0.499 -0.0092  0.1604  0.2155
12511W        W29359   5.871   9.491  12.242 -0.1906  0.1642 -0.0056
12512W        W29360  16.695   4.079   1.719 -0.2357  0.1812  0.2278
12513W        W29361  10.977  12.191  13.730  0.1060 -0.1086 -0.0044
12514W        W29362   9.062  14.215  12.512 -0.1048 -0.2035  0.1509
12515W        W29363  11.605  12.685  10.781  0.0767 -0.1664  0.2937
12516W        W29364   8.110   0.196   5.909 -0.0174  0.0493 -0.0557
12517W        W29365   4.377   7.786   0.884 -0.1025  0.0508  0.0473
12518W        W29366   5.196   0.610  15.398  0.0742  0.1312  0.1785
12519W        W29367   7.837   7.197  15.822 -0.2609 -0.2653  0.1720
12520W        W29368   4.276  16.015  15.265 -0.1789 -0.1205 -0.0633
12521W        W29369   8.080  12.328  11.750 -0.0076  0.0634 -0.2421
12522W        W29370   2.373   7.096  11.317  0.2603  0.3068 -0.2511
12523W        W29371  11.309   8.247  13.231  0.1706 -0.2223 -0.2807
12524W        W29372  12.173   7.029  12.656 -0.1375 -0.0646  0.1641
12525W        W29373  12.525  17.646   3.447  0.1415 -0.1890  0.0986
12526W        W29374   9.454  15.772   3.758  0.1740  0.1533  0.2320
12527W        W29375   8.305  10.038  13.666  0.0371  0.1941 -0.3067
12528W        W29376   9.416  13.094  11.631  0.0192  0.0561 -0.1718
12529W        W29377   8.203   3.989  12.918 -0.0516  0.0425  0.0866
12530W        W29378  10.596  12.689  12.266  0.1003 -0.0139  0.0898
12531W        W29379  10.356   3.142  14.720  0.4515  0.0922  0.1510
12532W        W29380   7.058  14.678   0.781  0.2570 -0.1374 -0.0226
12533W        W29381   8.441   1.205   5.576 -0.3026 -0.1368  0.1543
12534W        W29382   3.394  13.921   2.737 -0.1028  0.0298 -0.1961
12535W        W29383   3.157   4.546  16.156 -0.0474 -0.0541 -0.1207
12536W        W29384   6.996  11.826  14.756  0.1053 -0.0083  0.2822
12537W        W29385   6.941   8.363   0.327 -0.0090  0.0458  0.2008
12538W        W29386  13.140   4.823   0.469  0.1348  0.2337 -0.3162
12539W        W29387  16.926   3.928  14.886  0.3577  0.0209 -0.0585
12540W        W29388  15.123   5.687   4.095  0.0316  0.0583 -0.5347
12541W        W29389   9.269   2.411  15.497  0.3164 -0.1187  0.0444
12542W        W29390  14.230   0.931  12.113 -0.1351 -0.3209  0.0179
12543W        W29391   0.871   2.267  11.298 -0.3631  0.0632  0.2542
12544W        W29392   4.191  13.473  15.640  0.0585 -0.0031  0.2929
12545W        W29393  11.954  11.025  14.589  0.4019  0.1558  0.3656
12546W        W29394  15.799   4.832  15.102 -0.0574  0.3464  0.1463
12547W        W29395  16.607   1.326  12.026  0.0655  0.4446  0.1605
12548W        W29396  10.419   5.364  14.968 -0.1213  0.0013  0.0127
12549W        W29397  13.648   1.247   4.702  0.0876  0.0816  0.0336
12550W        W29398  13.343  10.392  10.481  0.0488  0.0163 -0.3310
12551W        W29399   2.104   1.175  14.796  0.1170 -0.0751 -0.2301
12552W        W29400  16.923   0.106  11.996  0.1957 -0.1822 -0.0113
12553W        W29401   0.616   7.892  13.942 -0.1962  0.2323 -0.0947
12554W        W29402   1.890   7.553   2.768 -0.2305  0.0309 -0.1712
12555W        W29403   7.986   7.642   1.549 -0.2176  0.0309 -0.0515
12556W        W29404   7.821  17.514   3.440  0.5706 -0.1307  0.3771
12557W        W29405   2.324   6.669  13.014 -0.0375 -0.0032  0.1015
12558W        W29406   1.202   3.361  12.833  0.1466 -0.1740  0.0640
12559W        W29407   2.541   8.892  13.742 -0.1362 -0.0710 -0.1327
12560W        W29408   5.099   1.792  12.329 -0.2856 -0.1900  0.3468
12561W        W29409  14.691   6.103  11.240 -0.3212 -0.0221 -0.0285
12562W        W29410   1.449   8.640  12.958  0.1370 -0.3503  0.3085
12563W        W29411  17.559   6.654  16.319  0.0492  0.2866 -0.1369
12564W        W29412  13.836   8.964   3.463 -0.2240 -0.0297 -0.0806
12565W        W29413  14.290  16.672   5.196  0.0748  0.1612 -0.2196
12566W        W29414   2.628   6.687   3.990 -0.0932 -0.0497  0.1918
12567W        W29415   2.548  11.557   0.008  0.2047 -0.0428  0.1801
12568W        W29416  13.513   0.597  14.539  0.0736 -0.0708  0.0760
12569W        W29417   1.215   8.661  12.493 -0.1908 -0.5623 -0.1366
12570W        W29418   4.940  11.705   2.364  0.1632  0.0166 -0.1188
12571W        W29419  13.286  13.921  16.537 -0.2141  0.0305 -0.2580
12572W        W29420   2.242   0.908   4.241  0.0898  0.1667 -0.1179
12573W        W29421   4.315   7.544   4.965 -0.5319  0.0961  0.0662
12574W        W29422  17.456   8.390  13.075 -0.3494  0.1218  0.2529
12575W        W29423  12.801   7.545   3.911 -0.3119  0.1653 -0.0587
12576W        W29424  16.232   6.364  11.107  0.0661 -0.1249  0.0836
12577W        W29425   6.946   6.967   3.812  0.0234  0.0323  0.1410
12578W        W29426   4.231  14.002   3.252  0.4268 -0.0842 -0.3347
12579W        W29427  11.854  12.566  15.622  0.1503 -0.1703  0.1368
12580W        W29428   2.241   8.931   2.383 -0.0047 -0.0372 -0.0422
12581W        W29429   4.614  13.664  11.357 -0.2188 -0.1236 -0.2725
12582W        W29430   4.656   2.352   3.558  0.0497  0.1178 -0.0247
12583W        W29431   3.472   6.255   1.037  0.0714  0.1774  0.0282
12584W        W29432  17.656   2.138   1.335 -0.3585  0.1701 -0.2415
12585W        W29433  14.013   5.346   4.406  0.0733  0.4067  0.1158
12586W        W29434  12.735   3.353  16.226 -0.0301  0.1611  0.2107
12587W        W29435   4.892  16.528   0.940 -0.3582  0.0390 -0.0266
12588W        W29436   5.614  12.236   0.809 -0.1702 -0.0995  0.1313
12589W        W29437   0.013   4.344   3.745  0.2186 -0.0464  0.2758
12590W        W29438   1.025   3.382   2.946 -0.0342  0.0396 -0.0253
12591W        W29439  16.480   1.352  14.090 -0.0076 -0.1597 -0.0975
12592W        W29440  10.294  13.665   4.457  0.1742  0.0805  0.2853
12593W        W29441   8.390   5.273   0.771 -0.4555  0.0548 -0.1187
12594W        W29442   2.787  10.658   3.839  0.2805  0.0778 -0.3184
12595W        W29443   6.696   4.380   3.144 -0.1581 -0.0129  0.2149
12596W        W29444   8.416   7.438   1.455 -0.2922  0.1914  0.0274
12597W        W29445   2.610  12.634   2.427 -0.5769  0.0497 -0.1083
12598W        W29446   7.556   9.661  13.416  0.3159 -0.0871 -0.0055
12599W        W29447   5.616   6.797   3.675 -0.2047  0.2387 -0.3506
12600W        W29448   6.791   6.632  12.503  0.3519  0.1486 -0.2892
12601W        W29449   2.084  16.308  13.320 -0.4692  0.3394  0.0543
12602W        W29450   3.533   0.700   2.917  0.4402 -0.3641 -0.2461
12603W        W29451  15.344   0.634   0.962 -0.4245  0.0320  0.2768
12604W        W29452  10.180  13.775  16.610 -0.4111  0.1906 -0.3745
12605W        W29453  16.530   0.948  12.390 -0.1524  0.0217  0.2474
12606W        W29454  13.806  13.896   0.556  0.2001 -0.1187 -0.2160
12607W        W29455  15.533  12.422   2.912  0.0533  0.1181  0.2644
12608W        W29456  16.953   8.954  11.706  0.0357 -0.3003  0.0527
12609W        W29457   1.948   4.903   0.572  0.0357  0.0542  0.0870
12610W        W29458  10.372  14.710   0.391 -0.0861 -0.0323  0.2631
12611W        W29459  15.986  10.552  15.920 -0.3964  0.0114  0.3214
12612W        W29460  12.953   6.517   0.325  0.2663 -0.0406 -0.0013
12613W        W29461  16.169  14.108   3.743 -0.0370 -0.1108  0.0532
12614W        W29462  16.893  14.745   1.922 -0.4249  0.0669  0.0694
12615W        W29463   8.584   6.317   1.071 -0.2219 -0.2248 -0.0507
12616W        W29464   5.791   0.203  13.575 -0.1313  0.0067  0.0467
12617W        W29465   7.761  12.860   1.018  0.2310 -0.1411 -0.1294
12618W        W29466   8.334  14.632   3.756 -0.1361  0.1604  0.0505
12619W        W29467   4.741  12.673  15.302  0.0500 -0.0510  0.1415
12620W        W29468  11.588   0.947  14.653 -0.2178  0.1965 -0.0987
12621W        W29469   9.312  12.808   3.189  0.3139  0.0525 -0.4617
12622W        W29470   6.694   1.416   2.591 -0.1251 -0.2720  0.1812
12623W        W29471  11.711   4.675   3.338  0.1627 -0.2882  0.0550
12624W        W29472   5.380  12.147  13.734  0.1815  0.0211 -0.4268
12625W        W29473  12.986  13.947  15.503  0.4738  0.2038  0.1351
12626W        W29474  11.365   5.728  13.937 -0.1547  0.1165 -0.1051
12627W        W29475  13.993  14.569  16.276  0.0332 -0.2301  0.2268
12628W        W29476   6.827   3.086   4.491 -0.0251  0.0594  0.0084
12629W        W29477   7.721   8.974   0.059  0.0969 -0.0324  0.1843
12630W        W29478  10.812  16.883   3.483  0.0946  0.3047 -0.2469
12631W        W29479   7.934  14.002   4.827 -0.0513 -0.0841 -0.0166
12632W        W29480   1.599   6.481  13.637 -0.1905  0.0837 -0.2748
12633W        W29481   7.834  15.568   0.533  0.0620 -0.1392 -0.3679
12634W        W29482   1.584   4.105  12.034 -0.1938 -0.0904  0.1406
12635W        W29483   4.040   6.184  16.234 -0.1175 -0.1543  0.1227
12636W        W29484  15.235   5.881  11.796 -0.2839 -0.0114 -0.0077
12637W        W29485   5.774  14.558  11.904  0.2588  0.1501  0.1709
12638W        W29486  10.177  16.345   1.347  0.1907  0.1865 -0.0447
12639W        W29487   8.976   7.830  12.641 -0.2124  0.0315  0.0403
12640W        W29488   2.397   0.626   3.856 -0.1167 -0.0150  0.1011
12641W        W29489   4.201   0.954  15.552 -0.0621  0.3334  0.0035
12642W        W29490   3.014  15.593  13.922  0.1310 -0.3420  0.2112
12643W        W29491  15.406  17.733  15.876 -0.0343  0.0521 -0.4225
12644W        W29492   4.942   1.567   4.052  0.0684  0.4490 -0.0374
12645W        W29493  15.254   9.849  15.149  0.4292  0.3031  0.2776
12646W        W29494   2.144  10.592   0.761 -0.0788  0.0937  0.1702
12647W        W29495   3.302   9.329  15.568  0.0330 -0.0969  0.1562
12648W        W29496   7.173   9.531  15.099  0.1513 -0.0439  0.4080
12649W        W29497   3.145   3.002  15.373  0.2066  0.2245 -0.2987
12650W        W29498  14.089  13.598   4.001  0.3460  0.0097 -0.1560
12651W        W29499   5.994  13.771   3.984 -0.0780 -0.0634 -0.0376
12652W        W29500  17.052  11.104  12.157 -0.1465  0.0040  0.0749
12653W        W29501   4.741  11.170  14.927 -0.1796 -0.0717 -0.4020
12654W        W29502   6.407   8.256  11.003 -0.3247 -0.1901 -0.4183
12655W        W29503  17.749   1.120   1.263  0.0127  0.2571 -0.1485
12656W        W29504   5.154   8.488  13.022 -0.1197  0.1050 -0.0593
12657W        W29505   5.750  15.901   1.881  0.0361 -0.1181 -0.1523
12658W        W29506   2.497  14.971  12.211 -0.3172  0.1015  0.2753
12659W        W29507  16.951   8.949   4.309 -0.1992  0.3093  0.0089
12660W        W29508  10.434  12.205   4.331  0.0591  0.0882 -0.0814
12661W        W29509  16.399  17.084  15.239 -0.0892 -0.2332  0.0809
12662W        W29510  15.207  16.683   0.387  0.0107 -0.1764  0.1241
12663W        W29511   1.411   9.863   2.978 -0.2957 -0.2060  0.2765
12664W        W29512   1.323  13.348  14.411  0.0883 -0.0585  0.0810
12665W        W29513  14.130  10.663   0.814  0.2399 -0.0415 -0.2865
12666W        W29514  14.316   4.832   3.080 -0.0326 -0.0642 -0.0920
12667W        W29515   3.645   5.080  13.985 -0.0031  0.2816  0.1905
12668W        W29516   0.616  13.209  14.061 -0.1318 -0.0597 -0.2443
12669W        W29517  15.123   6.789   0.148 -0.2371  0.1162  0.0788
12670W        W29518   4.902   4.206  14.042 -0.0048 -0.0979 -0.0185
12671W        W29519   2.827  15.803  11.971  0.0012 -0.1161  0.1558
12672W        W29520   9.446   0.014   4.074 -0.0942 -0.1337 -0.0264
12673W        W29521  10.779   9.574   4.392  0.3652 -0.0572  0.1519
12674W        W29522  11.531  10.504  14.019 -0.0362  0.1107  0.2989
12675W        W29523  13.554   8.542  12.638  0.0611 -0.0337  0.1294
12676W        W29524   5.321  11.100   1.862  0.0526 -0.0612  0.0148
12677W        W29525  17.500  14.557  12.746  0.4527  0.0461 -0.0001
12678W        W29526  15.408   4.914  14.849  0.0058 -0.1438 -0.1366
12679W        W29527  11.473   8.013   4.848  0.1529  0.0414 -0.1303
12680W        W29528  13.310  12.298   0.745  0.1039  0.0107 -0.0129
12681W        W29529  16.765   9.327   5.403 -0.1208  0.1416  0.2962
12682W        W29530   9.343   3.090  12.044 -0.1464  0.1966  0.0009
12683W        W29531   8.592  11.212   0.933 -0.0260 -0.0723  0.0717
12684W        W29532   6.154   8.558   5.517 -0.3048  0.2658  0.0565
12685W        W29533   8.329  15.599   2.526 -0.1777 -0.1813  0.1045
12686W        W29534   9.098  16.754   4.416  0.0366 -0.0833 -0.0355
12687W        W29535  16.466   2.179   3.453  0.0958  0.0228 -0.0420
12688W        W29536   8.284   1.918  12.075 -0.0676 -0.0863 -0.0131
12689W        W29537   0.047   6.932  10.972 -0.1389 -0.0708  0.0453
12690W        W29538  13.955  13.645   0.926 -0.3323  0.2091 -0.0823
12691W        W29539  14.912  14.951   0.613  0.0646 -0.1922 -0.0799
12692W        W29540  13.360   9.976  12.632  0.1380  0.0351  0.1214
12693W        W29541  10.265  13.538  16.197 -0.1954 -0.1739  0.2564
12694W        W29542  14.018  13.613   3.476  0.0115 -0.0579 -0.2870
12695W        W29543  11.133  17.641  15.165 -0.2774  0.3552 -0.3843
12696W        W29544   2.061   8.088  15.800 -0.1528  0.0315  0.1767
12697W        W29545   4.500   9.053   5.296  0.2651 -0.1667 -0.0168
12698W        W29546  15.069   3.700  13.025 -0.1190 -0.1348  0.1901
12699W        W29547  11.748   8.438  15.057  0.0279 -0.0956  0.1344
12700W        W29548   2.972  15.614   2.352  0.1862 -0.0950 -0.1989
12701W        W29549  13.934  12.804  15.956 -0.0181 -0.0319  0.2575
12702W        W29550   9.581  17.102   3.683 -0.2985  0.0635 -0.1965
12703W        W29551   5.206   1.409  15.809 -0.0653  0.2263  0.1361
12704W        W29552  11.682  17.207  13.860 -0.2699  0.1714 -0.0776
12705W        W29553  15.957  15.216   0.132  0.2745 -0.2323 -0.2624
12706W        W29554   1.796  13.950   0.529  0.0043 -0.0989  0.0263
12707W        W29555  17.222   4.074   6.241 -0.1005  0.0341 -0.0962
12708W        W29556   2.803   4.611  11.340  0.1987 -0.2069  0.1177
12709W        W29557  15.373  10.725   4.076  0.2111 -0.1302 -0.2989
12710W        W29558   3.498  17.676   2.519 -0.1338 -0.1663 -0.2915
12711W        W29559  12.771  16.297  13.456 -0.1045 -0.3248 -0.1610
12712W        W29560   2.390   8.040   3.773  0.0044 -0.0781  0.0542
12713W        W29561  11.262   0.537   2.478 -0.1343  0.2114 -0.0038
12714W        W29562   6.217  14.732  15.379  0.4195 -0.3285  0.1292
12715W        W29563  17.390   9.878   3.785 -0.0161 -0.2971  0.2573
12716W        W29564   5.763  11.196   2.603 -0.4064 -0.1589  0.3193
12717W        W29565   7.797  10.097   0.486  0.1066 -0.1227 -0.1962
12718W        W29566   7.229  16.541   5.447  0.0472  0.0422 -0.1145
12719W        W29567   9.444   6.535   2.474  0.1295 -0.1594 -0.4002
12720W        W29568   1.521  13.845  11.740  0.0905  0.0132 -0.1315
12721W        W29569   1.228   4.236  12.693  0.0508 -0.3491  0.1160
12722W        W29570   2.421   9.876   4.918 -0.0924 -0.1467  0.2164
12723W        W29571  11.013   6.921  15.851  0.0053 -0.1029 -0.2067
12724W        W29572  17.615   4.047   1.598  0.3429 -0.1840 -0.0483
12725W        W29573  12.652  15.308   3.964  0.1820 -0.0197 -0.2918
12726W        W29574  14.422   0.575  12.386  0.0911  0.1371  0.1884
12727W        W29575   0.521  12.372   4.775 -0.0666  0.0591  0.1963
12728W        W29576   0.777   8.225   4.349  0.0028  0.0592  0.1764
12729W        W29577   1.405  14.220  14.775 -0.0633  0.2204  0.3075
12730W        W29578   8.081  11.533  12.817 -0.0360  0.1263  0.1013
12731W        W29579   9.834   0.792   1.746 -0.2208  0.1464  0.1604
12732W        W29580   7.474   3.261  12.074 -0.2807  0.1260 -0.0332
12733W        W29581   5.322   7.294  13.435  0.1950  0.0324  0.0784
12734W        W29582  11.621   5.072   1.253  0.0139 -0.1375  0.1756
12735W        W29583  17.729   6.481   4.382  0.0448 -0.2618 -0.2591
12736W        W29584   4.351   8.499  14.191 -0.2807  0.0006  0.0765
12737W        W29585  14.566  12.373   3.409  0.1339  0.1863 -0.2379
12738W        W29586  12.094   4.493   0.516 -0.1360 -0.3162 -0.1690
12739W        W29587   7.609   8.017  14.084 -0.1296 -0.0509  0.1001
12740W        W29588  13.435  16.182   0.599 -0.2543  0.0071  0.1979
12741W        W29589  17.537   9.281  16.218 -0.2655  0.1179 -0.1672
12742W        W29590  15.691  13.841  14.519 -0.1673  0.3851  0.0425
12743W        W29591  13.999   7.747   0.439  0.0261 -0.0654  0.2254
12744W        W29592  13.620   8.589  14.792  0.4499 -0.0557  0.0244
12745W        W29593  12.613  14.621  16.202  0.0830  0.5271 -0.2645
12746W        W29594  10.841   8.622   1.324  0.1009 -0.1344  0.0082
12747W        W29595  11.992   4.462  11.792 -0.2026 -0.1234  0.0502
12748W        W29596   8.787   9.011   4.468 -0.0425  0.0492  0.1382
12749W        W29597  13.359   0.748  13.214 -0.1102 -0.0641 -0.3114
12750W        W29598   9.459   9.257   5.103 -0.0365 -0.2624 -0.3968
12751W        W29599  15.184  16.044   6.206  0.2339  0.3513 -0.1519
12752W        W29600  13.908   5.342   0.555  0.1850 -0.0542 -0.0130
12753W        W29601  13.238  11.762   0.091  0.0775  0.3626 -0.0941
12754W        W29602   8.004  10.040  14.332  0.0441  0.0036 -0.1010
12755W        W29603  10.278  14.545  13.832  0.0814  0.2900  0.0607
12756W        W29604   6.737  13.869   5.208 -0.1367 -0.0441 -0.0832
12757W        W29605   2.668  10.645   0.716 -0.0257  0.1635 -0.2063
12758W        W29606   6.492   6.559  14.109 -0.2767 -0.1545  0.1897
12759W        W29607  14.279   2.334  13.217 -0.0451  0.2705 -0.0726
12760W        W29608   3.117  14.542  14.773  0.1656  0.1615 -0.3425
12761W        W29609   2.438  12.715  13.516  0.1353  0.2547 -0.0099
12762W        W29610   0.133   1.456   3.035  0.1682  0.4123  0.0848
12763W        W29611   6.523   2.380  12.617  0.1742 -0.2361 -0.0769
12764W        W29612  13.619   7.994   5.113 -0.0640  0.1617  0.0392
12765W        W29613  17.234   2.447   2.461 -0.0903  0.0264 -0.1910
12766W        W29614  12.939   9.623   2.220  0.0888  0.1625  0.0289
12767W        W29615   9.752   9.886   0.103 -0.1038  0.0388  0.0052
12768W        W29616   1.088  14.151   2.156  0.1475 -0.1543  0.0991
12769W        W29617   2.504   0.771   5.367  0.2489  0.0475 -0.1528
12770W        W29618  17.564   2.450   2.054  0.1891  0.0658  0.0466
12771W        W29619   5.758   0.608  15.460  0.1879  0.4109 -0.0421
12772W        W29620   9.611   9.836  12.262 -0.0276 -0.2111 -0.2740
12773W        W29621   6.601  16.599   1.047 -0.3711  0.0149  0.3535
12774W        W29622  15.394  14.578   2.838  0.1358  0.0457 -0.0813
12775W        W29623   8.254  14.329  11.671 -0.1397  0.1167 -0.3085
12776W        W29624  16.636  11.984  12.229  0.0836 -0.1396 -0.1962
12777W        W29625   8.603  14.250   0.383 -0.3380  0.0321 -0.0004
12778W        W29626   4.577   4.555  15.349  0.1139  0.1643  0.0284
12779W        W29627  17.122   4.577  12.198  0.0409 -0.1038 -0.2097
12780W        W29628   8.888   8.182   3.973 -0.1271 -0.0162 -0.0561
12781W        W29629  11.395   5.845   3.695 -0.4321 -0.0834  0.0278
12782W        W29630  10.468  13.258   0.040  0.0719 -0.1148  0.2458
12783W        W29631  10.642  15.413  11.482 -0.1213 -0.0126  0.1640
12784W        W29632   2.243   7.397   1.097 -0.0820  0.2528 -0.0014
12785W        W29633   5.758  10.971   1.061  0.3308  0.2147  0.5370
12786W        W29634   4.294   9.882   4.271 -0.0078  0.2733  0.2951
12787W        W29635   1.792  15.407   1.420  0.0208 -0.0828  0.0480
12788W        W29636   1.550  16.502  11.780  0.0870  0.0290  0.4023
12789W        W29637   7.266   4.729   0.154  0.0825  0.0402 -0.0168
12790W        W29638  11.145   0.730  15.488  0.6744  0.1244 -0.3095
12791W        W29639   0.724   6.584  14.447 -0.0069  0.4164 -0.0548
12792W        W29640   5.213  17.272   2.541  0.0643  0.0804  0.0123
12793W        W29641   9.444   4.186  11.751  0.2816 -0.2868  0.0647
12794W        W29642   8.443  10.517   3.090 -0.0298  0.2653 -0.1931
12795W        W29643   3.443   6.479   4.221 -0.0815 -0.3333  0.0727
12796W        W29644   0.742   9.169  14.521 -0.0707  0.3656 -0.0242
12797W        W29645   4.339   3.755   3.554  0.2612 -0.0800 -0.0690
12798W        W29646  13.090   3.418   3.243 -0.2814 -0.2218  0.0008
12799W        W29647   1.731   9.386  13.995 -0.2417 -0.0396  0.0853
12800W        W29648  14.036  12.088  12.963  0.4205 -0.3406 -0.0319
12801W        W29649  16.648   8.130  11.464 -0.0366  0.0486 -0.0373
12802W        W29650   8.384  12.893  11.885  0.0013 -0.0975  0.3687
12803W        W29651   2.825   7.728   0.711 -0.1323  0.1508 -0.0877
12804W        W29652   2.783   2.150   0.163  0.0648 -0.0438  0.0236
12805W        W29653   5.289   7.491  11.752 -0.1577 -0.1971  0.0163
12806W        W29654   1.268   0.512   1.095 -0.1052  0.0761 -0.0311
12807W        W29655   4.362   9.378  14.140  0.1288 -0.2247  0.1894
12808W        W29656  16.963   8.146  13.422  0.0579  0.2150  0.0520
12809W        W29657  14.185  16.459  13.830  0.2094 -0.0228  0.1752
12810W        W29658  11.436   7.253  13.066  0.1798 -0.0757 -0.0286
12811W        W29659   0.557  13.696  11.505 -0.1473  0.0918  0.2414
12812W        W29660  10.223   2.811  15.203  0.0264 -0.4159 -0.0360
12813W        W29661   4.382  10.187  14.849  0.1759  0.2271  0.0968
12814W        W29662   5.164  15.479   1.408 -0.1437 -0.1697  0.2659
12815W        W29663   9.121   9.657  16.186  0.1434  0.0625 -0.1786
12816W        W29664  11.502  11.149   1.561 -0.0214 -0.3475  0.0716
12817W        W29665  13.184   9.386  13.436  0.1265 -0.0281  0.1390
12818W        W29666  11.439   8.019   1.729 -0.1009 -0.0291 -0.2356
12819W        W29667   3.896  15.185  16.207  0.1736  0.0176 -0.2811
12820W        W29668   5.977  15.810   0.920  0.0986  0.2870  0.0253
12821W        W29669  15.644   9.112   0.179  0.1801  0.0269  0.3170
12822W        W29670   3.708   2.898  13.829 -0.0279 -0.1250  0.0032
12823W        W29671   1.390  17.439   2.286  0.1918 -0.1907  0.0939
12824W        W29672   9.790  15.572  12.866  0.0540 -0.2669  0.0138
12825W        W29673   6.930  16.300   1.431  0.2583  0.0256  0.2779
12826W        W29674   5.679   2.482   4.403 -0.1596 -0.2985 -0.0384
12827W        W29675  14.010   9.991   4.316 -0.0045  0.1414  0.0134
12828W        W29676  10.334   7.242  16.110 -0.2910  0.0507  0.2648
12829W        W29677  15.629   1.019   3.508  0.4027 -0.2220  0.1233
12830W        W29678   7.304   0.334  13.502 -0.0727  0.2056  0.2603
12831W        W29679   8.764   5.371  13.115 -0.2514 -0.0760  0.1040
12832W        W29680   9.320   0.753  12.485  0.1138  0.1396  0.1206
12833W        W29681   5.943  15.299   1.740  0.1980 -0.2547 -0.0608
12834W        W29682   1.710  14.975  15.107 -0.0339 -0.0153 -0.3006
12835W        W29683  11.940   2.241  10.713  0.0475  0.2340 -0.1740
12836W        W29684   1.944   4.447   4.658  0.1170  0.0536 -0.0641
12837W        W29685   2.826  17.332   5.336 -0.0257 -0.0999  0.5262
12838W        W29686   3.046  16.449  12.023 -0.4920 -0.1863 -0.0732
12839W        W29687   0.251   7.561   1.216  0.6151 -0.3547 -0.0096
12840W        W29688   1.624  14.405   1.341  0.0588  0.0493  0.1086
12841W        W29689   9.217   7.127  14.406  0.1326 -0.2028 -0.1834
12842W        W29690  15.777   7.830  13.105  0.1443 -0.0987 -0.0258
12843W        W29691  12.914   8.365  16.261  0.0253 -0.4351  0.0872
12844W        W29692  15.647  17.560  15.022  0.0292  0.2771 -0.1243
12845W        W29693  13.954   5.627   5.901  0.0442 -0.2506 -0.0243
12846W        W29694  13.561  16.028   2.185 -0.0196  0.0463  0.0420
12847W        W29695  12.411  16.183   3.770 -0.0120  0.0258  0.1945
12848W        W29696   9.928   6.763   0.651 -0.0815 -0.0972 -0.0989
12849W        W29697   4.138   9.503   2.978  0.2457 -0.2355  0.4145
12850W        W29698   6.433  14.116   2.864 -0.2416  0.0155 -0.3439
12851W        W29699   4.343  12.181   4.888 -0.0289 -0.0856 -0.0122
12852W        W29700   6.847   9.725   1.878  0.2088  0.0196 -0.2549
12853W        W29701   8.210  17.254   0.723 -0.0307 -0.1508 -0.0393
12854W        W29702   2.820   6.299  14.268  0.3119  0.1121 -0.1251
12855W        W29703  14.020   6.082  15.959 -0.0478  0.2255 -0.2185
12856W        W29704  10.205   1.285   1.512  0.1766 -0.2152 -0.0596
12857W        W29705  10.552   6.290  16.542 -0.1486 -0.0885  0.0608
12858W        W29706   0.154  16.075   0.643 -0.0761 -0.2165 -0.0526
12859W        W29707   2.688   5.094  12.794 -0.2288 -0.0342  0.1875
12860W        W29708   4.420  12.789  15.664 -0.0608  0.1643 -0.1070
12861W        W29709   3.883  14.548  15.142 -0.0174 -0.0737 -0.0686
12862W        W29710  12.602  15.793   4.278 -0.4554 -0.1292  0.0642
12863W        W29711   2.319   3.360  16.110  0.1658  0.1423  0.4263
12864W        W29712   6.299  10.800  13.990 -0.2046 -0.0833 -0.0929
12865W        W29713  10.242  13.835   4.936  0.1602 -0.1942  0.1383
12866W        W29714  14.988  13.132   4.107 -0.1304 -0.1258 -0.0837
12867W        W29715  14.132   1.027   4.957 -0.3265 -0.2065  0.0814
12868W        W29716  17.404   4.464  15.658 -0.2095  0.1961 -0.2436
12869W        W29717   3.694   3.990  14.514  0.1100 -0.0778 -0.1911
12870W        W29718   1.337  11.764   2.026 -0.0193 -0.1898  0.0319
12871W        W29719  10.859  15.267  15.238 -0.3078 -0.3239  0.0275
12872W        W29720  16.943   9.993   1.493 -0.0390  0.1520  0.2607
12873W        W29721   2.125   4.981   1.261 -0.0641  0.0444 -0.1168
12874W        W29722  16.196  15.142   2.570  0.1665 -0.0098  0.1428
12875W        W29723   5.991  15.314   1.204  0.1983 -0.0923 -0.3452
12876W        W29724  10.379  17.457   1.770  0.0182 -0.1671  0.1508
12877W        W29725   0.101   4.542   1.757  0.0094  0.2070 -0.0524
12878W        W29726  15.270   4.487  10.493  0.0068  0.1112 -0.2821
12879W        W29727   8.897   0.522   3.175  0.3676  0.1751 -0.0509
12880W        W29728  11.125   9.884  10.822  0.1321  0.2549 -0.2411
12881W        W29729   6.028   8.446  12.874  0.1253  0.2875  0.2040
12882W        W29730  17.436  15.978  16.273  0.2866  0.1098 -0.0536
12883W        W29731   1.777  14.887   1.667 -0.0819  0.0818  0.0282
12884W        W29732  11.125  15.185  12.816  0.1490  0.0271 -0.2290
12885W        W29733   3.666   4.015  10.253 -0.1001 -0.1877 -0.0062
12886W        W29734  11.720  15.062   5.186  0.3099  0.0946 -0.0823
12887W        W29735  17.364   4.628   4.541  0.0828  0.1415  0.2191
12888W        W29736   6.525   0.054   3.550  0.0850  0.3118  0.0491
12889W        W29737   2.940   7.508   5.045 -0.0308 -0.0712  0.2902
12890W        W29738   8.099   6.527   1.641 -0.2077 -0.0951  0.0856
12891W        W29739  13.577   3.479  12.006 -0.1549 -0.2577 -0.2137
12892W        W29740  10.881  10.520  14.827 -0.0990  0.1366 -0.0384
12893W        W29741   7.745   7.674   2.510 -0.1951 -0.0415 -0.2473
12894W        W29742   1.976   7.411  15.282 -0.1011 -0.3502  0.1967
12895W        W29743   7.129  15.866   1.687  0.0368 -0.0366 -0.0222
12896W        W29744   9.363  10.469  16.135  0.0175 -0.0544 -0.1862
12897W        W29745   0.830  13.912   4.031  0.1143  0.0182  0.1757
12898W        W29746   8.534  15.673  12.021 -0.0068 -0.2512  0.1122
12899W        W29747   3.017  12.404  13.824 -0.0459  0.1660 -0.1577
12900W        W29748  14.441  11.436  12.589 -0.0422  0.0662  0.0449
12901W        W29749  14.010   3.638  12.200  0.0579 -0.0774  0.0196
12902W        W29750  15.008   4.388  12.660  0.0522  0.3056  0.2405
12903W        W29751  10.834  13.870  14.064  0.0206  0.0321  0.4594
12904W        W29752  11.080  17.709  12.732  0.0487 -0.4406 -0.0985
12905W        W29753   7.069   9.198   1.058  0.0760 -0.1653  0.2339
12906W        W29754   1.481   1.132   2.928 -0.2280  0.2609 -0.0269
12907W        W29755  13.743   1.764   1.228 -0.0723  0.0100 -0.2754
12908W        W29756   8.013   7.684  13.719  0.1194  0.0192 -0.1525
12909W        W29757  12.119  14.603  11.963  0.0955 -0.2580 -0.5234
12910W        W29758  15.466   0.062  13.466 -0.0581  0.1753 -0.2867
12911W        W29759   1.405   0.383  14.469 -0.1980  0.0422 -0.2928
12912W        W29760   5.696  16.480   5.429 -0.2858  0.2018  0.0152
12913W        W29761  11.476  11.135   5.333  0.0390  0.3449  0.2953
12914W        W29762   8.937  17.656   3.752  0.0277  0.0070  0.0571
12915W        W29763  10.501  15.075  12.974 -0.0899 -0.0413  0.1460
12916W        W29764   4.999  16.253  14.039 -0.3408  0.2331  0.1514
12917W        W29765   1.434  11.306   2.867  0.1762  0.3275 -0.0217
12918W        W29766  12.215  16.214  14.612 -0.0737  0.2691  0.1293
12919W        W29767   7.514   1.262   2.455 -0.2015 -0.1701 -0.0177
12920W        W29768  13.511   8.902  14.079 -0.1881  0.1469  0.1069
12921W        W29769  13.350  14.180   0.386  0.0877 -0.2767  0.0751
12922W        W29770   0.406   1.630  11.785 -0.1126 -0.0691  0.0807
12923W        W29771   2.561  13.567  14.453  0.1257  0.1039  0.0405
12924W        W29772   9.696  13.447  14.006 -0.2371  0.0886  0.1867
12925W        W29773   1.820   1.711   3.997 -0.1079  0.2038  0.4334
12926W        W29774  12.528  15.326   4.487 -0.0288 -0.4431 -0.2351
12927W        W29775  16.143   3.992  13.765 -0.2051 -0.1179  0.4283
12928W        W29776   4.914   8.368  11.754  0.0544 -0.1162  0.1663
12929W        W29777  11.412  12.538  13.307  0.0187 -0.4890 -0.1569
12930W        W29778   0.781  16.229   1.234  0.0394 -0.2162 -0.1069
12931W        W29779  10.789   1.851   3.639 -0.3082  0.1549 -0.1811
12932W        W29780   3.480  16.477  11.760 -0.0762  0.2117 -0.1635
12933W        W29781   2.185   3.046  14.599  0.3165  0.2711  0.0376
12934W        W29782  14.965   8.406  10.734 -0.1827  0.1970 -0.2024
12935W        W29783   2.329   5.091  15.156 -0.1721  0.3096  0.0597
12936W        W29784  12.140   4.361  14.847  0.1342 -0.0118  0.2506
12937W        W29785  15.022   2.971   4.872 -0.2414  0.0272  0.1636
12938W        W29786  15.292   0.694   5.920 -0.7657  0.0166  0.1441
12939W        W29787  15.747   4.819  15.622  0.1939 -0.1051 -0.1529
12940W        W29788  10.613  10.854   5.169  0.2398 -0.0477 -0.1293
12941W        W29789   1.663  12.198   3.336  0.1195 -0.1719 -0.1374
12942W        W29790  13.060   2.782   4.621 -0.3249 -0.1405 -0.1488
12943W        W29791   9.431   9.499   4.186 -0.1405 -0.0886 -0.1458
12944W        W29792  10.678   4.968   5.086  0.2487 -0.0997  0.0261
12945W        W29793   5.907   6.966   0.306  0.0110 -0.3351  0.1701
12946W        W29794   8.748  11.224   3.541  0.2361 -0.2728 -0.1670
12947W        W29795   6.380  13.227   3.943 -0.2351 -0.1420  0.1045
12948W        W29796   5.549   7.135  16.557  0.0304  0.0376 -0.3524
12949W        W29797  16.524   2.106  16.358 -0.1814  0.0199 -0.0943
12950W        W29798   7.605  16.733  14.414  0.3248  0.1354 -0.4649
12951W        W29799   1.824  16.228   0.253 -0.1935 -0.0336  0.3279
12952W        W29800  15.023  13.641   4.333  0.3131  0.1145  0.3024
12953W        W29801  17.185  10.734  13.029 -0.2437 -0.3056 -0.1830
12954W        W29802   9.035   2.268  14.808  0.0141 -0.0039 -0.2715
12955W        W29803  16.261   0.555  12.542 -0.0673 -0.1495 -0.0027
12956W        W29804  12.280  10.207   1.614  0.0218  0.0926  0.0596
12957W        W29805   4.429   4.986  12.461 -0.1755  0.1308 -0.1641
12958W        W29806  14.838   9.429  13.893  0.0803  0.0035  0.2743
12959W        W29807   7.055   8.020   2.229 -0.1264 -0.1577 -0.0898
12960W        W29808   6.149  13.991   4.560  0.1075 -0.0194 -0.2234
12961W        W29809  14.491   9.357  16.449  0.2189 -0.1125 -0.1229
12962W        W29810  13.079   8.726  15.029  0.1768 -0.1822  0.2878
12963W        W29811  13.762   2.247  13.090 -0.0981  0.1409  0.0608
12964W        W29812   5.133   6.768  12.221  0.1448  0.2347  0.0993
12965W        W29813   1.405  14.878  13.795 -0.1786 -0.1833 -0.2337
12966W        W29814  14.528  12.517   1.649  0.3222  0.1673 -0.1108
12967W        W29815   9.596   8.947  12.812  0.0781 -0.2894  0.0594
12968W        W29816  10.579  17.704  11.786 -0.3406 -0.2548  0.1904
12969W        W29817   9.606  15.385   2.183 -0.0512 -0.3114 -0.1235
12970W        W29818  15.219  17.657  12.598 -0.0509 -0.0679 -0.2291
12971W        W29819  15.972   6.517   0.083 -0.4149 -0.0413 -0.2280
12972W        W29820   6.778  13.888  16.205 -0.0574 -0.0064  0.0035
12973W        W29821  16.151   1.863   4.770 -0.0465 -0.0530 -0.3552
12974W        W29822  10.698  12.288  10.961  0.2197  0.1162  0.0517
12975W        W29823  12.998  15.864   2.989  0.0917 -0.3302  0.0670
12976W        W29824  13.263   5.941   0.044  0.0692 -0.3067  0.2218
12977W        W29825  12.574   4.921   5.482  0.1097  0.0527 -0.0311
12978W        W29826   2.871  15.442  16.396  0.1297  0.1591 -0.4657
12979W        W29827  10.686  16.247   3.853  0.0983  0.2246 -0.1326
12980W        W29828   0.422   9.969  14.146  0.0959  0.0693  0.2350
12981W        W29829  17.407   1.809  14.448 -0.2305 -0.2359 -0.0691
12982W        W29830   4.517  11.943  14.486 -0.0327 -0.2510  0.0220
12983W        W29831  14.875   3.367  13.363  0.2143  0.0027  0.3611
12984W        W29832   0.755   2.648   4.874 -0.4806  0.0865 -0.0355
12985W        W29833   4.302   4.618   3.456  0.1943  0.0588 -0.0680
12986W        W29834  15.013   8.170  11.614  0.0102  0.0829  0.0114
12987W        W29835   6.937   6.067  11.094 -0.1067  0.0517 -0.1476
12988W        W29836   4.368   8.973   4.401 -0.4058 -0.0784 -0.2164
12989W        W29837  16.181   8.510   2.075 -0.1631  0.2585  0.4720
12990W        W29838   2.182   4.223   2.561 -0.2139 -0.1664  0.0725
12991W        W29839   3.948   6.491   2.586  0.1165  0.2119 -0.0106
12992W        W29840  13.484   6.800  15.164 -0.1781  0.1495 -0.2039
12993W        W29841   7.241   4.136  14.361  0.0799  0.1354  0.0973
12994W        W29842   3.201   2.428  12.604 -0.1491  0.3168 -0.0547
12995W        W29843   8.380   0.303  12.566  0.0362  0.1110  0.1323
12996W        W29844  13.654  13.202  16.337 -0.1792 -0.2541 -0.0449
12997W        W29845  11.414  15.027  11.910  0.1118  0.1197  0.1667
12998W        W29846  14.313   1.490  14.899 -0.1072  0.1992 -0.2901
12999W        W29847  15.571  12.857   4.776  0.5962  0.4432  0.0544
13000W        W29848  16.113   9.807   1.759 -0.1159  0.1719  0.0234
13001W        W29849  17.721   6.085   0.911  0.0111  0.1488 -0.0907
13002W        W29850  11.011  16.251  13.056  0.1340  0.2098  0.1034
13003W        W29851   6.187   7.830   1.350  0.1377 -0.0055 -0.2468
13004W        W29852   3.456   3.522  12.448 -0.1727 -0.1035 -0.0612
13005W        W29853   3.192  17.219   3.467  0.0479 -0.0366  0.2333
13006W        W29854  10.675   7.103   3.894 -0.2626  0.0260  0.1806
13007W        W29855   1.075   5.030   0.671 -0.0769 -0.1927  0.0118
13008W        W29856   4.317   2.389   4.848  0.4619 -0.0659 -0.1124
13009W        W29857  15.617  14.163   1.600 -0.0383 -0.1389  0.0700
13010W        W29858  16.601  10.343   4.300 -0.0672 -0.1351  0.2278
13011W        W29859  14.549   6.962   3.915  0.1671  0.0427 -0.1773
13012W        W29860   6.824  14.605   4.163 -0.1987 -0.1680 -0.2424
13013W        W29861   6.231   0.766   1.202 -0.1149 -0.0066 -0.3697
13014W        W29862  10.677  17.475  14.337 -0.0037 -0.1348 -0.0728
13015W        W29863  16.708   0.835   1.886  0.0210  0.1190 -0.0197
13016W        W29864  11.020   7.958   2.573  0.0224  0.2655  0.3345
13017W        W29865   4.901  11.585  11.961 -0.4100  0.5130  0.0380
13018W        W29866  14.473   9.240  14.821  0.1194  0.1171  0.1126
13019W        W29867  11.965  15.087  12.132  0.2198  0.2741 -0.1039
13020W        W29868   1.461   1.711  10.916  0.1742 -0.0166  0.3591
13021W        W29869   6.314  17.293  13.043  0.1834 -0.0922 -0.1272
13022W        W29870   0.856   2.460   1.425 -0.1911  0.0821 -0.0635
13023W        W29871   6.013  14.020  13.455  0.0558 -0.1277 -0.1230
13024W        W29872   3.403   0.087  14.236  0.1449 -0.2331  0.0533
13025W        W29873  11.787   3.487   3.509  0.0125  0.1015 -0.1373
13026W        W29874   3.876   2.559   1.346  0.2070  0.2327 -0.0559
13027W        W29875   1.194   5.613   0.231 -0.0841  0.1265 -0.1649
13028W        W29876   9.511   6.391   1.974  0.1843 -0.0262  0.0529
13029W        W29877   8.466   9.494  12.700 -0.0997  0.0068  0.0109
13030W        W29878   7.005  10.627  15.428  0.2419  0.1045  0.1285
13031W        W29879  13.279  10.910  13.284  0.5235 -0.0801  0.0377
13032W        W29880  15.708   9.137  10.197  0.2078  0.2127 -0.0188
13033W        W29881   8.366   4.839  15.034 -0.0266 -0.0382 -0.0496
13034W        W29882  17.291   0.330   2.532  0.1640 -0.3212  0.1083
13035W        W29883   6.882  17.545  14.742 -0.0310 -0.1469 -0.0482
13036W        W29884   7.300   9.999   1.680 -0.0216  0.1184 -0.0959
13037W        W29885  11.330  13.201   3.484  0.1520  0.1318 -0.1546
13038W        W29886   8.890  16.123  12.245 -0.1960  0.0718  0.0438
13039W        W29887  17.433   2.346  15.408  0.1197  0.0071 -0.1913
13040W        W29888  17.815  10.936   5.607  0.0540  0.1121  0.1514
13041W        W29889   2.278   0.240   0.212 -0.2092  0.1351  0.3881
13042W        W29890  11.751   5.003   4.744  0.0162 -0.2072 -0.1264
13043W        W29891  11.195  15.596   1.023  0.1819  0.2093  0.3049
13044W        W29892   0.871   0.534   4.786 -0.1453  0.2153  0.2135
13045W        W29893   9.188  15.206   3.113  0.0941  0.2751 -0.0997
13046W        W29894  10.162  15.640   0.174  0.4872 -0.1153  0.2025
13047W        W29895  10.510  12.330  13.690 -0.1522 -0.3300 -0.0866
13048W        W29896   9.610   2.450   6.137 -0.0001 -0.1985 -0.4526
13049W        W29897   5.570   7.368   1.245 -0.1116  0.1213  0.1926
13050W        W29898  11.365   4.439  13.801 -0.3441 -0.1874 -0.0286
13051W        W29899  13.730  16.561   2.126  0.0674  0.1357 -0.1418
13052W        W29900  12.075   2.037  14.313 -0.2725 -0.1517  0.1336
13053W        W29901   7.356  16.201  11.613  0.2686  0.0212 -0.0103
13054W        W29902   4.864   7.846   0.647  0.0312  0.0069 -0.1544
13055W        W29903   3.292  15.321   1.726 -0.0879 -0.0637  0.0820
13056W        W29904  15.700  12.302  12.266  0.2493  0.1524 -0.1897
13057W        W29905  11.157   1.348   1.187  0.2844  0.0685 -0.1580
13058W        W29906  14.545   7.884  15.387 -0.0318 -0.0982  0.0254
13059W        W29907   3.193   8.379  16.427  0.0957 -0.1527  0.0750
13060W        W29908  13.640  12.566   4.369  0.1050 -0.3723  0.2023
13061W        W29909  14.478  10.910   3.062  0.0987 -0.0263 -0.3353
13062W        W29910  12.564   8.041   0.722 -0.2289  0.0202  0.3871
13063W        W29911   7.119  17.474  12.608 -0.0459 -0.1552  0.0227
13064W        W29912   8.119   3.761  14.841  0.0657 -0.1330 -0.3679
13065W        W29913  15.769   0.461  12.317 -0.0160 -0.0666  0.0491
13066W        W29914  10.941   4.873  14.682 -0.0087 -0.0456 -0.2949
13067W        W29915  17.442  13.248   2.104 -0.2234  0.0663  0.5284
13068W        W29916  11.633  13.622  15.791 -0.2522  0.0224 -0.2356
13069W        W29917   2.791   6.022   0.787 -0.0060  0.3453  0.1078
13070W        W29918  11.310   8.468   0.907  0.0998 -0.1887  0.1129
13071W        W29919  13.946   4.670   0.044 -0.1136 -0.0068  0.4040
13072W        W29920  11.445  15.118   2.432 -0.1391  0.1413 -0.0142
13073W        W29921   2.651   7.072   3.647  0.1560 -0.0343  0.0067
13074W        W29922   5.522   8.395   2.791  0.0770  0.2317 -0.1082
13075W        W29923  15.061  16.590  12.701 -0.0978  0.3353  0.1391
13076W        W29924   4.009   3.365  11.737 -0.0796 -0.1015  0.0558
13077W        W29925  12.955   0.167   4.912  0.0846 -0.0141 -0.0096
13078W        W29926  17.834   3.464  15.003 -0.1397 -0.1373  0.0664
13079W        W29927   5.865  14.446  16.423  0.1579 -0.1509  0.1475
13080W        W29928   3.640  16.305  13.798  0.3677  0.0187 -0.4285
13081W        W29929  16.834  11.602  13.229  0.0680 -0.0026  0.4499
13082W        W29930   7.265  11.554  15.732 -0.2861  0.3708  0.2662
13083W        W29931   5.773  13.192   3.130  0.0678  0.0414 -0.0092
13084W        W29932  15.938  15.077  14.829 -0.2725  0.2506  0.0103
13085W        W29933  11.888  14.488  12.904 -0.1835 -0.2446 -0.1724
13086W        W29934   2.319   7.256  13.886 -0.3041 -0.2621  0.1186
13087W        W29935  12.415  16.947   1.123  0.0982 -0.2281  0.2888
13088W        W29936   7.721  11.634  12.510  0.3120 -0.5707 -0.3041
13089W        W29937   5.598   3.850   4.084 -0.0016 -0.3569 -0.1108
13090W        W29938  17.508  17.143  11.216  0.1228  0.0419  0.3508
13091W        W29939   9.844  10.316   0.355 -0.1717 -0.0831 -0.1598
13092W        W29940   3.561  12.196   5.358 -0.1011 -0.1286 -0.4210
13093W        W29941  13.829   7.415  15.494 -0.0699 -0.3370 -0.1215
13094W        W29942   2.074  12.573  16.543 -0.1000  0.2117  0.0186
13095W        W29943   1.618  13.448   2.627  0.0407 -0.0871  0.3118
13096W        W29944   3.904  11.558  12.966  0.1945 -0.3084 -0.0431
13097W        W29945  17.537   6.849   0.676  0.3018  0.0375 -0.3628
13098W        W29946  15.653  15.059   2.305  0.2483 -0.0719  0.0280
13099W        W29947   9.162   5.562   4.004  0.1082  0.1404 -0.5109
13100W        W29948   2.651  12.612   3.549 -0.0726  0.2920 -0.1477
13101W        W29949   3.578   5.839   0.740  0.0157  0.0181  0.2752
13102W        W29950  12.065   2.537  15.742 -0.0495  0.1703 -0.0459
13103W        W29951   9.145  17.038   0.880 -0.3484 -0.0333  0.0287
13104W        W29952   4.623   1.180  14.611  0.0743  0.1316 -0.1738
13105W        W29953   3.647   6.260  14.741 -0.3717  0.4015  0.0719
13106W        W29954  15.275   8.513   2.446 -0.0591  0.0254 -0.2083
13107W        W29955  11.365  10.310   0.325 -0.0261 -0.0340  0.1653
13108W        W29956  15.844   2.886   1.884 -0.0870  0.1148  0.1113
13109W        W29957   4.044   7.614  14.146 -0.3514  0.1431 -0.0567
13110W        W29958  17.187  13.514   1.527 -0.1485 -0.1214  0.0444
13111W        W29959   4.364  14.358   2.897 -0.2187 -0.3113 -0.0872
13112W        W29960   4.200  14.739  14.228 -0.0299 -0.1818  0.0492
13113W        W29961  12.640   4.019   4.228  0.2119  0.0064  0.0793
13114W        W29962  16.161   0.216  12.156  0.0185 -0.0837 -0.0468
13115W        W29963  12.218  15.208  12.704  0.0540 -0.2981  0.1930
13116W        W29964  12.685  14.865  14.393 -0.4442  0.2551  0.1699
13117W        W29965   5.224   4.872   0.362  0.0533 -0.0471  0.1013
13118W        W29966   1.154   1.554  13.391  0.1548  0.1191 -0.0358
13119W        W29967  15.268   1.473  14.586 -0.4817  0.0040 -0.1477
13120W        W29968   4.088  11.838  12.564 -0.0570 -0.2066  0.2555
13121W        W29969   9.518   8.367   5.245 -0.0919 -0.0829 -0.1617
13122W        W29970   3.337  14.353  16.566  0.0440 -0.1840 -0.0336
13123W        W29971   3.253  10.515  16.059 -0.2658  0.0564 -0.0601
13124W        W29972   4.452   7.642  12.237  0.0552 -0.2662  0.0832
13125W        W29973  15.337  14.693   0.365 -0.2451 -0.1283  0.2974
13126W        W29974   9.443  11.611  12.535 -0.3211 -0.1993  0.0271
13127W        W29975   9.306  11.697   2.299  0.1069 -0.1715 -0.0655
13128W        W29976  10.920  10.933  12.490 -0.0851 -0.1257 -0.0536
13129W        W29977   8.629   7.137   4.897 -0.0386 -0.1260 -0.0666
13130W        W29978  14.936   1.446  15.370 -0.1677  0.2261 -0.0735
13131W        W29979   6.768   2.217  16.539  0.0580 -0.1084 -0.3996
13132W        W29980   5.564   7.565  15.094  0.1771 -0.2491  0.2029
13133W        W29981   2.255   6.527   2.159  0.1446 -0.1112 -0.1199
13134W        W29982   7.222   1.788  14.863  0.1223 -0.0698  0.2840
13135W        W29983   0.736   1.253   3.822  0.1694  0.1169  0.1328
13136W        W29984  14.657  15.409  15.010  0.1779  0.5247  0.0921
13137W        W29985  14.202   4.256   3.989  0.2384  0.3673 -0.0119
13138W        W29986   1.483   5.795  12.910 -0.0631  0.0871  0.0693
13139W        W29987  10.074  10.961   2.933 -0.2517  0.0543  0.1743
13140W        W29988   8.048   1.273  15.059 -0.1048  0.0015  0.0005
13141W        W29989  14.609   9.793  13.590  0.0223 -0.1545 -0.0294
13142W        W29990   2.218   7.835   0.882  0.2101  0.0429  0.0692
13143W        W29991   9.434  17.050  16.480  0.3432  0.2542 -0.2132
13144W        W29992   2.867  12.557   0.809 -0.1869 -0.0544  0.0834
13145W        W29993   9.698  11.185   3.343  0.0661  0.1049  0.2833
13146W        W29994   3.965  11.466   2.189  0.0645  0.0879 -0.2452
13147W        W29995  12.164   2.239  12.837  0.1778  0.0294  0.2099
13148W        W29996   4.077  15.925  10.630 -0.0049 -0.0033 -0.0624
13149W        W29997  14.039  11.610  12.856 -0.1450 -0.0515  0.1961
13150W        W29998  16.617   8.006   4.336  0.1217 -0.0592  0.2150
13151W        W29999  15.978   4.170   2.683 -0.0607 -0.1181 -0.0824
13152W        W30000  15.346   1.597   0.509 -0.0399  0.0409 -0.3267
13153W        W30001   7.194  10.406   0.333  0.1194 -0.1049  0.1720
13154W        W30002   2.874  11.534   0.446  0.1102 -0.0847  0.2151
13155W        W30003  16.621   7.291   3.410 -0.1376  0.0162 -0.2292
13156W        W30004   8.508  15.285   5.020 -0.0591  0.3288  0.0741
13157W        W30005   9.065  16.557  15.126  0.2356  0.0628 -0.0351
13158W        W30006  17.145   1.123  15.399 -0.0641  0.1768 -0.0759
13159W        W30007   7.672   4.582  14.682 -0.2162  0.1211  0.1280
13160W        W30008   4.036  11.574  13.555 -0.0448  0.1558  0.0601
13161W        W30009   0.250   3.399  16.517 -0.1649 -0.0081 -0.2719
13162W        W30010   5.210   5.830  12.476 -0.2102  0.0928  0.2387
13163W        W30011   4.539  11.914   1.205 -0.0701  0.1968  0.0056
13164W        W30012   5.182  11.468  13.397 -0.0690 -0.2677  0.2934
13165W        W30013  17.324   0.302  15.710 -0.2522 -0.0087 -0.0499
13166W        W30014   4.683  13.711  13.189 -0.1059  0.3135 -0.0965
13167W        W30015   3.092  17.741  12.647 -0.1187  0.1268 -0.1217
13168W        W30016   0.133   7.299  13.391 -0.0959 -0.0281 -0.0715
13169W        W30017   9.831   4.130   3.482  0.2343 -0.2082  0.0239
13170W        W30018   7.951   5.021   2.780  0.2219 -0.2852 -0.2068
13171W        W30019   2.700  16.266  13.407 -0.2288 -0.2820 -0.2661
13172W        W30020   3.969  12.545   3.380  0.3042 -0.2679  0.0440
13173W        W30021  16.358  12.460   2.989  0.0650  0.0713 -0.1776
13174W        W30022   7.624  11.260   2.983  0.3372 -0.2098 -0.2905
13175W        W30023  12.074  17.522   0.281 -0.2476 -0.0318 -0.0164
13176W        W30024   4.921  12.792  15.763 -0.0786  0.0077 -0.3176
13177W        W30025   9.767   8.518   0.371 -0.2500  0.1508  0.0634
13178W        W30026  15.289   5.330   5.439 -0.2130 -0.0848  0.0527
13179W        W30027   6.115  15.784   1.530  0.0443  0.3437 -0.1479
13180W        W30028  12.801  16.240  12.222  0.1010 -0.2982  0.2479
13181W        W30029   5.864  10.907   4.306 -0.0252  0.1699 -0.2944
13182W        W30030   3.441  14.174  15.585 -0.0187  0.0535  0.1916
13183W        W30031   1.912  15.966  16.312  0.1195 -0.1353 -0.2512
13184W        W30032  10.548  12.677   4.671 -0.1237 -0.1343 -0.2559
13185W        W30033  13.709  10.792  13.078 -0.0082  0.0175 -0.3284
13186W        W30034   3.041  15.115  14.830 -0.0047 -0.3753  0.2209
13187W        W30035  15.331   7.740  14.078  0.0523  0.2819 -0.1927
13188W        W30036   5.459   8.022  12.344 -0.1094  0.2329  0.1920
13189W        W30037   1.160  14.330  12.607  0.0333  0.0431 -0.1913
13190W        W30038   1.554   4.404   2.863  0.2166  0.0144  0.3215
13191W        W30039  17.272  11.402  14.842 -0.1882 -0.0211 -0.4890
13192W        W30040  17.063  15.019  13.370  0.4406 -0.1296  0.0612
13193W        W30041  10.666  16.340  16.513 -0.1032  0.1892  0.2719
13194W        W30042  14.929   8.523  11.229  0.0755  0.1370  0.0414
13195W        W30043   9.019   2.288   3.176  0.1409  0.0235  0.1035
13196W        W30044  17.488   1.215  14.470  0.1830 -0.0873 -0.2314
13197W        W30045   6.769  11.610  15.551  0.0508 -0.1421 -0.0537
13198W        W30046  15.388   4.652   4.429  0.1836 -0.1187 -0.0186
13199W        W30047   2.032  12.161  15.396  0.2003  0.0620  0.0003
13200W        W30048   7.172  17.396   5.292  0.0450 -0.3126  0.1812
13201W        W30049  10.404   9.268  12.346  0.0446  0.1849 -0.0636
13202W        W30050   2.442  10.380  13.867 -0.0614 -0.4324  0.0783
13203W        W30051   6.266   5.251  13.398  0.1460  0.3740 -0.0182
13204W        W30052  15.661  11.806   1.300 -0.0500  0.1653  0.1577
13205W        W30053   3.753   7.222  11.076  0.2485  0.3602 -0.0705
13206W        W30054   0.392   4.460   0.515  0.0663 -0.0006  0.0496
13207W        W30055   7.341   2.002   4.949 -0.0148  0.0703  0.1479
13208W        W30056  13.260  10.943   2.669 -0.1342 -0.0141 -0.5537
13209W        W30057   5.003   0.502  13.967 -0.0708 -0.1143  0.2976
13210W        W30058   0.343   1.311   1.422  0.0127 -0.3372  0.1376
13211W        W30059  12.408  11.692   1.426  0.2277 -0.0030 -0.5312
13212W        W30060  14.217  12.407   3.022 -0.0024 -0.1509 -0.1258
13213W        W30061   5.282   6.695   4.035 -0.0344  0.0290 -0.1188
13214W        W30062   7.178   3.357  13.765 -0.1646  0.1312 -0.1075
13215W        W30063   7.653   9.656   1.400  0.1764 -0.2668  0.3426
13216W        W30064  13.881  10.961  14.156 -0.0898 -0.0411 -0.0068
13217W        W30065   3.290   4.477  11.334  0.1641 -0.1745  0.3280
13218W        W30066   2.060   1.931   2.834 -0.2040 -0.0996 -0.1473
13219W        W30067  10.600  10.734   2.202 -0.1442 -0.0927 -0.2356
13220W        W30068  14.518   6.620   0.179 -0.3173 -0.0275 -0.3269
13221W        W30069   9.397  11.963  14.873 -0.0311  0.0807  0.4479
13222W        W30070   6.359  15.652   4.524 -0.1489  0.2753 -0.1317
13223W        W30071  11.998   0.050   3.113 -0.1167  0.0539 -0.1767
13224W        W30072  15.653  11.571  16.554  0.0669 -0.0020  0.0525
13225W        W30073   7.164   9.173   3.697  0.0108  0.0321  0.1115
13226W        W30074   7.722   2.802   3.742  0.1811 -0.0023  0.0592
13227W        W30075  10.865  16.597  13.616  0.1162  0.0990  0.1959
13228W        W30076  13.620   7.541   2.663 -0.1591  0.0246 -0.2528
13229W        W30077   7.415   9.341   0.069 -0.0336  0.0967  0.0422
13230W        W30078   4.344   5.045  15.400  0.0586  0.1688  0.2912
13231W        W30079  16.903   4.155  12.009  0.1819  0.3471  0.0226
13232W        W30080   9.510   9.596  15.749  0.2561  0.0405 -0.1249
13233W        W30081  17.748  16.538  15.274 -0.1297  0.0919 -0.1353
13234W        W30082  13.937   2.810  13.221  0.0204 -0.0511  0.3105
13235W        W30083   3.193  12.946   0.737  0.2798 -0.0838  0.0970
13236W        W30084  12.548  16.910   4.046 -0.2868  0.2705 -0.0208
13237W        W30085   7.639   1.759   4.253 -0.1350  0.0713  0.1586
13238W        W30086   4.318   6.116   2.851 -0.5170 -0.0681  0.0401
13239W        W30087  15.750   2.542   5.200 -0.1462  0.0922 -0.2039
13240W        W30088  14.598  12.440   4.434  0.0647 -0.0280 -0.2419
13241W        W30089   5.158   8.243   0.025 -0.1857  0.1841  0.0819
13242W        W30090   1.761  14.902   2.552 -0.2860  0.0912  0.0775
13243W        W30091  13.954   1.221   4.322  0.3193 -0.0270 -0.2788
13244W        W30092   5.233   4.551   2.904  0.1284  0.1207 -0.1018
13245W        W30093   5.267   7.078   2.485  0.1983 -0.3594  0.2998
13246W        W30094  10.837  11.677   2.985  0.1516  0.0461  0.0436
13247W        W30095   8.785  14.366   1.310  0.2285  0.2141  0.3547
13248W        W30096  17.236  16.777   5.601 -0.2397  0.0331 -0.4276
13249W        W30097   4.695   8.869  11.703 -0.1297  0.0334  0.1628
13250W        W30098   0.618  12.336   1.271  0.0234  0.0876  0.0886
13251W        W30099   4.411   8.325   5.138  0.1038 -0.4592  0.3761
13252W        W30100   4.209   0.755   3.263 -0.1431  0.0210 -0.0340
13253W        W30101   0.390   6.641  14.879  0.0287  0.0409 -0.0840
13254W        W30102   3.265  15.226  12.547 -0.0598  0.3975  0.2336
13255W        W30103   5.885   9.920   3.219 -0.1517 -0.3002  0.1146
13256W        W30104   2.114  17.654   2.515  0.1715  0.0086  0.0395
13257W        W30105   8.344   3.579  16.191 -0.0628 -0.2475 -0.1969
13258W        W30106   1.363  13.133  16.503 -0.1056  0.1455 -0.0928
13259W        W30107   3.122   9.213   3.384  0.0047  0.1767 -0.2327
13260W        W30108  11.705   3.454  14.686  0.3793  0.0616 -0.2732
13261W        W30109  15.830   3.054   4.093  0.1488  0.0220  0.1612
13262W        W30110  10.688  11.985  12.741 -0.1924  0.0300  0.1062
13263W        W30111  11.472  12.118  13.624  0.1322  0.0431  0.0082
13264W        W30112  12.991   2.513  13.462 -0.1076  0.2483  0.1526
13265W        W30113  13.457   3.324   2.896  0.2459 -0.0709  0.0976
13266W        W30114   6.658  11.101  15.521 -0.1973  0.2334 -0.1164
13267W        W30115  15.511  16.978  14.401  0.0907  0.1844  0.1389
13268W        W30116   4.922  14.203  12.210  0.0703 -0.2596 -0.1986
13269W        W30117   4.765   2.808   1.765 -0.0099 -0.0370  0.1854
13270W        W30118   8.756  10.480   1.766  0.5025 -0.1300 -0.1446
13271W        W30119  13.903   9.280   1.381 -0.2617  0.2298  0.1299
13272W        W30120   7.315  15.053   1.567  0.1303 -0.0546 -0.0475
13273W        W30121   4.098   8.834  12.804 -0.0582  0.3304  0.2557
13274W        W30122  14.366   8.841  15.183  0.0465 -0.1066  0.1275
13275W        W30123  17.737   0.298   5.266 -0.2377  0.1848 -0.0627
13276W        W30124   5.093  15.789   3.287  0.2571 -0.1608  0.1190
13277W        W30125   6.342   9.291  16.627 -0.2406 -0.3480 -0.0161
13278W        W30126  11.250   2.102   1.549  0.1113 -0.0735  0.2775
13279W        W30127  17.592  13.515   2.462  0.1111  0.0883 -0.0692
13280W        W30128  16.524  15.081  13.161  0.1658  0.0428 -0.3087
13281W        W30129   9.521  13.848   1.650 -0.2500 -0.3146 -0.3483
13282W        W30130  15.410   0.953   2.596  0.0321  0.4961  0.1187
13283W        W30131   2.282   1.338  12.554  0.2076 -0.1693 -0.0096
13284W        W30132  12.709   1.685   0.416 -0.1756 -0.0012 -0.0605
13285W        W30133   2.762   6.881  13.062 -0.4592  0.0279  0.1585
13286W        W30134  16.395   2.310   4.602 -0.2253  0.1180  0.1119
13287W        W30135   4.280  17.049  14.136 -0.0586  0.1082  0.0230
13288W        W30136   4.739   0.592   1.622 -0.1207 -0.0014 -0.1430
13289W        W30137   6.684  10.216   4.320  0.2116  0.2183  0.2422
13290W        W30138   9.443   1.766  12.973  0.1660 -0.2730 -0.3531
13291W        W30139   5.468   4.803   1.140 -0.0361 -0.2682  0.1577
13292W        W30140  15.913  13.962  12.092  0.3207  0.1098  0.0595
13293W        W30141   9.653  16.902   0.935  0.1532  0.0541  0.0831
13294W        W30142   0.840  11.405  15.897 -0.4236  0.0565 -0.0865
13295W        W30143  13.066  12.477  12.867  0.2438 -0.1327  0.2384
13296W        W30144  11.113  14.794   4.473 -0.2831 -0.1083 -0.1074
13297W        W30145   9.907   5.103  13.034 -0.2114 -0.2454 -0.3086
13298W        W30146   7.456  11.336   1.566  0.0020  0.0227 -0.1937
13299W        W30147   5.489   7.558  12.213 -0.0567 -0.1319  0.4326
13300W        W30148  10.990   6.212  11.063 -0.0412  0.0321  0.2536
13301W        W30149  13.345   3.231   4.818 -0.0195  0.3381  0.0746
13302W        W30150  17.771  12.797   1.405  0.0856  0.0710  0.0085
13303W        W30151  15.873   9.926  16.100  0.3043 -0.0361  0.0996
13304W        W30152   0.766  13.500  16.469  0.1924  0.0330 -0.1604
13305W        W30153  15.643   2.562  15.579  0.1591  0.0577 -0.1374
13306W        W30154  10.186  12.388  12.454 -0.0867 -0.0073 -0.0699
13307W        W30155  10.882   1.702   2.200  0.0418 -0.2173 -0.1227
13308W        W30156   0.107  17.382  14.174 -0.2040  0.0744 -0.3287
13309W        W30157  13.437  17.289  13.862  0.5133 -0.0441  0.0343
13310W        W30158  13.533   2.269  16.497 -0.0924 -0.0138  0.0699
13311W        W30159  15.965   8.768  13.167 -0.0983  0.3748  0.3320
13312W        W30160  13.514   8.650  16.346  0.3305 -0.2079 -0.1480
13313W        W30161   7.072   6.142   3.414  0.1105  0.4208  0.2669
13314W        W30162   4.969   8.585  14.363 -0.0271 -0.0741  0.1084
13315W        W30163   1.430   5.034   5.360  0.2422  0.0096 -0.0615
13316W        W30164   2.215  14.179  14.882 -0.1736 -0.0639  0.2566
13317W        W30165  14.608   3.129   3.337 -0.4186 -0.0855 -0.2612
13318W        W30166   4.423   0.846  11.645  0.0476  0.1589  0.3221
13319W        W30167   8.473   2.079  13.578  0.0458 -0.0681 -0.0434
13320W        W30168   8.781   9.816  16.515 -0.1609 -0.1818  0.0110
13321W        W30169   7.585   8.752   4.191 -0.2166 -0.1599  0.0308
13322W        W30170  12.573  14.713  11.981 -0.0303 -0.3505 -0.0059
13323W        W30171   3.961   7.924   0.269 -0.0281 -0.0930 -0.0733
13324W        W30172  15.864   6.526  12.263 -0.3297 -0.0416  0.1056
13325W        W30173   8.446  13.202   1.408  0.0293 -0.0539 -0.2743
13326W        W30174   5.274  15.711   1.946  0.0296 -0.1531 -0.4874
13327W        W30175  13.716  16.069  16.102 -0.0431 -0.2378 -0.2561
13328W        W30176  11.916   1.781  12.537 -0.3959 -0.1121 -0.1440
13329W        W30177   2.197   4.854  12.999  0.0781  0.1347 -0.0838
13330W        W30178  12.152  12.807   4.504  0.1812  0.2243 -0.2057
13331W        W30179   9.783  15.403  10.589 -0.3643 -0.0180 -0.0057
13332W        W30180  13.285   9.168  14.922 -0.2887 -0.4149 -0.1542
13333W        W30181   9.079   6.405  11.894  0.0927  0.2597 -0.0412
13334W        W30182  16.444   0.454   1.649  0.1942  0.0437  0.0627
13335W        W30183   4.232   5.846  13.481  0.0898 -0.0590  0.0674
13336W        W30184   0.443   7.498   0.279  0.0304  0.1576  0.1452
13337W        W30185  16.198  16.452   1.348 -0.1402 -0.1939  0.1554
13338W        W30186  10.494   3.115   5.097 -0.0344 -0.0746 -0.1594
13339W        W30187   1.743  13.952   4.626 -0.3006 -0.0940  0.0790
13340W        W30188  12.311   0.920  14.084  0.2498 -0.0913 -0.1073
13341W        W30189   3.171   1.443  13.984 -0.3198  0.0843 -0.2617
13342W        W30190  11.326   8.898  10.604  0.2447 -0.0510  0.1040
13343W        W30191  17.780  16.710  14.056 -0.0990  0.1077 -0.0295
13344W        W30192   9.702   8.884   5.306 -0.0234 -0.1498  0.1895
13345W        W30193   4.313   2.149   1.916  0.1124 -0.0543  0.4003
13346W        W30194  16.167  12.566  14.103  0.0656 -0.2438 -0.1828
13347W        W30195   9.767  10.782  16.200  0.3551  0.0716 -0.2402
13348W        W30196  16.514   8.530  12.337  0.0582  0.1141 -0.3512
13349W        W30197   7.192  13.161   3.327  0.1508  0.3181 -0.0084
13350W        W30198   3.481   4.494   4.763 -0.0767  0.0836  0.0573
13351W        W30199   3.784   8.214  11.183  0.0811  0.3197 -0.3629
13352W        W30200   3.901   0.739   2.123 -0.1998  0.2453 -0.3115
13353W        W30201  15.300  15.005   1.769 -0.0101  0.1548 -0.1485
13354W        W30202  11.146  15.992   1.364  0.3210  0.0444 -0.0805
13355W        W30203  15.874  14.151  15.269 -0.0436 -0.4066  0.1308
13356W        W30204   1.709   5.028  15.818  0.1989  0.0963  0.0536
13357W        W30205   7.981  14.084   5.731  0.0985 -0.1174 -0.2025
13358W        W30206   7.219   3.465  11.519 -0.1352  0.4535 -0.0184
13359W        W30207   8.760  15.283   1.699 -0.0900  0.1691 -0.1977
13360W        W30208   2.973  15.841  11.426 -0.1524 -0.0405  0.0678
13361W        W30209  13.582  16.943   4.097 -0.2166  0.1496 -0.0098
13362W        W30210  12.755   8.955   4.643 -0.2753  0.1419 -0.0964
13363W        W30211  17.491  11.392   4.505 -0.0819  0.0481 -0.0068
13364W        W30212  17.378   3.823  10.464  0.2200  0.0182 -0.0750
13365W        W30213   4.661   7.711   3.582  0.0500  0.0683 -0.2130
13366W        W30214   5.091   5.237   5.049  0.0773 -0.0605 -0.1151
13367W        W30215   3.724   5.068  11.147 -0.2852  0.0212  0.1202
13368W        W30216   4.738   5.185   3.140  0.2651  0.1362 -0.2313
13369W        W30217   4.633   9.542   3.831 -0.1095 -0.2334 -0.2450
13370W        W30218   7.474   4.279   0.520  0.1515 -0.1885  0.2639
13371W        W30219  10.598   4.138  12.685 -0.1759  0.1204 -0.0710
13372W        W30220   0.441   3.647   0.494 -0.0537 -0.1085 -0.1002
13373W        W30221   5.436   5.353  16.161 -0.0511 -0.0836  0.2641
13374W        W30222   2.657  15.176   2.492  0.0965 -0.1840  0.3780
13375W        W30223  10.076  10.611   0.648 -0.0427 -0.1682  0.0646
13376W        W30224   7.163   7.359   0.015  0.0246  0.3457 -0.1357
13377W        W30225   5.215  17.133   2.065 -0.0376  0.1566  0.4806
13378W        W30226   8.624  11.765   4.925  0.2811 -0.2560 -0.0575
13379W        W30227  10.266   0.317  12.737  0.0505  0.0470  0.2988
13380W        W30228  10.100  11.291   0.867 -0.0022  0.1835 -0.0409
13381W        W30229   5.786  14.696   3.914 -0.0892 -0.0082  0.0257
13382W        W30230  14.933  16.422  11.081 -0.1240  0.2816 -0.2965
13383W        W30231   3.544   6.696   5.189 -0.0933 -0.0711  0.0536
13384W        W30232  13.565  16.053  15.118 -0.0127 -0.3793 -0.0186
13385W        W30233   3.151   0.819  12.411 -0.0588  0.2480  0.1334
13386W        W30234   6.042   2.109   0.489  0.1896  0.0001  0.0806
13387W        W30235  15.496   7.609  16.170  0.1134 -0.0025  0.1207
13388W        W30236  13.791   9.769  13.157 -0.1739  0.1061  0.2971
13389W        W30237   7.022   5.984  15.126  0.1648  0.0820  0.1234
13390W        W30238   3.709  11.379   0.851  0.2241  0.1696 -0.1401
13391W        W30239   7.242  14.353   0.090 -0.3050 -0.2650 -0.0901
13392W        W30240  15.971  11.296   1.906 -0.1915  0.0545  0.1321
13393W        W30241   4.435  15.164  15.557 -0.2246 -0.0593 -0.3910
13394W        W30242   7.493   3.914   2.135  0.4450 -0.1770  0.1740
13395W        W30243  16.376  11.039   2.016  0.0726 -0.4307 -0.2292
13396W        W30244   1.371   3.026  14.072  0.0687  0.0070  0.0346
13397W        W30245   8.054  12.485  15.633  0.2655 -0.0285  0.1066
13398W        W30246   7.485   8.910  13.890  0.1320  0.0713  0.0029
13399W        W30247   1.189  12.774   5.508 -0.1067 -0.4160 -0.2966
13400W        W30248  14.072   5.588   3.913 -0.1262  0.1030 -0.1395
13401W        W30249  15.721   6.869  15.024 -0.1239  0.1873  0.1617
13402W        W30250   8.706  12.977  14.852 -0.1076  0.0030 -0.2627
13403W        W30251   0.288   4.512  11.949  0.1941 -0.1994 -0.2049
13404W        W30252   0.113   9.688  12.454  0.1509  0.3641  0.2482
13405W        W30253   2.018   9.526  11.654  0.2396 -0.1211  0.1796
13406W        W30254   5.706  15.736  14.782  0.0106  0.0108  0.0029
13407W        W30255   5.394  14.794  12.781  0.0694 -0.0654 -0.2741
13408W        W30256  12.521   2.138  15.668 -0.2979  0.6565  0.0794
13409W        W30257  11.981   4.916  15.520 -0.1075 -0.3445  0.0562
13410W        W30258  17.800   9.991   0.453  0.0551  0.0628  0.1964
13411W        W30259  11.827  16.345  11.698  0.2248 -0.1829 -0.0180
13412W        W30260   3.526  10.013   5.758 -0.0323 -0.1273 -0.0214
13413W        W30261   1.511   2.297   3.456 -0.2245 -0.2012  0.1324
13414W        W30262  13.317  10.424  13.500 -0.2258 -0.3354  0.1278
13415W        W30263   8.417  17.776  11.783  0.4476  0.0976  0.1478
13416W        W30264   9.840   5.926   4.932  0.1274  0.4764  0.1877
13417W        W30265  11.826   6.864  13.084  0.0127 -0.2353 -0.1679
13418W        W30266   5.441   1.902  15.326 -0.2703  0.2963  0.2013
13419W        W30267   2.257   9.463  15.460  0.0832 -0.1136 -0.1512
13420W        W30268   1.218  10.964   1.729 -0.0989  0.0616 -0.3296
13421W        W30269  12.281  12.427  12.300  0.1006 -0.2335 -0.2008
13422W        W30270  11.870   3.343  13.567 -0.0414 -0.0866  0.1119
13423W        W30271  13.465   3.437  14.508 -0.3399  0.0849 -0.1388
13424W        W30272  10.132   2.440  11.993 -0.0697 -0.1403 -0.0390
13425W        W30273  10.329  12.606  11.026  0.0556  0.1156  0.1038
13426W        W30274   6.576  13.496  11.731  0.0138 -0.0069  0.2521
13427W        W30275   7.941   0.911   3.144 -0.1898  0.0307 -0.1593
13428W        W30276   4.759   0.512  13.131 -0.0362  0.2858  0.3912
13429W        W30277   1.035   5.250  15.368 -0.0680  0.1899  0.2929
13430W        W30278  16.468  17.249  11.617 -0.1335  0.0485 -0.0251
13431W        W30279   3.603  16.020  12.553  0.0583 -0.0535 -0.0051
13432W        W30280  16.711  13.026   6.177  0.1904  0.0892 -0.0540
13433W        W30281  14.445   2.765   1.123 -0.0504  0.1454  0.1170
13434W        W30282  12.459  11.497  13.332 -0.3373  0.0546 -0.0240
13435W        W30283  13.989  17.486  14.422 -0.1262  0.1413 -0.1729
13436W        W30284  13.240   2.946   0.370  0.3497 -0.0511 -0.2390
13437W        W30285   6.419   7.798   0.341  0.0788  0.1121 -0.0588
13438W        W30286  15.093  12.383   1.338  0.0549 -0.0375  0.0519
13439W        W30287   6.734  17.183   3.769  0.0184  0.0194  0.3051
13440W        W30288   3.220  15.448  14.500 -0.0855  0.1980  0.1977
13441W        W30289   6.302  13.215   2.140 -0.0272  0.2454 -0.1549
13442W        W30290   0.873   2.739  14.010 -0.0254 -0.5923  0.0894
13443W        W30291   0.421  16.754  13.684  0.1089  0.1732 -0.1344
13444W        W30292   2.620   0.315  10.241 -0.2694 -0.1683 -0.3644
13445W        W30293  10.311   0.026  15.026 -0.1830 -0.0154 -0.1158
13446W        W30294   6.685  15.273   3.515 -0.1023 -0.1298  0.1478
13447W        W30295  11.382  14.175   2.837 -0.1271 -0.0512 -0.0999
13448W        W30296   3.643  15.516  12.733  0.1849 -0.0270 -0.0341
13449W        W30297   3.658   6.996   0.370  0.1381  0.3216 -0.3494
13450W        W30298   3.523  15.441  13.941  0.3985  0.1189 -0.1746
13451W        W30299  17.772  15.559  13.262 -0.0215  0.0518 -0.3059
13452W        W30300   2.106   5.950   5.237  0.0325  0.3173  0.0050
13453W        W30301  16.298   9.227  13.483  0.0525 -0.0251 -0.1031
13454W        W30302   6.591   8.847   5.454 -0.1116 -0.1416  0.3984
13455W        W30303   7.632   7.418   3.765  0.3238  0.0657  0.1154
13456W        W30304  15.044   2.017  13.916  0.0131  0.0028  0.1385
13457W        W30305   4.625   5.296  11.652  0.0859  0.0979 -0.0924
13458W        W30306   2.307  17.670  13.622  0.0344 -0.0602  0.0664
13459W        W30307   4.778  17.102   6.489 -0.2062 -0.0985 -0.0892
13460W        W30308   2.565   4.820  15.557 -0.4736 -0.2364  0.1716
13461W        W30309  13.985  16.417  15.856  0.0002 -0.0516  0.2572
13462W        W30310  12.337   1.501   0.161 -0.2099 -0.1254  0.1477
13463W        W30311   0.244  12.990   5.125 -0.2258  0.2403 -0.2614
13464W        W30312   1.911   4.568   5.237 -0.2187  0.2119  0.2469
13465W        W30313  17.060  15.329   4.030 -0.4267 -0.1924  0.1623
13466W        W30314   9.482  14.842  15.811  0.1121 -0.0288 -0.0416
13467W        W30315   0.473   3.257  15.739 -0.2864 -0.2131 -0.3134
13468W        W30316   4.483  14.442   5.385  0.1392 -0.3638 -0.2876
13469W        W30317  15.477   4.063  16.630 -0.0145  0.0650 -0.0000
13470W        W30318  14.038   0.834  11.319  0.1127 -0.1540  0.0915
13471W        W30319  17.596   4.597   0.247  0.3055  0.2575 -0.2268
13472W        W30320   7.610   9.748  14.828  0.1100  0.3220  0.1819
13473W        W30321   4.876   0.843   3.994 -0.0287  0.1195  0.0764
13474W        W30322  16.156   2.157  12.276 -0.2087  0.0530  0.1457
13475W        W30323  12.239   0.916   4.823 -0.0845 -0.2983 -0.2285
13476W        W30324   9.398   8.272  13.260  0.0084  0.2469  0.0770
13477W        W30325   0.016  10.321  14.206  0.1483  0.0416  0.0891
13478W        W30326   4.625  11.479   2.650 -0.0429 -0.1011 -0.0038
13479W        W30327  16.885  17.375  11.876 -0.0227  0.0118  0.0786
13480W        W30328   9.792   7.555   0.296  0.0991 -0.0729 -0.0056
13481W        W30329  10.204  10.072   3.757  0.3587 -0.0760  0.0126
13482W        W30330   8.540   0.023   4.081  0.0539 -0.0095  0.4064
13483W        W30331   7.775   3.823   3.735 -0.0860  0.0121 -0.0954
13484W        W30332   0.101  11.268  13.764 -0.2355 -0.0202 -0.1552
13485W        W30333   7.603  14.390  16.039  0.0062 -0.3203  0.1888
13486W        W30334   2.586   2.276   1.421  0.3440 -0.0576 -0.3710
13487W        W30335  11.549   2.943   2.248 -0.0397 -0.0242 -0.2108
13488W        W30336   2.824  16.317   4.825 -0.0142 -0.1628  0.0240
13489W        W30337  11.981   9.018   2.380  0.0745 -0.0012 -0.1636
13490W        W30338  11.136   6.945   5.714  0.0620 -0.0318  0.3046
13491W        W30339  14.344   9.800  16.350  0.0084 -0.0324  0.0204
13492W        W30340  11.846  16.866   1.126 -0.0514 -0.2197 -0.0959
13493W        W30341  14.933   1.231   3.638 -0.0308 -0.2536  0.0597
13494W        W30342   0.597   5.280  16.599 -0.0214  0.3285 -0.2592
13495W        W30343   2.491   1.705   0.247  0.0421 -0.2823  0.1920
13496W        W30344   4.312   5.167  12.913 -0.0046 -0.3454 -0.2616
13497W        W30345   0.435   9.259  15.136 -0.2264 -0.1096 -0.1268
13498W        W30346  13.538  13.211   2.292 -0.1433  0.1227 -0.0996
13499W        W30347  11.209   1.215   0.283  0.0095  0.0872 -0.4689
13500W        W30348   4.073  13.634  12.006  0.1708  0.0807 -0.0725
13501W        W30349   4.460   6.602  14.642  0.0941  0.5856 -0.0250
13502W        W30350  14.123  14.291   0.422  0.0532  0.0306  0.1116
13503W        W30351  15.750  12.858   1.471  0.1457  0.0858 -0.1836
13504W        W30352  16.997   7.288   2.135  0.0026 -0.0011  0.1947
13505W        W30353  10.175  11.036   5.878 -0.4212  0.2435  0.1856
13506W        W30354  16.779   0.423   0.175  0.3033 -0.1911  0.3216
13507W        W30355  15.966  13.414   4.187 -0.0041 -0.2192  0.0668
13508W        W30356  11.429  17.104   2.544  0.1892 -0.0135 -0.4247
13509W        W30357   4.293  12.347   6.277 -0.0864 -0.0759  0.1699
13510W        W30358   0.385   5.843   1.881 -0.2630  0.1102 -0.2414
13511W        W30359   4.473  15.539  12.381 -0.1006  0.0793 -0.0272
13512W        W30360   0.207  16.051   3.805  0.0792  0.0552 -0.1263
13513W        W30361   2.351  11.916   0.411 -0.1782  0.0246  0.1784
13514W        W30362   3.991   6.364  14.334  0.0926  0.0374  0.2855
13515W        W30363  10.314  15.126   4.451  0.0329  0.1219  0.2244
13516W        W30364   0.792  14.246  13.900 -0.0938 -0.0423  0.3568
13517W        W30365   1.065  12.434  14.669  0.0444 -0.2018 -0.1398
13518W        W30366  11.381   3.863  13.797 -0.1639 -0.0065 -0.0281
13519W        W30367  17.402  13.869  12.735 -0.3838  0.2943 -0.0238
13520W        W30368  15.719  13.724   0.743  0.1589 -0.0373  0.1621
13521W        W30369   0.854  11.421  16.534 -0.0805 -0.0238  0.5351
13522W        W30370   3.462  14.654   5.553  0.0466  0.3330  0.2307
13523W        W30371  12.762   3.805  14.140 -0.1149 -0.0961 -0.0640
13524W        W30372  11.578  10.505  14.703  0.1898  0.2707 -0.0139
13525W        W30373   7.119   4.619   3.607 -0.1013  0.2072 -0.2080
13526W        W30374   2.712  12.198   3.183 -0.3458  0.0403 -0.1094
13527W        W30375   9.109   5.101   1.939  0.0842  0.2201 -0.0012
13528W        W30376  11.621  14.647   0.168 -0.0195 -0.2015 -0.0997
13529W        W30377   5.896  14.653  12.883  0.0262 -0.0838 -0.3155
13530W        W30378  15.678   9.342  14.134 -0.1932 -0.0726  0.0102
13531W        W30379   9.061   0.973   4.559 -0.1353 -0.0490 -0.0600
13532W        W30380   4.528  13.972   3.655 -0.0644 -0.1393 -0.2196
13533W        W30381  12.649   4.557  12.064  0.1703  0.1698  0.2331
13534W        W30382  10.454   4.408  14.465 -0.1397  0.3456  0.2295
13535W        W30383  12.896  13.690  12.241 -0.0014 -0.1064  0.0592
13536W        W30384  14.741  12.766   1.292  0.2862 -0.0504 -0.0800
13537W        W30385   2.359  15.224   0.927 -0.3088  0.1163 -0.1708
13538W        W30386   6.518  13.403  12.206 -0.1108  0.2744 -0.3257
13539W        W30387   3.738   9.301  15.273  0.3217  0.2518 -0.0060
13540W        W30388   5.954  13.544  13.724  0.0418  0.1111  0.2384
13541W        W30389  17.014   9.091  12.618 -0.0440  0.2162 -0.2607
13542W        W30390   3.708  13.608   1.418  0.0124  0.2209 -0.1271
13543W        W30391   3.143  12.113  15.368 -0.2633  0.2028 -0.1839
13544W        W30392  14.776  10.934   4.556 -0.0634 -0.1164 -0.1918
13545W        W30393   6.297  11.756  15.425  0.1363  0.0737 -0.0099
13546W        W30394   8.152  11.715  11.449  0.0006 -0.3516 -0.3286
13547W        W30395   9.501  15.578  13.656  0.4011  0.1442  0.1653
13548W        W30396  17.344   8.570   4.473  0.0202  0.2744 -0.2597
13549W        W30397   4.688   2.135  15.750  0.3754  0.1754  0.0898
13550W        W30398   0.739  12.917   1.975  0.0010 -0.1465  0.2735
13551W        W30399   8.305  17.011   1.183  0.0525  0.1972 -0.0442
13552W        W30400   8.186  15.594   3.021  0.1149 -0.0629 -0.0555
13553W        W30401   2.881  16.781   5.158 -0.0949 -0.2647 -0.1270
13554W        W30402   6.523   0.353   4.837  0.3113  0.0156 -0.1501
13555W        W30403  15.284   0.068   5.100  0.4035 -0.0763 -0.3001
13556W        W30404   2.174   2.062   0.023 -0.2547  0.1411  0.5209
13557W        W30405   0.238   8.763   2.610  0.0201 -0.0624  0.3391
13558W        W30406   4.296   9.025  16.029  0.1433 -0.1193 -0.0643
13559W        W30407   4.024  12.910   4.835 -0.3203  0.0530 -0.0747
13560W        W30408   6.234  15.512   3.577  0.0766 -0.0685 -0.5530
13561W        W30409   4.845  11.858  11.277  0.2679  0.4481 -0.1777
13562W        W30410   1.112   5.572  13.180 -0.1903 -0.1871 -0.0475
13563W        W30411   4.019  13.060  11.985  0.3094 -0.0641  0.3108
13564W        W30412  10.734  13.388  12.365 -0.1830  0.1969 -0.1728
13565W        W30413  10.944   6.599  14.296  0.1232 -0.0408  0.0175
13566W        W30414  10.516   8.871  16.287 -0.1014 -0.0249 -0.2350
13567W        W30415   5.643   6.117  11.527 -0.0193  0.0185  0.1284
13568W        W30416  14.517  17.496   4.417  0.0514  0.2105 -0.3164
13569W        W30417   2.167  17.501   1.715  0.4185 -0.1326  0.0082
13570W        W30418   3.323  12.524  14.812  0.0820  0.2553  0.0001
13571W        W30419   4.987  14.141   5.012  0.2833  0.0396  0.2768
13572W        W30420   3.776   5.915   4.965  0.1281 -0.1130  0.0009
13573W        W30421  15.656   4.675  14.462 -0.0277  0.2768  0.0781
13574W        W30422   5.713  11.035   0.550  0.0071  0.3022 -0.0047
13575W        W30423   8.399  14.981  12.669 -0.0382  0.2149 -0.2416
13576W        W30424  11.218   4.175  15.120 -0.0550  0.0449  0.1088
13577W        W30425   4.042   7.091  14.127 -0.0451 -0.1738  0.1255
13578W        W30426  14.979   3.968   1.972 -0.2113 -0.1806 -0.1494
13579W        W30427   7.787  15.379   4.725 -0.1023 -0.1210 -0.0878
13580W        W30428   3.406  17.316   5.829 -0.2407 -0.0577  0.2597
13581W        W30429   3.156   3.757   4.350  0.1833  0.0771 -0.1816
13582W        W30430   9.047   9.711   4.885 -0.0236  0.0235  0.2605
13583W        W30431  13.915   3.036  14.902  0.1307 -0.2237  0.0154
13584W        W30432   1.923  13.684   3.587  0.0118 -0.1036  0.3508
13585W        W30433  11.081   0.252  15.393  0.2185  0.1779  0.3152
13586W        W30434  10.963   0.604   5.686  0.2190 -0.5160 -0.0098
13587W        W30435  15.011  16.496   2.655 -0.3001 -0.0354 -0.3316
13588W        W30436   1.568   3.817  11.657  0.2048  0.0219 -0.0509
13589W        W30437   9.763   5.953  13.664 -0.2474 -0.0012  0.2772
13590W        W30438  14.987  15.532  15.962  0.3777  0.1200 -0.0004
13591W        W30439   8.772  11.240  16.148 -0.5534 -0.0326  0.2089
13592W        W30440  15.623  14.166  15.781 -0.0003 -0.2377 -0.1622
13593W        W30441   5.049  10.184  14.743  0.2759  0.2599 -0.1787
13594W        W30442   0.237   6.101  13.277  0.2494  0.0973  0.1253
13595W        W30443   3.764  15.914   2.911 -0.1861 -0.1496 -0.1211
13596W        W30444  11.468  17.846  10.893 -0.2064 -0.1061 -0.0178
13597W        W30445  16.642  16.970   5.022 -0.0487 -0.0958 -0.0397
13598W        W30446  10.057   7.462   0.831  0.2250  0.2176  0.1201
13599W        W30447   6.877   0.314   5.491 -0.0590  0.0033  0.4112
13600W        W30448   5.675  16.233   0.683  0.0521  0.0582  0.2042
13601W        W30449  14.336  12.415  13.740  0.0426  0.1360 -0.0952
13602W        W30450  10.789  12.086  15.888 -0.0296  0.0285 -0.0258
13603W        W30451  16.622   1.237   3.715 -0.0109  0.2522  0.1344
13604W        W30452   1.247   5.723  14.432  0.0563 -0.3063 -0.0174
13605W        W30453   0.151   0.776  15.098 -0.0875 -0.1915  0.1790
13606W        W30454  13.673  13.630   4.856  0.3738  0.0308  0.2029
13607W        W30455   6.281  12.761   1.454 -0.0299  0.0988 -0.1771
13608W        W30456  14.849   6.633   1.004 -0.0433  0.0037  0.1975
13609W        W30457   8.241  14.906  15.597 -0.0435  0.0859  0.1872
13610W        W30458  15.732  11.835  14.847 -0.1664  0.1552 -0.0404
13611W        W30459  13.549   1.421   1.604  0.0185  0.1661 -0.1599
13612W        W30460  16.415   9.119  14.009  0.0305 -0.1198 -0.0136
13613W        W30461   0.200   8.086  12.513  0.0823  0.2641 -0.0422
13614W        W30462   2.932  11.406  13.863 -0.1392  0.2962  0.0910
13615W        W30463   7.012   3.919   4.358  0.0357 -0.0536  0.0720
13616W        W30464   6.973   5.315   1.179 -0.0565  0.0961 -0.0642
13617W        W30465   9.619   8.907  15.186  0.0538  0.0075  0.5126
13618W        W30466  11.322  12.143   3.726  0.0528 -0.2562 -0.0566
13619W        W30467   2.576   1.646  15.800  0.3744  0.1042  0.1052
13620W        W30468  11.835   4.779   2.200  0.1846 -0.1486  0.2276
13621W        W30469   2.637   3.053   4.716 -0.0279 -0.2595 -0.1293
13622W        W30470   9.407   9.688   2.772  0.1897  0.1154  0.1212
13623W        W30471  15.620   3.026   0.974  0.0036  0.1524 -0.1732
13624W        W30472  12.926   3.615  15.221  0.1534 -0.4315 -0.1430
13625W        W30473  14.680   1.476   4.982 -0.1072  0.2604  0.0967
13626W        W30474  14.344  13.409   1.496  0.1056  0.0128  0.0931
13627W        W30475  11.265   0.429   1.102  0.0255  0.1340 -0.0973
13628W        W30476  17.042   1.553   0.969 -0.1316  0.2505  0.0321
13629W        W30477   0.010  12.277   4.427 -0.0077  0.0470  0.1348
13630W        W30478   3.723   4.241  11.216 -0.0747  0.0286  0.0517
13631W        W30479  15.116   0.227   5.594  0.0553 -0.0067 -0.0890
13632W        W30480   1.223   2.273  14.822  0.0358 -0.0950 -0.1282
13633W        W30481   1.777  11.631   0.796  0.0083  0.1338  0.1303
13634W        W30482   9.542   1.451   3.285  0.2783  0.0437  0.1171
13635W        W30483  15.077  12.604   4.606  0.1654  0.0428 -0.1786
13636W        W30484  16.531   9.877  14.647  0.0136  0.1084  0.2465
13637W        W30485   8.906   6.941   2.034  0.1758 -0.2835 -0.3039
13638W        W30486  11.683  11.260   0.141 -0.0626 -0.4007  0.0449
13639W        W30487  12.794  14.638  12.653 -0.1062  0.0604  0.1725
13640W        W30488   6.801   2.885  14.772  0.3236 -0.2057 -0.1953
13641W        W30489   2.814   3.235   4.273  0.1586  0.0486  0.3070
13642W        W30490   4.462  14.864   0.243 -0.2232 -0.1559 -0.0652
13643W        W30491  17.839  17.581  13.144 -0.1299 -0.0060  0.1888
13644W        W30492  15.170  14.200   1.290  0.1613 -0.1945 -0.1857
13645W        W30493   1.635   4.846   4.417  0.0291 -0.1234 -0.1052
13646W        W30494   1.995   6.128  14.011 -0.1069 -0.2175  0.1247
13647W        W30495   9.191   8.114   2.490 -0.1080  0.1007 -0.2224
13648W        W30496   2.158   2.871   1.068  0.3425  0.1148 -0.1706
13649W        W30497  16.119   1.892  15.481 -0.2349 -0.0822 -0.2268
13650W        W30498  14.857  16.506  15.656  0.0799  0.0872  0.0987
13651W        W30499   6.650  15.362  14.114  0.2145  0.4248 -0.0021
13652W        W30500   7.316  15.055   2.889 -0.0930  0.0095  0.1551
13653W        W30501   1.163   4.401  14.372 -0.0806  0.0764  0.1047
13654W        W30502   9.626  12.394   2.499  0.4374 -0.1935 -0.0099
13655W        W30503  16.385   0.514  13.067  0.1061  0.0203 -0.0230
13656W        W30504  13.856   4.164  15.057 -0.2689  0.2132  0.4639
13657W        W30505  12.775   5.453  12.497 -0.2381 -0.3375 -0.1437
13658W        W30506  12.562   1.211   2.241 -0.0961 -0.1133  0.0603
13659W        W30507   8.487  15.085  15.128 -0.1199  0.1645 -0.0861
13660W        W30508   5.634   8.686  13.076 -0.2868 -0.1658 -0.1310
13661W        W30509   1.509   4.852   4.896 -0.1620 -0.0130 -0.0543
13662W        W30510   8.346   9.453  14.977 -0.1732 -0.1144  0.1301
13663W        W30511   9.890  11.795   2.366  0.1872 -0.1421  0.3517
13664W        W30512   7.537   6.551  15.916 -0.2302 -0.4287 -0.0719
13665W        W30513  12.044   6.569   5.778  0.1557 -0.4604  0.0896
13666W        W30514   5.240  13.377  10.202 -0.2906 -0.1359 -0.0542
13667W        W30515   0.109   2.056  16.139  0.0403  0.0824 -0.1296
13668W        W30516   0.123  11.230  12.697  0.4068  0.1218 -0.1037
13669W        W30517   0.472  16.089  12.912  0.0117  0.3865 -0.1152
13670W        W30518   5.047   4.455  15.971  0.2880  0.2020 -0.0069
13671W        W30519  13.301  12.788   0.161  0.1257 -0.1310  0.2821
13672W        W30520   8.819  16.689   1.710 -0.2333 -0.1255 -0.2199
13673W        W30521  13.140   9.068   2.025  0.0220 -0.0944 -0.0287
13674W        W30522   7.608   1.133   5.059  0.0363  0.2223 -0.0501
13675W        W30523  10.936  10.443  12.737 -0.0523 -0.2217 -0.1794
13676W        W30524   4.981   3.397  12.045  0.0474  0.3739  0.3044
13677W        W30525  10.277   9.917  12.986  0.1230  0.2304 -0.4547
13678W        W30526   6.783   5.035   1.551  0.3244 -0.0203 -0.2226
13679W        W30527   5.340   1.789   1.263 -0.1897 -0.0833 -0.0880
13680W        W30528   9.450   2.722   2.107  0.1042 -0.2381  0.4253
13681W        W30529   3.451   5.636   5.747  0.1234  0.1426 -0.0115
13682W        W30530   7.925  11.916   0.879  0.1264  0.0978 -0.1418
13683W        W30531  10.443   1.515  12.585 -0.3979 -0.1002  0.1174
13684W        W30532   9.316   7.602  14.768  0.0755  0.1069  0.3167
13685W        W30533  15.346   1.849   0.018 -0.1410  0.0949  0.3623
13686W        W30534   8.603  14.140  14.477  0.0915 -0.1149  0.0480
13687W        W30535  10.966   4.276   0.202  0.1247 -0.1640  0.1790
13688W        W30536  10.648   5.574  12.614  0.2161 -0.2753 -0.3244
13689W        W30537  16.354  14.510   0.690 -0.0184  0.2828  0.1112
13690W        W30538   6.765   9.828  15.194  0.3226 -0.2664 -0.0574
13691W        W30539  12.629   8.173  13.293 -0.1234 -0.0930  0.0064
13692W        W30540   0.876  17.851   0.180  0.1229  0.0801  0.0228
13693W        W30541   7.667  14.946  14.001  0.0905  0.2601  0.2659
13694W        W30542  14.591   4.178  12.821  0.0024 -0.3491 -0.2538
13695W        W30543   8.969   4.511  14.218  0.0488 -0.1543 -0.1176
13696W        W30544  10.372  10.681   4.729 -0.0566  0.1364  0.2675
13697W        W30545   1.346  12.831  12.191 -0.1935 -0.1993  0.0700
13698W        W30546   4.685  13.513   4.916  0.3389  0.0250  0.0991
13699W        W30547   0.706   0.302   3.137 -0.1415  0.1765  0.1823
13700W        W30548   6.785  10.101   2.182  0.4066  0.1849 -0.2366
13701W        W30549  17.653   7.833   2.512  0.0824  0.0531  0.0542
13702W        W30550   2.639  11.192  16.334  0.0387 -0.1237  0.1543
13703W        W30551   5.704  16.445  15.853  0.0107  0.0127 -0.1775
13704W        W30552   2.415   6.700   2.690  0.4130 -0.1119  0.0957
13705W        W30553   3.287   2.515  11.631  0.1806  0.2444 -0.2021
13706W        W30554   6.129   3.828   1.068 -0.1559  0.0394 -0.2040
13707W        W30555   0.715   5.407  12.567 -0.1054  0.3253  0.0114
13708W        W30556   3.531  16.900  15.041  0.1730 -0.2483 -0.0580
13709W        W30557   4.322   8.914  14.540  0.0709  0.1659  0.1456
13710W        W30558   7.249   0.664  13.155  0.1792  0.5955  0.1391
13711W        W30559   9.307   7.636  14.285 -0.0682 -0.0436 -0.3053
13712W        W30560   1.287  10.907   4.312 -0.0001 -0.0100 -0.0172
13713W        W30561   5.167   9.713   0.659  0.1098 -0.0218 -0.4073
13714W        W30562   3.365   5.956   3.757 -0.0532 -0.1337  0.1994
13715W        W30563  14.078   5.271  15.286  0.3147 -0.0528  0.2296
13716W        W30564   0.208  12.371   1.556  0.2683 -0.0942  0.1621
13717W        W30565   2.672  16.813   1.072  0.2579 -0.0402 -0.0883
13718W        W30566   8.313   7.439   1.948 -0.0664  0.2093 -0.0322
13719W        W30567   1.482  14.041  12.780  0.1897  0.0519  0.2537
13720W        W30568   1.184   2.310   3.013  0.2695 -0.0869 -0.2524
13721W        W30569  13.132   4.261   2.183  0.1697 -0.0477  0.0537
13722W        W30570   9.225  17.416  16.223  0.1216 -0.4148 -0.0256
13723W        W30571  12.031  11.420  13.664 -0.2670  0.1249 -0.2805
13724W        W30572  11.215   1.294  13.706  0.4595 -0.0142 -0.0978
13725W        W30573   9.941  13.885  14.156 -0.5219 -0.1237 -0.0090
13726W        W30574  10.084   9.929   1.137 -0.0483  0.0256  0.0291
13727W        W30575   4.262  16.454  15.051 -0.0369 -0.0034  0.1660
13728W        W30576   0.884  16.979   1.794  0.1966  0.1313  0.2723
13729W        W30577  15.618   6.831  14.313  0.1655  0.1001  0.0615
13730W        W30578   7.896   6.848  13.042 -0.0111 -0.2053  0.0131
13731W        W30579  14.535  17.218  12.739 -0.0465  0.0244  0.1821
13732W        W30580  16.286  15.502  14.024  0.4416  0.1663 -0.0796
13733W        W30581   1.402   4.067   5.953 -0.3786  0.1936  0.0493
13734W        W30582   8.737  12.385   1.643  0.0909 -0.3621  0.0054
13735W        W30583   3.283   0.013   0.792  0.0313 -0.2727  0.1569
13736W        W30584  12.852   1.519   5.095  0.2926  0.3237  0.0528
13737W        W30585   5.776   3.834  15.827  0.2081  0.1793  0.1203
13738W        W30586  13.667  16.800  15.551 -0.1447  0.2927  0.1871
13739W        W30587   4.026   7.001   1.186  0.2823  0.0458 -0.2768
13740W        W30588  10.849   2.576   5.114  0.0679 -0.0651 -0.0437
13741W        W30589   4.531   1.184  12.896 -0.4536 -0.0760  0.0027
13742W        W30590  11.881  17.832  12.342 -0.1771  0.5583 -0.0535
13743W        W30591  14.115   9.560  12.249 -0.3582  0.1464  0.1696
13744W        W30592  10.071  10.073   1.778  0.0150  0.0916  0.0283
13745W        W30593   3.992  15.677  14.455 -0.0952 -0.2722  0.1661
13746W        W30594  11.227   1.212  15.276 -0.0009 -0.1907  0.4139
13747W        W30595  14.285   3.907   0.738  0.0006 -0.1790 -0.0926
13748W        W30596   2.382  10.062  12.990  0.1209 -0.1885  0.0125
13749W        W30597  11.055  12.983  12.076  0.3840  0.0106  0.1935
13750W        W30598   7.169   0.183   0.196  0.0572 -0.0890  0.1589
13751W        W30599  12.303  14.602  13.750 -0.3337 -0.0020  0.3375
13752W        W30600  10.082  10.853  14.422 -0.1385  0.0574  0.1279
13753W        W30601   8.641   6.801   0.898 -0.1895  0.0917  0.1293
13754W        W30602   4.979  15.658  14.717  0.1188  0.3226 -0.0965
13755W        W30603   9.360   8.321  11.986 -0.1840 -0.0011  0.0157
13756W        W30604  11.290   5.474   0.096 -0.0510  0.0189 -0.1954
13757W        W30605  16.636   8.354   2.425 -0.1279  0.0985 -0.0745
13758W        W30606   7.241  13.319   4.610 -0.0825 -0.2425  0.1561
13759W        W30607  17.808  12.383  11.443 -0.0079  0.0546  0.0777
13760W        W30608   8.285   3.441  12.898  0.3046  0.0050  0.3720
13761W        W30609   7.238   7.515  13.347 -0.0697 -0.1196 -0.0151
13762W        W30610   2.119   5.840   5.802 -0.0783  0.2964  0.2084
13763W        W30611   2.550   3.900  14.634 -0.0822 -0.3393  0.3613
13764W        W30612  12.776  11.961   2.612  0.1679 -0.1800  0.0141
13765W        W30613  16.633  17.363  13.251  0.2001  0.3709  0.2649
13766W        W30614   8.357  10.331  14.052 -0.0190  0.1082 -0.1687
13767W        W30615  10.736   1.896  14.421  0.1179 -0.0238 -0.0651
13768W        W30616   2.891  14.842  15.741 -0.2454 -0.2494  0.3109
13769W        W30617   8.252  11.861   1.838  0.4449 -0.0043  0.1029
13770W        W30618   5.000   9.829  13.096 -0.1561 -0.1842  0.0080
13771W        W30619   2.748  17.148   4.070 -0.0611  0.0026 -0.0879
13772W        W30620   8.436   6.123   3.156  0.3637  0.0683 -0.0082
13773W        W30621  16.764   7.096   3.946 -0.0135 -0.1724  0.0669
13774W        W30622   8.478   0.479   1.065  0.3193  0.3524  0.1139
13775W        W30623   0.968   8.959  15.304 -0.3267 -0.0618  0.4252
13776W        W30624   8.754   9.381   3.704 -0.0459 -0.5150 -0.2019
13777W        W30625   5.327   8.915   5.025 -0.0011  0.1327  0.2493
13778W        W30626   7.793  16.334   4.329  0.2623  0.0909  0.4579
13779W        W30627   4.707   9.162  15.792  0.0147 -0.1710  0.1649
13780W        W30628   7.921  10.553  12.040  0.2307  0.3176  0.0110
13781W        W30629  14.958   4.307   2.793 -0.0017  0.0148 -0.0554
13782W        W30630   8.806  12.427  12.515  0.0656  0.1829  0.3252
13783W        W30631  16.038   1.833  14.970 -0.2475  0.1739 -0.2317
13784W        W30632   3.515   0.606   3.759 -0.0029  0.0010 -0.0301
13785W        W30633   7.189   8.240   4.097 -0.2967 -0.0814 -0.0538
13786W        W30634   4.397   4.486   1.004  0.0032 -0.1501 -0.0914
13787W        W30635   0.885   2.797   0.423  0.1460 -0.1669 -0.1305
13788W        W30636  17.403  11.264  13.165 -0.0165  0.1627  0.1008
13789W        W30637   3.351   7.600  12.363 -0.1424 -0.2695 -0.2840
13790W        W30638  14.656   0.484   2.881  0.3413  0.2688  0.0075
13791W        W30639   9.760  14.707   4.633  0.3196  0.0869  0.3478
13792W        W30640  14.810   8.419  14.924 -0.0714 -0.2752  0.2242
13793W        W30641  17.458   8.773   0.910 -0.0293  0.0440  0.0137
13794W        W30642  10.330   2.573   1.650 -0.2131  0.0194  0.1388
13795W        W30643  13.704  15.181  12.692 -0.1506 -0.1306  0.0809
13796W        W30644   5.729  10.567   3.184 -0.0234 -0.2445  0.2601
13797W        W30645  12.790  17.440   4.708  0.3046  0.3607  0.1363
13798W        W30646   4.398   9.275  11.445  0.2789 -0.0513 -0.2443
13799W        W30647  16.483   5.200  14.795 -0.1170  0.1317  0.2080
13800W        W30648   8.696  10.097   4.299  0.2260 -0.1426  0.0164
13801W        W30649   0.053   8.892  15.130  0.1494 -0.0736  0.0468
13802W        W30650  16.475   2.306   5.528  0.2945  0.1630 -0.4590
13803W        W30651   0.631  16.813   1.097 -0.0379 -0.3331  0.2620
13804W        W30652   1.230   6.554  15.364 -0.0181 -0.0231 -0.0157
13805W        W30653   6.950   7.390  15.288 -0.2207 -0.0799 -0.0348
13806W        W30654   4.132  13.721   1.116 -0.0841 -0.0492 -0.0727
13807W        W30655   1.679  13.927   1.433  0.0292 -0.0240 -0.4903
13808W        W30656  12.338   7.732   5.615  0.2109  0.2304  0.2305
13809W        W30657  14.959   8.865  13.352  0.0885  0.0241 -0.1730
13810W        W30658  13.927   8.832  12.779 -0.0075  0.0771  0.0954
13811W        W30659   9.673  14.188  12.383 -0.0732  0.1107  0.0758
13812W        W30660  12.159  10.058   5.311  0.0876  0.1261 -0.0199
13813W        W30661   5.655   0.783   1.083 -0.2307  0.0155  0.3142
13814W        W30662   9.761  11.175   4.317  0.1508 -0.1563 -0.2258
13815W        W30663   5.777   5.132   4.969  0.0189 -0.0925 -0.2494
13816W        W30664  17.390  16.462   2.582 -0.0697  0.2838 -0.2501
13817W        W30665   3.993  12.776  11.340  0.0009  0.0007 -0.1576
13818W        W30666   1.093   3.942   1.150  0.2763  0.1373 -0.1542
13819W        W30667  10.410   5.636   1.376 -0.0001 -0.0968 -0.0348
13820W        W30668  14.732   8.900  16.561 -0.1074 -0.2193 -0.2031
13821W        W30669   4.315  11.551   3.467  0.3930 -0.2073  0.0049
13822W        W30670  15.282  13.567  14.870 -0.0266  0.0902  0.1421
13823W        W30671  12.469  10.971   5.080 -0.1161  0.3657  0.1391
13824W        W30672  11.042   5.467   3.743  0.1023  0.1576  0.2528
13825W        W30673   4.745  10.487  12.970  0.0076  0.0499 -0.1524
13826W        W30674   7.791  13.955  14.272  0.0504 -0.0704  0.0010
13827W        W30675   5.050  12.305  10.696  0.1771 -0.3533  0.3427
13828W        W30676  15.514  17.698  12.983  0.0570 -0.3548  0.1082
13829W        W30677   1.984   9.217   1.952 -0.0379 -0.1850 -0.0514
13830W        W30678  17.692   1.533  12.460 -0.0428 -0.2986 -0.2219
13831W        W30679  13.523  13.525   1.141  0.0257  0.4321 -0.0538
13832W        W30680   8.705   1.947   3.032  0.1480 -0.4506  0.0931
13833W        W30681   5.442   8.088   3.210 -0.1710  0.3489 -0.2700
13834W        W30682  14.950   4.405   2.294 -0.0120  0.2004  0.0416
13835W        W30683   4.125   4.996   4.008 -0.5281 -0.0343 -0.2086
13836W        W30684   2.266  16.512  15.459 -0.1171 -0.2530 -0.2386
13837W        W30685   9.656  17.535   4.920 -0.1587  0.1743  0.1126
13838W        W30686   0.533  10.599  16.026 -0.0125 -0.0419  0.2226
13839W        W30687  10.451   4.586  15.238 -0.2963  0.0737 -0.0231
13840W        W30688  14.832  14.619  16.132 -0.0822  0.1946  0.0196
13841W        W30689  14.373  14.513   2.607  0.1024 -0.1478 -0.0727
13842W        W30690   1.221   9.022  14.720  0.1497  0.0429 -0.0032
13843W        W30691  11.313   2.518   4.978  0.2495 -0.1139 -0.2088
13844W        W30692   9.383  13.000  14.066  0.1041  0.0288 -0.0454
13845W        W30693  12.418  15.237   0.286  0.0380  0.0127 -0.1824
13846W        W30694   9.064  10.901   4.270  0.0546 -0.2746  0.5060
13847W        W30695   8.749  14.353   2.958 -0.2700  0.0110 -0.1373
13848W        W30696   3.057   9.385  14.450 -0.0610  0.2566  0.0157
13849W        W30697   1.489   1.204  13.492 -0.0489 -0.0080 -0.0933
13850W        W30698  10.215  12.229   1.655  0.1046  0.2154 -0.2879
13851W        W30699   2.740   6.753  14.519  0.2161  0.0429 -0.1238
13852W        W30700   9.427  15.508   4.787  0.0460  0.2520  0.4316
13853W        W30701  11.235  16.300  16.557 -0.1858 -0.1816  0.0651
13854W        W30702  10.873  10.829  11.857  0.1316  0.1684  0.2782
13855W        W30703  10.927  14.969  13.265  0.1501  0.2280 -0.0289
13856W        W30704  14.955  15.498  16.514 -0.0795 -0.4099 -0.0750
13857W        W30705  15.098  10.789  12.565 -0.0529  0.0282 -0.0836
13858W        W30706  14.946   3.308   0.299 -0.0434 -0.1266 -0.0695
13859W        W30707  16.202  12.423  14.952  0.0534  0.0589 -0.0039
13860W        W30708   7.518   5.313  11.276  0.0763  0.2413  0.3666
13861W        W30709  17.284  12.317  16.273 -0.1417  0.0035  0.3401
13862W        W30710  13.761  16.797  13.767  0.2636 -0.3504 -0.2452
13863W        W30711  16.172   9.535   1.304 -0.1211 -0.0955  0.0821
13864W        W30712   6.204  17.351   2.500 -0.0135  0.1623  0.1179
13865W        W30713  12.420   3.814  16.416 -0.0288  0.0452 -0.0497
13866W        W30714   7.372   1.075  13.907  0.0487  0.0113  0.1052
13867W        W30715  10.632   5.789  14.921 -0.1302 -0.0688 -0.1597
13868W        W30716   6.632  13.609   2.122  0.3924  0.3347  0.2275
13869W        W30717  12.484   1.654   3.000 -0.1936  0.1373 -0.1257
13870W        W30718   4.778   7.857   0.032 -0.0537 -0.0352  0.0418
13871W        W30719   3.089  15.808   0.993  0.1229  0.0346  0.0263
13872W        W30720   7.602   2.882   5.055  0.0210 -0.1024  0.2661
13873W        W30721  10.048   0.194   3.287  0.2061 -0.4122 -0.1385
13874W        W30722  15.018   7.443   5.581  0.0434  0.0217  0.0042
13875W        W30723   7.293  15.923  13.868  0.2556 -0.1454 -0.0761
13876W        W30724  13.133   7.037   2.708 -0.1777  0.0907 -0.1420
13877W        W30725  13.516  11.441   0.442  0.2144 -0.0246  0.4253
13878W        W30726   2.110   2.591  12.796 -0.1233 -0.0567 -0.1487
13879W        W30727   8.193   2.797   0.873  0.0073  0.1301 -0.1204
13880W        W30728   0.315  11.736   0.094  0.2129  0.0124 -0.0192
13881W        W30729  11.212  17.691   2.291 -0.1118  0.2644  0.2214
13882W        W30730   8.341   5.094  13.071  0.2497 -0.0255  0.2564
13883W        W30731   4.485  10.148   1.050 -0.0559  0.3391 -0.1756
13884W        W30732  15.465   7.652  12.605  0.0122  0.1277 -0.3024
13885W        W30733   3.017   3.055   1.617  0.0798  0.1597  0.2261
13886W        W30734   7.167   2.586   4.962  0.1356  0.0108 -0.3468
13887W        W30735  16.185   8.100  14.374  0.0296  0.0185  0.0269
13888W        W30736  10.149   9.435  14.613 -0.2126  0.2173  0.1250
13889W        W30737  11.243  15.560   1.561  0.1768 -0.1288 -0.1304
13890W        W30738  14.230   5.125   4.011  0.0812 -0.1232  0.2464
13891W        W30739   6.604   7.965   0.761 -0.0353 -0.0484  0.0129
13892W        W30740  13.046  17.356  16.047 -0.1121  0.2893 -0.0644
13893W        W30741   4.973   4.834   5.408 -0.1045  0.1057  0.1239
13894W        W30742  17.133  15.250  15.626 -0.1556  0.2477  0.0674
13895W        W30743  15.259  16.615  11.447 -0.0530  0.0607  0.1619
13896W        W30744   3.992  16.604  14.215 -0.3030  0.2462  0.0645
13897W        W30745  11.190   2.136  14.489 -0.1112  0.1086  0.0105
13898W        W30746   2.875   4.907  10.175 -0.0177 -0.0106 -0.0473
13899W        W30747   8.204   2.646  14.565 -0.1596  0.4747 -0.0847
13900W        W30748  11.901   4.538  12.691 -0.3355 -0.0529 -0.3024
13901W        W30749   3.145   3.777  12.820 -0.3781 -0.1862  0.2019
13902W        W30750   7.490  10.299  13.169  0.0143 -0.2935  0.0661
13903W        W30751  16.091  16.307   3.559  0.1210  0.0588 -0.2834
13904W        W30752   2.159  15.146  15.984 -0.2194  0.0022  0.3042
13905W        W30753  15.271   3.801   3.754  0.2964  0.0571  0.2316
13906W        W30754   0.806   2.958  15.364 -0.1516 -0.0313 -0.2321
13907W        W30755  13.192   6.627  14.203 -0.0570 -0.0277 -0.2724
13908W        W30756  11.447  10.926   3.931 -0.3663 -0.0271 -0.1153
13909W        W30757  13.063   2.408  16.231  0.2215  0.0386 -0.0100
13910W        W30758   4.677  12.414   1.065 -0.2694  0.0580 -0.2693
13911W        W30759   0.136   1.814   3.405  0.2720 -0.2124  0.3923
13912W        W30760   1.124   9.546  14.710  0.1760 -0.0506  0.0395
13913W        W30761  17.187   0.198   0.521 -0.2392 -0.0561  0.0050
13914W        W30762   6.634   8.275  14.762 -0.1759  0.0928  0.1235
13915W        W30763   1.849   6.244   4.359  0.1059 -0.1350  0.0290
13916W        W30764  13.167  16.999  14.990 -0.2257 -0.1360  0.3224
13917W        W30765   6.389  17.463   3.471  0.0617 -0.0039  0.0985
13918W        W30766   3.300   0.308  14.846 -0.0232 -0.1913 -0.0525
13919W        W30767  17.824   0.579  14.171  0.1477  0.2314  0.2243
13920W        W30768   2.369  11.512   2.085 -0.1415 -0.3166 -0.3957
13921W        W30769   6.909   2.405   0.818  0.3487  0.0617  0.0816
13922W        W30770   6.506   7.953   2.199 -0.1208 -0.2209 -0.0408
13923W        W30771   8.538   2.181   0.846  0.3157 -0.1007  0.3447
13924W        W30772  15.004  12.866  14.241  0.4529  0.0626 -0.3170
13925W        W30773  14.251   7.516   3.588 -0.0110 -0.5877 -0.0613
13926W        W30774   5.627  10.827  11.766  0.0251  0.2956  0.0039
13927W        W30775  10.440   8.905   5.936 -0.2310 -0.2591  0.2210
13928W        W30776  12.744  11.091  15.454 -0.1768 -0.0161  0.0477
13929W        W30777   3.557  16.512   0.716  0.2061  0.1455 -0.0292
13930W        W30778  13.201  10.405  12.987 -0.0291 -0.0338  0.0549
13931W        W30779  11.901  12.028   1.453  0.3899  0.3639 -0.2196
13932W        W30780  13.654   0.115  10.695 -0.5031  0.1233 -0.2886
13933W        W30781   9.801  16.004   4.064  0.0542  0.0305  0.0274
13934W        W30782   9.954  12.054   4.411 -0.2429  0.1360  0.2855
13935W        W30783  14.833   9.155  14.485  0.2152  0.0292  0.0437
13936W        W30784   4.234   6.526   1.338  0.0841 -0.1106  0.2102
13937W        W30785  15.273   9.659  14.011 -0.2590 -0.0035 -0.0288
13938W        W30786   6.038   6.841  11.760  0.2007 -0.1680 -0.1448
13939W        W30787  15.791  10.959  15.001  0.0363  0.0562  0.0837
13940W        W30788  15.225   1.871   5.118 -0.2755  0.0636  0.3369
13941W        W30789   6.763   6.992   3.144  0.0443 -0.2536  0.1045
13942W        W30790  15.341  11.972  12.943 -0.2152 -0.0872 -0.0094
13943W        W30791  14.584   2.759   2.403 -0.3202  0.0281 -0.0667
13944W        W30792   5.604   1.051   0.661  0.0193 -0.2073  0.1546
13945W        W30793  10.538   0.748  14.106  0.0909 -0.1524  0.1665
13946W        W30794  14.500   6.169  15.653 -0.1510 -0.0983 -0.0785
13947W        W30795   6.720   9.709  13.198  0.1534 -0.1955  0.3310
13948W        W30796   8.264   9.085  15.299  0.0965 -0.0177  0.1404
13949W        W30797  14.638   6.623   1.492  0.1550 -0.0713  0.3549
13950W        W30798   2.288   9.352   5.972  0.2515 -0.0346  0.1047
13951W        W30799  14.935   2.904   1.241  0.0331 -0.0712  0.0728
13952W        W30800   9.295   4.604   2.744 -0.1359 -0.1209 -0.2222
13953W        W30801   2.423   7.745   4.327 -0.2592 -0.0482 -0.1401
13954W        W30802   4.952   4.453  10.636  0.2087  0.1108  0.1040
13955W        W30803   9.982   2.668   1.978  0.1616 -0.0065  0.0760
13956W        W30804  14.141  10.217   4.791 -0.0286 -0.1788  0.3668
13957W        W30805   2.737   6.067  13.695 -0.0728 -0.3663  0.3812
13958W        W30806   3.284  17.759  15.162  0.1746  0.1749  0.0532
13959W        W30807   7.940   4.519  12.523 -0.1833 -0.2807 -0.0920
13960W        W30808  13.458  14.424  12.244 -0.1797 -0.1192  0.4113
13961W        W30809  10.765   3.627  15.455 -0.0181  0.1222 -0.0304
13962W        W30810  13.177  17.408   1.350 -0.1612  0.0772 -0.0186
13963W        W30811   4.654  10.935   5.619 -0.0975  0.1498 -0.1554
13964W        W30812  13.129   7.448  15.323 -0.2645  0.1886  0.0576
13965W        W30813  10.803   0.999   5.931  0.3651  0.1442 -0.1445
13966W        W30814   1.539   7.645  11.386  0.1438 -0.2469  0.2214
13967W        W30815   3.671   9.311   3.176 -0.1560  0.1298 -0.1133
13968W        W30816   0.621   8.812   2.219  0.0588 -0.1003 -0.1288
13969W        W30817   8.565   6.205   0.371  0.0653  0.2878  0.0227
13970W        W30818  10.154   2.482   4.835  0.2754 -0.2258 -0.1805
13971W        W30819  14.612  16.050   1.984 -0.3637  0.1075 -0.0701
13972W        W30820  11.256  11.604   0.161  0.0837  0.2758  0.1331
13973W        W30821  16.553   8.278   1.875  0.0520  0.2945  0.0117
13974W        W30822   6.587  14.989   4.449 -0.0924 -0.0660  0.1380
13975W        W30823  11.636  10.488   0.746 -0.1680 -0.0482  0.3798
13976W        W30824   5.656  13.975   1.050 -0.1123 -0.1080  0.0492
13977W        W30825   0.971   6.860  12.364  0.1492 -0.2886  0.1454
13978W        W30826  13.606  13.611  14.405 -0.0168 -0.3931  0.0781
13979W        W30827  12.210  17.001  14.577 -0.2458  0.0563  0.0849
13980W        W30828   0.237   8.204   2.349  0.4112 -0.1284 -0.2918
13981W        W30829   2.922   1.888   1.481 -0.4634  0.0288 -0.0420
13982W        W30830   5.334   3.778   3.453  0.3039 -0.0208 -0.2355
13983W        W30831   9.942   4.283  14.218 -0.2737 -0.3240  0.0605
13984W        W30832   2.158  17.333  12.659  0.5927  0.0838 -0.1075
13985W        W30833   5.655   8.914  11.678 -0.0955  0.0715 -0.0460
13986W        W30834   6.753  14.569  13.408 -0.2878 -0.1193 -0.1060
13987W        W30835   0.498   7.996  10.978  0.0688  0.0930 -0.0848
13988W        W30836  15.515   1.201  13.660  0.0518 -0.1454  0.1510
13989W        W30837  15.837  15.692  15.028  0.3809  0.1606 -0.1777
13990W        W30838  11.686   2.847  15.907 -0.2568  0.0108 -0.4212
13991W        W30839  12.841   7.055  14.387  0.1294  0.0566  0.2036
13992W        W30840  11.514   4.417   2.426 -0.0132  0.1580 -0.1047
13993W        W30841  12.244   9.127  16.034 -0.0311  0.0245  0.0340
13994W        W30842   2.060  17.439  15.810 -0.3993 -0.0191  0.0602
13995W        W30843   4.947  12.961  11.852  0.0432  0.0466 -0.1748
13996W        W30844   5.916   6.341  12.416  0.1920  0.1650 -0.0386
13997W        W30845   2.119  17.782  12.349  0.0485 -0.0559 -0.1656
13998W        W30846  11.089  17.598   5.048  0.1507 -0.0476 -0.0491
13999W        W30847  14.852   2.752  14.924 -0.2164 -0.1008 -0.2535
14000W        W30848  13.403  14.831   3.477 -0.3389  0.2126 -0.3057
14001W        W30849   5.691   9.901   3.870 -0.2280 -0.1816  0.1732
14002W        W30850  16.654  11.340   4.155  0.2220 -0.3521  0.2694
14003W        W30851   5.346   2.297   1.266 -0.0996 -0.0030 -0.0120
14004W        W30852  10.013  12.122   0.676  0.0674 -0.1271  0.0646
14005W        W30853   7.854  10.073  16.235  0.0526  0.3019  0.2062
14006W        W30854   1.291   9.847  13.813  0.1263 -0.2595 -0.0146
14007W        W30855  16.059   1.137  13.845 -0.0073  0.2163  0.2394
14008W        W30856   5.065   7.709   3.252 -0.0466  0.0342 -0.0070
14009W        W30857   9.998   7.224  11.863 -0.0740  0.2571  0.1113
14010W        W30858   7.883   1.371   3.970  0.0284 -0.2476  0.1762
14011W        W30859  16.904   0.630  13.178  0.0356 -0.0169 -0.1940
14012W        W30860   5.794  11.187  14.675 -0.0022 -0.0016 -0.4125
14013W        W30861  11.899  17.089  12.960  0.2896  0.0850  0.0310
14014W        W30862   0.709   4.122  12.610  0.3545  0.0814 -0.0327
14015W        W30863  11.944   7.396  12.956  0.1468  0.0548  0.0893
14016W        W30864  14.767   3.799   3.509 -0.1284  0.2968  0.0286
14017W        W30865   4.030   9.832   0.199  0.1304  0.2848  0.2783
14018W        W30866  13.931   5.372   2.432 -0.4169 -0.1962  0.1247
14019W        W30867   1.563   8.911   0.867 -0.3985 -0.0838  0.1094
14020W        W30868   3.230  15.304   2.785  0.1507  0.0466  0.4069
14021W        W30869  16.011  14.652  14.031  0.2588 -0.1455 -0.0399
14022W        W30870  16.545  15.335   3.101 -0.1886 -0.0296  0.2438
14023W        W30871  11.347   1.613  16.573  0.0074 -0.1789  0.1177
14024W        W30872   0.118  16.277  12.273  0.0231  0.1083 -0.0462
14025W        W30873   4.584  12.861   4.343 -0.0346 -0.2536  0.1047
14026W        W30874  14.599   7.295   2.486 -0.0972 -0.0816 -0.1889
14027W        W30875   6.913   7.441  13.836 -0.0381  0.1567 -0.5069
14028W        W30876   1.750  17.465   3.361 -0.3398  0.0112 -0.0683
14029W        W30877   5.561  14.871  16.106 -0.0687  0.2099 -0.1725
14030W        W30878   7.632  16.553  11.857 -0.1529  0.2068 -0.0784
14031W        W30879  10.088   1.020   0.999  0.2123  0.1114  0.1753
14032W        W30880  15.137   2.590   4.443 -0.0594 -0.1932 -0.1644
14033W        W30881  12.306   7.136  13.413 -0.1746  0.0836  0.1574
14034W        W30882   3.526   4.612  10.873 -0.1888  0.0387 -0.1885
14035W        W30883   4.001  10.545   0.186 -0.0188  0.0641  0.2449
14036W        W30884   7.971   6.336  11.574  0.2351  0.4402 -0.0472
14037W        W30885  14.373  14.733   2.141  0.0559 -0.0599 -0.3362
14038W        W30886  16.147   2.950   3.008 -0.0289 -0.3112  0.4073
14039W        W30887  12.569  13.133   0.218 -0.0246 -0.1116 -0.0303
14040W        W30888  10.781  17.637   0.020  0.1933  0.1292 -0.0616
14041W        W30889  10.386   8.990   4.319  0.1051  0.0979  0.2776
14042W        W30890  16.518  16.795  14.705 -0.1468  0.0023 -0.0642
14043W        W30891   8.189   1.115  12.636  0.0765  0.0065 -0.0496
14044W        W30892   0.083   1.551  13.898  0.3690  0.2203 -0.1477
14045W        W30893   1.611   7.556   1.980 -0.1645  0.1485 -0.2866
14046W        W30894  13.672   3.811   2.733  0.2110 -0.1432 -0.0494
14047W        W30895   1.580   1.349  14.046 -0.0616  0.0072 -0.0808
14048W        W30896  10.559   3.506  12.280  0.0553 -0.1846 -0.0791
14049W        W30897   8.108  13.614   3.082  0.0506  0.1246 -0.1633
14050W        W30898  12.858   0.178   1.861  0.0833 -0.0722  0.4528
14051W        W30899  10.846   9.494  15.994 -0.1153 -0.4129 -0.4175
14052W        W30900   6.634  12.656   0.008 -0.2241 -0.3291 -0.1277
14053W        W30901   0.567  12.292  12.659 -0.1067  0.3751  0.3327
14054W        W30902  12.461   6.703  13.707  0.1353 -0.0824 -0.3937
14055W        W30903  14.813  17.121   4.226 -0.0082 -0.1713 -0.0202
14056W        W30904  12.395  15.272   0.786 -0.2237 -0.1261 -0.0072
14057W        W30905   0.382   2.401  12.744  0.1001 -0.1079  0.1935
14058W        W30906  13.552   1.086   3.036 -0.1469 -0.2823  0.0361
14059W        W30907  15.276   9.566   4.605  0.1342  0.3873  0.1769
14060W        W30908   3.576   6.747  11.187 -0.2625 -0.2219 -0.1383
14061W        W30909  16.266   5.652  15.265 -0.0373 -0.3180 -0.1841
14062W        W30910  17.828  12.330  14.593 -0.2423 -0.1656  0.0930
14063W        W30911  14.899  11.132  14.138  0.0867 -0.0819  0.0360
14064W        W30912  17.447  15.476   4.376  0.0392  0.0776 -0.2795
14065W        W30913   5.653   9.215  13.941 -0.1784  0.0348  0.3092
14066W        W30914   2.075   6.683   1.738 -0.1452  0.1477  0.0728
14067W        W30915  17.467  17.182  13.370 -0.0607  0.2085  0.1829
14068W        W30916  14.621  11.914   5.663 -0.3615  0.0538 -0.0704
14069W        W30917   0.486  15.278   4.722 -0.2256 -0.2142  0.1552
14070W        W30918  13.097  11.522   3.924 -0.4272  0.0421 -0.0696
14071W        W30919   5.403   1.376  14.116  0.0520  0.4102  0.3814
14072W        W30920   6.739  17.374  13.799  0.1199  0.0242  0.0853
14073W        W30921  10.219  11.920  12.296 -0.0814 -0.1906  0.3586
14074W        W30922   3.255  12.071   4.467 -0.0552 -0.0203 -0.1136
14075W        W30923  10.452  16.028  14.723  0.0264 -0.0314 -0.1090
14076W        W30924   2.940   9.413  12.570  0.3275 -0.0636  0.1390
14077W        W30925   2.014   7.477   1.768 -0.1366 -0.6054 -0.2505
14078W        W30926   7.758   7.715  12.684  0.2580 -0.0264  0.2884
14079W        W30927   6.654  15.916   1.647  0.0459 -0.2451 -0.4021
14080W        W30928  11.340   6.073   1.169  0.1233  0.3678  0.1431
14081W        W30929  10.731  17.644  16.151  0.0200  0.0465 -0.1732
14082W        W30930   5.107   0.291   3.609 -0.2911  0.0449  0.3253
14083W        W30931   0.555   4.794  13.328 -0.2902  0.0135 -0.0243
14084W        W30932  10.500   7.444   1.714 -0.0840 -0.3303 -0.1482
14085W        W30933   0.623   0.150  16.316  0.1107  0.0474  0.0251
14086W        W30934   4.926  10.990   0.381  0.0142 -0.1771 -0.1068
14087W        W30935   0.514  17.773  12.326  0.1865  0.3334  0.3184
14088W        W30936   5.792   3.067   0.762 -0.2340  0.1199 -0.2022
14089W        W30937  13.874  10.473  16.603  0.0810  0.4302 -0.1879
14090W        W30938   7.495  13.034  16.125  0.0960  0.0694 -0.0199
14091W        W30939  14.836   0.636   1.592 -0.1444 -0.0994  0.0724
14092W        W30940   9.599   1.772   1.954  0.0865 -0.0918  0.0615
14093W        W30941   2.083  10.496  12.736 -0.1990  0.2878  0.0474
14094W        W30942   3.181   8.723   2.483  0.1458 -0.0197  0.3101
14095W        W30943   5.350   7.271   5.253  0.3729  0.1548 -0.1703
14096W        W30944  14.990  12.408  11.449 -0.3051 -0.1096 -0.3104
14097W        W30945   9.907  16.723   3.564 -0.1745 -0.0351  0.1258
14098W        W30946  16.846   9.177   1.766  0.2318 -0.1806 -0.0979
14099W        W30947  13.983  10.218  11.459 -0.4202  0.2363 -0.1745
14100W        W30948   1.797   5.941   2.485 -0.1706 -0.0538  0.0771
14101W        W30949   0.467   1.638   5.084  0.5495  0.1176 -0.4373
14102W        W30950   2.134   7.823  15.033  0.4881  0.2505 -0.0060
14103W        W30951   4.014   2.800  14.781  0.3772 -0.1360 -0.0343
14104W        W30952   5.829   3.694   5.164 -0.1039 -0.2339 -0.0915
14105W        W30953  15.795  13.862  14.037 -0.1033 -0.1811  0.2170
14106W        W30954   1.953   0.864   2.179 -0.1526  0.1129 -0.0947
14107W        W30955   9.553   3.761   3.245  0.2796  0.0228 -0.0186
14108W        W30956   4.154  12.949  16.576  0.0708  0.0560 -0.0241
14109W        W30957  12.460  14.853   3.810 -0.0572 -0.1223  0.2969
14110W        W30958   3.758   2.072   3.530  0.0995 -0.2154 -0.2376
14111W        W30959   1.664  13.477  14.833 -0.0400  0.0915  0.2354
14112W        W30960   5.229   7.985  11.904 -0.2669 -0.0909 -0.1784
14113W        W30961   0.804  13.968   2.964  0.2437 -0.1462 -0.0625
14114W        W30962   0.919   7.501   4.070 -0.0781  0.2626 -0.0361
14115W        W30963  17.762  16.408  12.821  0.0518  0.3487 -0.0595
14116W        W30964   6.571  16.138  14.803 -0.1584 -0.0523 -0.1566
14117W        W30965  14.638   3.040   0.096  0.1427 -0.0015 -0.2726
14118W        W30966   6.827   5.558   0.666 -0.0861  0.1877  0.3180
14119W        W30967  16.049  11.762  11.881  0.0778  0.0463 -0.1094
14120W        W30968  14.299   2.813   5.595  0.1608 -0.0468 -0.0767
14121W        W30969  14.552   4.258   1.007  0.1099  0.0899  0.2644
14122W        W30970   9.998   6.162   4.508  0.2819 -0.1862  0.1482
14123W        W30971   5.439   3.034   5.459 -0.0096  0.0483  0.0081
14124W        W30972  14.735  12.827  12.350  0.1123  0.2527 -0.0916
14125W        W30973   8.716   3.927   3.409 -0.1913 -0.2303 -0.0279
14126W        W30974   2.765   3.784   0.076 -0.2618  0.0741  0.1939
14127W        W30975   5.057   0.180   5.675  0.0323 -0.0405 -0.1373
14128W        W30976  14.241  12.813  15.559 -0.2148  0.2422  0.1983
14129W        W30977  15.716   4.046  13.988  0.0650 -0.0398  0.0505
14130W        W30978  11.146   1.166  16.325  0.2305  0.0831 -0.3177
14131W        W30979  17.433   5.555  14.813 -0.0670  0.1289  0.0810
14132W        W30980  11.485   6.254  12.732 -0.2866 -0.2716 -0.5443
14133W        W30981  17.006   7.131  14.345  0.1700 -0.0250  0.2418
14134W        W30982   2.655   8.613  14.682 -0.2765 -0.1792  0.3997
14135W        W30983  10.427   8.324   3.153  0.1226  0.0299  0.0621
14136W        W30984   3.724  10.891  13.677 -0.1205  0.1736 -0.1565
14137W        W30985   7.104  14.114  14.738 -0.1461 -0.0245 -0.0566
14138W        W30986  13.069   1.193  13.270  0.2040  0.1938 -0.0488
14139W        W30987  14.706   3.020  11.422  0.2821 -0.1939  0.2717
14140W        W30988   1.128   8.001  14.083  0.3126 -0.1007  0.0662
14141W        W30989  12.974  17.802  15.787  0.1178  0.0194 -0.4360
14142W        W30990  16.670  15.732  12.076 -0.1615 -0.2035 -0.1340
14143W        W30991  10.009   4.594   1.925 -0.0510 -0.0404  0.1390
14144W        W30992  12.153  10.688  16.094  0.2051  0.3091 -0.0431
14145W        W30993   6.526  11.118   0.290  0.2939  0.3889 -0.0001
14146W        W30994   6.297   9.772   3.497 -0.2214 -0.0614 -0.0323
14147W        W30995   8.783  14.087  13.574  0.2409  0.0580  0.3162
14148W        W30996   6.649  12.604  15.742  0.0489 -0.1454  0.2710
14149W        W30997  13.713   5.748   2.121  0.2342 -0.2845 -0.0080
14150W        W30998  17.505   1.494   0.071  0.1401 -0.0153  0.1909
14151W        W30999  15.705   9.745   4.084  0.0372 -0.3057  0.2881
14152W        W31000   7.415   8.217  15.146 -0.1419 -0.3421  0.0821
14153W        W31001   1.677  17.522   1.796  0.0345  0.2056  0.0928
14154W        W31002   9.484   3.550   1.858  0.0275 -0.0129 -0.0623
14155W        W31003   3.798  12.122   4.555 -0.0016  0.0450 -0.1556
14156W        W31004  13.030   4.011   5.574  0.0057 -0.0196  0.1963
14157W        W31005   0.038  17.105  13.676  0.1112  0.5131 -0.1413
14158W        W31006   7.431   3.833   1.241  0.2555  0.2863 -0.0359
14159W        W31007   8.705  14.826   1.970  0.2357 -0.0226 -0.1580
14160W        W31008  15.475   7.147  15.381 -0.1764 -0.0618  0.2059
14161W        W31009  14.843   5.433  12.856  0.2190  0.0580 -0.4655
14162W        W31010   0.085   9.168   2.818  0.1751 -0.0557 -0.0877
14163W        W31011  12.861  12.225  11.937  0.0829 -0.1482  0.0086
14164W        W31012   9.958   2.609   0.116 -0.1099  0.1755 -0.0423
14165W        W31013   7.751   7.077   3.341  0.1496  0.0144  0.2814
14166W        W31014   5.491   4.578   3.877 -0.1538 -0.0052  0.2230
14167W        W31015   7.450   8.783   1.095 -0.1034  0.3655 -0.3053
14168W        W31016   5.426   2.708  12.334  0.0110 -0.0795  0.0272
14169W        W31017   9.449   2.204  13.670  0.0218 -0.1509  0.2734
14170W        W31018  12.087  10.472  12.104  0.0867 -0.1543 -0.2361
14171W        W31019   3.780  10.282   3.530 -0.0061 -0.4513 -0.1050
14172W        W31020   2.709   7.301   0.955  0.1703  0.3099  0.1470
14173W        W31021   8.377  14.412   4.472  0.2100 -0.2443  0.1053
14174W        W31022  11.673  14.607  13.806  0.0890  0.1020  0.0953
14175W        W31023   6.467  15.345  11.918  0.1373 -0.1446 -0.1809
14176W        W31024  11.408   9.139   3.128  0.0030 -0.1395  0.0366
14177W        W31025  14.873   0.584  11.662 -0.3564  0.0011 -0.0237
14178W        W31026   2.668  14.583  12.984  0.1713 -0.1140  0.3641
14179W        W31027  12.523  10.094   4.372 -0.2656  0.0228  0.0592
14180W        W31028   9.222   4.381  15.481  0.1145 -0.1830 -0.1301
14181W        W31029  16.289   5.552  15.769  0.0815  0.3559  0.0580
14182W        W31030   6.539   1.035  16.202  0.0214 -0.1862 -0.0672
14183W        W31031  14.401  15.705   3.188 -0.1565 -0.0037  0.0174
14184W        W31032   9.143   1.769   4.358  0.0108 -0.2292 -0.1963
14185W        W31033  12.967  17.566   5.123 -0.2562 -0.0358 -0.0487
14186W        W31034  12.605   9.840   3.198  0.2644 -0.0862  0.2203
14187W        W31035  14.260  15.974  13.937 -0.2851  0.4729  0.0561
14188W        W31036   6.226  12.896   3.454  0.1125  0.1244 -0.2070
14189W        W31037  13.480  17.589  15.642  0.2546  0.4043 -0.0374
14190W        W31038   5.717   6.199  16.500  0.0610  0.0697  0.2052
14191W        W31039  11.979  17.829   5.197 -0.0827  0.0771 -0.1030
14192W        W31040  14.286  10.500  13.434  0.0267 -0.1728 -0.1760
14193W        W31041   1.320   8.115  15.470 -0.1873  0.0521 -0.0808
14194W        W31042   5.972  12.625  11.701  0.1377 -0.0243 -0.1512
14195W        W31043  11.938   6.589   5.311  0.1395 -0.5537  0.0453
14196W        W31044  16.674  12.255   3.287  0.0422 -0.0588  0.0555
14197W        W31045  15.687  10.902   2.628 -0.0575  0.0038 -0.3501
14198W        W31046   2.767   1.076  14.910 -0.2485  0.3378 -0.3852
14199W        W31047   9.251   3.365   4.129 -0.2740 -0.1558  0.0606
14200W        W31048  17.149  13.871   2.588 -0.2686  0.3280 -0.3156
14201W        W31049   7.484  14.175  15.618  0.0501 -0.0358  0.0262
14202W        W31050   8.720   6.004  13.867  0.0076  0.1037 -0.0227
14203W        W31051   7.720   1.674  12.198 -0.4901  0.1511  0.1789
14204W        W31052   3.416   3.302  13.611  0.0357  0.2215  0.0075
14205W        W31053  13.401   0.014   5.066  0.2317  0.2266  0.2637
14206W        W31054  14.420   6.055  12.935 -0.0992  0.2201 -0.2344
14207W        W31055  17.653  12.358  15.926  0.0487 -0.1678 -0.0465
14208W        W31056   8.425  17.173  12.605 -0.1755  0.1836  0.0652
14209W        W31057   5.349  17.338  11.779  0.0293 -0.0092 -0.0603
14210W        W31058  11.761   9.958  12.626 -0.2955  0.0555  0.1408
14211W        W31059  16.095   3.273   5.520 -0.3414  0.0735  0.3003
14212W        W31060  13.071   5.196  15.400  0.1584  0.0574  0.2245
14213W        W31061  15.057  12.773  15.433 -0.1430  0.3224  0.1202
14214W        W31062  11.682  15.536  15.318  0.0880  0.0700 -0.2474
14215W        W31063   5.634   3.562  11.572  0.1118  0.2975 -0.1023
14216W        W31064  17.486   9.790  12.776 -0.1457  0.1615 -0.2172
14217W        W31065  11.116  16.469   3.679 -0.3817 -0.2962 -0.1022
14218W        W31066  14.413  11.408  13.504 -0.1347  0.0198 -0.0914
14219W        W31067   2.076  16.486   3.464 -0.0778 -0.0947 -0.1746
14220W        W31068  14.196  15.555  11.387  0.0686  0.0575  0.0661
14221W        W31069   7.901  13.000   5.347  0.1815 -0.0355 -0.0130
14222W        W31070  12.988  10.146   4.531 -0.0198  0.1112 -0.0223
14223W        W31071  12.633   9.754   1.386 -0.1043 -0.2409 -0.1902
14224W        W31072  16.073   8.089   3.478  0.2862  0.2330  0.1541
14225W        W31073   6.924  13.639  12.089  0.0091 -0.3317  0.1567
14226W        W31074  13.129  10.235  16.390  0.0116  0.0851 -0.1550
14227W        W31075   8.807   3.374  14.793  0.0217 -0.4904 -0.0311
14228W        W31076  17.406   8.837  12.876 -0.2193  0.2346  0.1393
14229W        W31077   5.461   8.287   6.082  0.1236 -0.2535  0.0142
14230W        W31078  16.220   3.646  11.281  0.1562  0.0612  0.0909
14231W        W31079  14.010   8.958   5.112  0.3792 -0.0352 -0.1949
14232W        W31080  10.853  17.155   4.827 -0.1679  0.0499  0.1170
14233W        W31081  12.343   7.542   4.888  0.1549  0.0892  0.1639
14234W        W31082   9.232   3.517  14.483  0.0466  0.1698 -0.3809
14235W        W31083  14.671   7.015  16.090 -0.1437 -0.1199 -0.1272
14236W        W31084   7.323  12.793  12.068  0.1402 -0.2003  0.3482
14237W        W31085  14.137   0.815  14.950  0.2249 -0.1188  0.1685
14238W        W31086   4.574  10.128  16.089  0.2022 -0.2030  0.0390
14239W        W31087   0.115   5.074  16.553  0.1331  0.0385 -0.0704
14240W        W31088   8.459   0.822   5.182 -0.2228 -0.1362 -0.1236
14241W        W31089  12.712  10.134  13.951  0.2427 -0.0853 -0.1130
14242W        W31090   9.308  17.462   0.129 -0.1190 -0.0782  0.0535
14243W        W31091   3.102  10.453   1.611  0.0095  0.0650  0.2809
14244W        W31092  15.361   2.848   3.922 -0.1183 -0.0910 -0.0328
14245W        W31093   1.856  14.306  13.179  0.0300  0.2043  0.2356
14246W        W31094  13.537   0.146  11.166 -0.1907  0.1279 -0.1717
14247W        W31095   5.585   9.736   0.304  0.0125  0.2704  0.0315
14248W        W31096  13.316   8.677   3.754 -0.2914  0.1612 -0.1091
14249W        W31097  16.001   0.133  11.665  0.1241 -0.0571 -0.1174
14250W        W31098   6.745   3.376  11.098  0.0646  0.2845 -0.1832
14251W        W31099   6.258  14.914   1.875 -0.2253 -0.0197  0.0333
14252W        W31100  15.088   4.560   5.158  0.1285  0.2247  0.2281
14253W        W31101  15.694  11.097   3.855  0.2607  0.0370 -0.0415
14254W        W31102   0.629   0.940  15.859 -0.1258  0.2830  0.1197
14255W        W31103  17.244  14.177  13.537  0.3382  0.1280 -0.0281
14256W        W31104   2.652  10.255   2.372 -0.2914 -0.0112 -0.2501
14257W        W31105   3.484   4.344   3.999  0.0472  0.3990 -0.0403
14258W        W31106   0.861  16.435   4.113 -0.0271 -0.2938 -0.0908
14259W        W31107   1.363  11.941  11.988 -0.2547  0.2010  0.2905
14260W        W31108   6.630  11.973   3.403 -0.2295 -0.0739  0.2602
14261W        W31109   0.071   2.680   3.665 -0.1572  0.0217  0.1938
14262W        W31110   3.560  17.747  15.653 -0.0642 -0.3455  0.2225
14263W        W31111   2.108  17.483   3.737  0.0830 -0.2709  0.1223
14264W        W31112   9.417   7.416  12.349 -0.3704  0.2626  0.0281
14265W        W31113   1.410  15.472  16.077  0.1813  0.0848  0.1296
14266W        W31114   1.712  11.058   1.538  0.0892  0.0758  0.2447
14267W        W31115   1.286   3.664   0.860 -0.2308 -0.0657  0.0134
14268W        W31116   5.111  17.692   3.377  0.0878  0.1867  0.2502
14269W        W31117   7.571   2.672  16.337 -0.0986 -0.0202  0.0118
14270W        W31118   5.589   7.019   3.215 -0.2710  0.2274  0.0047
14271W        W31119   3.768  17.418   5.512 -0.1575 -0.2694 -0.4086
14272W        W31120  17.712  11.679  13.014  0.2376 -0.1033 -0.1257
14273W        W31121   9.431  13.156   1.389 -0.0372  0.3278 -0.1452
14274W        W31122   5.074   5.152  16.619  0.0168  0.2190  0.0590
14275W        W31123  17.322  13.019   4.685  0.3268 -0.2311  0.2523
14276W        W31124   9.362  15.877  12.319  0.0212  0.2107 -0.1728
14277W        W31125   8.316   6.746  16.485 -0.1289 -0.3827  0.2213
14278W        W31126  15.514  17.033   2.221 -0.0918  0.3810 -0.0646
14279W        W31127   6.475   0.030  14.916 -0.0247  0.1403  0.0970
14280W        W31128  14.164   1.919  10.638 -0.1132 -0.1702  0.2564
14281W        W31129   8.665  12.537   2.168 -0.1622 -0.1643 -0.1481
14282W        W31130   7.034   7.872  13.645  0.2862  0.0230 -0.0961
14283W        W31131   8.579   5.709   2.694  0.0254 -0.1896  0.0239
14284W        W31132  13.341   6.359   5.291  0.0473  0.3525  0.3261
14285W        W31133   0.618  11.229   2.719 -0.0771  0.0070  0.0239
14286W        W31134   3.918  16.793  16.059  0.1224  0.0358 -0.0408
14287W        W31135   4.704   3.295   1.510  0.3834 -0.0915  0.1413
14288W        W31136   4.748   5.815  11.464  0.1876  0.0284 -0.1148
14289W        W31137  12.581   7.935   5.226  0.2008  0.0627 -0.1612
14290W        W31138   8.436  15.609   5.817  0.1967 -0.2109  0.1609
14291W        W31139   6.160  17.231  12.586  0.0327  0.1431 -0.0346
14292W        W31140   2.515   1.874  16.255  0.3008  0.0634 -0.0925
14293W        W31141   7.990   5.255  12.590  0.0778 -0.0469  0.1390
14294W        W31142  15.527  17.418  12.106 -0.1207  0.1196 -0.1890
14295W        W31143   5.386   3.254  11.263 -0.0433 -0.1870  0.0561
14296W        W31144   9.166  11.676   1.785  0.2098  0.0897 -0.1418
14297W        W31145   3.214  10.119   1.212 -0.2819  0.1334  0.3172
14298W        W31146   0.917  10.736  14.227  0.0183 -0.3932 -0.1124
14299W        W31147   9.009  17.752   4.249  0.1403 -0.1672 -0.0712
14300W        W31148  11.003   6.751  14.816  0.0599 -0.2300 -0.4202
14301W        W31149  16.791   0.226  14.718 -0.1934 -0.0581 -0.3636
14302W        W31150  14.062   5.776   0.419  0.4882  0.0950 -0.0780
14303W        W31151  13.700  13.649   0.080  0.0779 -0.0980  0.1012
14304W        W31152  10.267   9.093   3.866  0.0475 -0.0819  0.0591
14305W        W31153   9.323  11.350  14.175 -0.3326  0.0496 -0.0354
14306W        W31154  16.467  12.198  13.932 -0.2794 -0.1299  0.2469
14307W        W31155   2.321   7.061  15.421  0.0343 -0.0059  0.0454
14308W        W31156  17.613   3.587  11.758  0.1879  0.1327 -0.1054
14309W        W31157   2.411   5.372   2.103 -0.2630  0.0798  0.1050
14310W        W31158  15.445   4.645   1.172 -0.0647  0.1555  0.1445
14311W        W31159  12.411  14.205   1.267 -0.1938  0.0182 -0.1154
14312W        W31160   2.026  17.768   0.551 -0.0866 -0.2352 -0.1147
14313W        W31161   1.397  12.032   4.281 -0.0570  0.3302 -0.1916
14314W        W31162  17.211   3.513   0.114  0.3227 -0.4500 -0.0633
14315W        W31163   6.006  10.298   2.398 -0.4440 -0.2275  0.1846
14316W        W31164   1.731   6.315  15.674  0.0313  0.0984  0.2091
14317W        W31165   9.954   1.476   4.723 -0.0306  0.4983  0.0621
14318W        W31166   0.608   6.114  14.153 -0.1567 -0.0159 -0.2135
14319W        W31167   2.233   0.263   4.731 -0.0502  0.0391 -0.1896
14320W        W31168  11.116   6.467  15.816 -0.0985 -0.0103 -0.1454
14321W        W31169   9.641   2.451  14.078  0.4768 -0.0495  0.0042
14322W        W31170   7.454  16.680   2.175 -0.1063 -0.2366 -0.0042
14323W        W31171   2.374  13.417   2.263  0.2082 -0.2883 -0.1015
14324W        W31172  15.617  14.720  13.645 -0.1461  0.0271 -0.0920
14325W        W31173   0.001   8.675   4.403  0.1050 -0.6382 -0.0571
14326W        W31174   7.124   9.682  11.534  0.1629  0.0790  0.1308
14327W        W31175   1.087   6.859  14.983 -0.2935 -0.1057 -0.0613
14328W        W31176   5.223  11.530   3.359  0.2019  0.1809  0.1726
14329W        W31177   7.731  10.596   5.327  0.2244  0.0231 -0.1832
14330W        W31178   3.070   0.603  16.586 -0.2783 -0.0244  0.1291
14331W        W31179   7.853  11.540  11.921  0.0992  0.0545 -0.2408
14332W        W31180  16.791   5.797  13.741 -0.1620 -0.0374 -0.1950
14333W        W31181  13.230  14.451  12.870  0.2061 -0.0029  0.3225
14334W        W31182   6.618   9.512  14.743 -0.1013 -0.0041  0.2421
14335W        W31183   0.942   4.220   3.170 -0.1810 -0.1894 -0.3863
14336W        W31184   6.288   2.018  15.106  0.3021 -0.0996  0.1944
14337W        W31185  15.289  14.526  16.463 -0.0727 -0.3409 -0.0687
14338W        W31186   2.538  11.067  15.052  0.2893  0.0912  0.1288
14339W        W31187   3.697  14.627   5.036  0.4284  0.1795 -0.1819
14340W        W31188   6.434   6.992   0.163 -0.2330  0.1803  0.0045
14341W        W31189  11.099   3.598   2.429 -0.1569  0.0072  0.4887
14342W        W31190  14.827   2.890   0.623  0.1288  0.0996  0.2356
14343W        W31191   0.798   5.611   5.467 -0.0727  0.0275  0.2176
14344W        W31192   9.651   8.896  16.467  0.0478 -0.1414  0.2650
14345W        W31193   9.490   4.521  10.911  0.5351  0.4918  0.1493
14346W        W31194  11.959   5.872   4.482  0.1077 -0.2356 -0.1596
14347W        W31195  14.180  16.093  14.507  0.2386 -0.4316 -0.1113
14348W        W31196  12.176   3.724  12.711 -0.0237 -0.0533 -0.0622
14349W        W31197  13.148  10.878   2.214  0.0023 -0.3996 -0.0731
14350W        W31198   3.710  12.600  14.338 -0.3434  0.0821 -0.0357
14351W        W31199  12.138   7.646  15.227  0.2794 -0.3579  0.0041
14352W        W31200  16.293  11.526  11.018  0.3548  0.0383  0.0143
14353W        W31201   6.171   4.001  14.498 -0.0741  0.1255 -0.1586
14354W        W31202   8.537   3.374   0.589 -0.2415  0.1766  0.0743
14355W        W31203  16.438   8.675   4.762  0.2884 -0.0721 -0.1080
14356W        W31204   8.740   4.083  12.843  0.3809  0.3157  0.0043
14357W        W31205   3.026  13.003   2.899  0.4616  0.1805  0.0947
14358W        W31206  16.764   2.157   2.988  0.1912 -0.2299 -0.0903
14359W        W31207  17.199  17.100   1.708 -0.2203  0.1512 -0.0501
14360W        W31208   0.917  14.657  13.587  0.1206 -0.0363 -0.0411
14361W        W31209  12.379   8.799  13.440  0.0977  0.0935  0.1089
14362W        W31210  12.257   5.322  14.930  0.1832 -0.0429  0.2614
14363W        W31211   0.795   4.023  14.604  0.0901  0.2989  0.2584
14364W        W31212  16.751  15.434  16.541  0.1984 -0.0061 -0.2038
14365W        W31213  12.222   2.413  14.692  0.1226 -0.0095  0.2963
14366W        W31214   2.758  15.981  15.117 -0.0475  0.1435  0.2555
14367W        W31215   9.498   4.765   1.817  0.0230  0.0253 -0.2521
14368W        W31216   6.896  15.456  11.614 -0.2039  0.2529  0.4170
14369W        W31217  17.832   1.972   2.223  0.1188  0.2378 -0.0152
14370W        W31218  14.078   9.262   4.702 -0.0151 -0.1026 -0.0279
14371W        W31219  14.356   1.868   4.982 -0.0688  0.0226  0.1129
14372W        W31220  13.529   1.100  15.782  0.0610  0.3176  0.0121
14373W        W31221  16.122   6.417  13.195  0.1526 -0.0620 -0.0098
14374W        W31222  15.007   5.317   0.673  0.1630  0.2746  0.2422
14375W        W31223   6.215  17.461   0.766  0.0296  0.1328  0.1180
14376W        W31224  14.446   5.615   3.648 -0.2090 -0.1844 -0.0293
14377W        W31225  15.200  13.128   1.013 -0.0654  0.0144 -0.0246
14378W        W31226   2.986   2.038  14.093 -0.1724  0.2527 -0.0491
14379W        W31227   8.321   4.855  12.617  0.1451 -0.0400  0.1179
14380W        W31228  14.335  12.961   2.919  0.1815  0.1395  0.0669
14381W        W31229   1.187   5.131  11.896 -0.0096  0.1619  0.0578
14382W        W31230   2.422   9.333  12.525 -0.2015  0.0093  0.0265
14383W        W31231  16.001   9.104  12.202  0.1967 -0.1159  0.2896
14384W        W31232   5.241   3.191   0.809  0.1627  0.0121 -0.1374
14385W        W31233   4.149   8.700   5.449 -0.1694 -0.3061 -0.0715
14386W        W31234  10.119  14.630   4.313 -0.0213  0.1597  0.0352
14387W        W31235   9.624   6.424  11.919  0.0164  0.1094  0.3199
14388W        W31236   0.722   7.077  14.043  0.0351  0.4774 -0.1570
14389W        W31237   5.480   7.509  14.589  0.1459  0.2894 -0.1085
14390W        W31238  17.252  13.814   2.131  0.2553 -0.1046 -0.2445
14391W        W31239  10.120   8.150  14.846 -0.0985 -0.0300  0.0559
14392W        W31240   2.003  16.363   5.103 -0.1641 -0.1190  0.0639
14393W        W31241   2.999   8.775   1.650  0.1659  0.0358  0.4184
14394W        W31242   0.332  14.478  14.231  0.0929  0.2215  0.0561
14395W        W31243   5.446  10.792   3.998 -0.2530 -0.0707 -0.0922
14396W        W31244   8.717   3.486  11.459 -0.1550 -0.1079 -0.1260
14397W        W31245   3.365   6.769  15.482 -0.1701  0.0303  0.3110
14398W        W31246  17.500   6.392  13.806  0.2417 -0.0970 -0.0331
14399W        W31247   8.022  10.103   4.727 -0.1811 -0.0931 -0.0557
14400W        W31248   1.412  17.765   3.211  0.0682  0.0134 -0.0617
14401W        W31249   1.164  17.790  11.744  0.3423 -0.2548  0.1349
14402W        W31250  15.206  12.215   3.817 -0.2428  0.0903 -0.0505
14403W        W31251  10.826   9.939  15.085 -0.1145  0.0340  0.0224
14404W        W31252   9.794   5.626  12.231  0.1961 -0.1920  0.0198
14405W        W31253  17.659  14.456  14.750  0.0144  0.3296  0.0388
14406W        W31254  11.252   4.225   1.736 -0.1636 -0.1455 -0.1922
14407W        W31255  11.592   3.695  13.266 -0.0909  0.0303  0.2245
14408W        W31256  11.813   2.933   3.342  0.0583 -0.1313  0.2318
14409W        W31257  14.706   0.720  13.806 -0.3884 -0.0934 -0.2869
14410W        W31258   5.025   9.912   3.749  0.0815  0.0089  0.0854
14411W        W31259  10.903  16.675   4.748 -0.1017  0.0726 -0.0278
14412W        W31260   2.659   4.331  15.517 -0.1941  0.0105  0.0532
14413W        W31261   6.823  14.908   1.785 -0.2034  0.3838  0.1017
14414W        W31262  16.483  17.080  14.285 -0.0830  0.2909 -0.0856
14415W        W31263  13.970   1.701   1.848  0.2788  0.2200 -0.0428
14416W        W31264   4.863   3.051  15.610 -0.0545  0.1971 -0.3054
14417W        W31265  13.075  14.628   2.103 -0.1923  0.0657 -0.1153
14418W        W31266  13.164  10.546  14.573  0.3464  0.0784 -0.0500
14419W        W31267   6.102   6.855   4.027 -0.4436  0.0831 -0.1862
14420W        W31268   9.028   6.193  14.257 -0.0315  0.1526 -0.1579
14421W        W31269   0.179  10.416   3.212 -0.0122  0.0493 -0.0587
14422W        W31270  17.418   3.950   4.983  0.3943 -0.0430  0.0691
14423W        W31271  14.606   1.791   5.391  0.1068 -0.0472  0.1438
14424W        W31272  17.560  11.688  12.447  0.1693  0.3071  0.1525
14425W        W31273  16.669   6.429  15.313  0.0286  0.1214 -0.1864
14426W        W31274   0.482  10.536   4.101 -0.1713  0.2418  0.1351
14427W        W31275  14.036  11.077  14.761  0.2337 -0.0411  0.0463
14428W        W31276   3.222  13.306  14.047 -0.2492  0.3449  0.5685
14429W        W31277  12.588  15.899   3.305 -0.0425 -0.0243  0.0796
14430W        W31278   2.303   9.305   1.018 -0.0561  0.0260 -0.3485
14431W        W31279   9.900   2.833  14.783  0.0548  0.0757 -0.0296
14432W        W31280   1.972  11.075   0.596  0.4276  0.0848  0.0336
14433W        W31281  10.284   6.390   4.190 -0.0691 -0.1602  0.4734
14434W        W31282  14.815   6.954   0.536 -0.1688 -0.0530  0.1170
14435W        W31283  15.630   6.447  10.746  0.1946 -0.2301  0.1119
14436W        W31284  13.001   9.401   4.961  0.0719  0.1420 -0.2544
14437W        W31285   5.760  12.411  13.970  0.1282  0.4242 -0.0610
14438W        W31286   0.801  13.526   0.729 -0.0156  0.0641  0.2407
14439W        W31287   7.965   9.919  11.980 -0.2081  0.2707  0.2117
14440W        W31288  16.834  14.443   0.469 -0.3182  0.2960  0.5095
14441W        W31289   9.947   4.373   0.230  0.1265 -0.0089 -0.1647
14442W        W31290  11.064  10.128  13.185  0.1843  0.0599  0.2284
14443W        W31291  16.424  15.550  15.550 -0.0896 -0.1614  0.3349
14444W        W31292   5.709  13.455  15.447 -0.2080 -0.1204  0.1035
14445W        W31293   7.699  13.883   5.344  0.0843 -0.0512 -0.2668
14446W        W31294  17.524   6.029  14.928 -0.3058 -0.0592 -0.4737
14447W        W31295  11.493   2.068   4.788 -0.0669  0.0657  0.2669
14448W        W31296   8.882  10.204   4.978  0.0560  0.0385  0.0929
14449W        W31297   5.573   2.632   4.846  0.2091 -0.0722 -0.1108
14450W        W31298   5.554   6.235   3.558  0.0873  0.1782  0.1727
14451W        W31299   2.678   7.270  12.754  0.0859 -0.0809 -0.0049
14452W        W31300   9.165  16.223  12.806 -0.0802  0.1348  0.1081
14453W        W31301  17.708  16.925   3.806  0.0273  0.4171  0.2095
14454W        W31302  15.974   7.484   4.903 -0.0394  0.1661  0.1261
14455W        W31303  11.104   4.881  13.793 -0.0198 -0.2748 -0.2026
14456W        W31304   3.030   2.579   3.863  0.3202 -0.2501 -0.1504
14457W        W31305   5.356   6.692   1.138 -0.0037  0.0595  0.0172
14458W        W31306  10.751   8.375  16.014 -0.2192 -0.1039 -0.0356
14459W        W31307   7.340   4.231   0.025 -0.0350  0.1327 -0.0063
14460W        W31308   4.525   9.807   4.710 -0.1329 -0.1072 -0.0270
14461W        W31309  17.621   3.904   3.719 -0.1216 -0.2170  0.1343
14462W        W31310  14.812  15.334   3.111  0.3638 -0.0412 -0.0800
14463W        W31311   7.061  11.174   0.230 -0.0343  0.1908  0.1317
14464W        W31312  15.708  12.064   2.563  0.4009  0.0339  0.0515
14465W        W31313  11.807  12.910   1.660  0.2936  0.0664  0.0697
14466W        W31314   8.643  15.017  14.561  0.2658 -0.0941 -0.0298
14467W        W31315  12.145   9.532   3.495  0.2641 -0.0957 -0.1730
14468W        W31316  13.047  15.577  14.114  0.3374  0.1946  0.2500
14469W        W31317   8.960  16.699   0.417  0.0578  0.0264 -0.1578
14470W        W31318  17.844  13.938   3.335  0.0778  0.1665  0.0701
14471W        W31319   8.201   9.075  11.554  0.0157  0.0924 -0.1128
14472W        W31320   5.789   0.078   2.045 -0.1605  0.2043 -0.0306
14473W        W31321   0.450  10.693   1.113  0.1320 -0.1946  0.1419
14474W        W31322   0.511  12.747   1.570  0.0710  0.0758 -0.2103
14475W        W31323   7.053   1.329   2.252 -0.0135 -0.1692  0.3421
14476W        W31324  13.934  14.701   0.664  0.2970  0.0059  0.0055
14477W        W31325   4.635   8.480   1.655 -0.1065  0.0814  0.2104
14478W        W31326  11.703   3.451   1.164  0.0215 -0.3418  0.2438
14479W        W31327   7.094   8.725   3.931  0.0924  0.0100  0.0757
14480W        W31328  14.407  10.224   3.506 -0.2218 -0.1386  0.1110
14481W        W31329   4.077   5.702   0.633 -0.0158  0.0295 -0.0420
14482W        W31330   9.457  10.531   5.025 -0.0336 -0.3166 -0.1696
14483W        W31331  15.201   7.205   0.626 -0.3057 -0.1507 -0.2870
14484W        W31332   7.716   9.401  13.804 -0.0305 -0.0433 -0.0509
14485W        W31333   7.375  15.076   3.701  0.0674 -0.0229  0.1194
14486W        W31334   2.150   7.362  15.810 -0.1146 -0.2090  0.0811
14487W        W31335  17.131   2.023   5.463  0.3405  0.0674  0.1316
14488W        W31336   5.956   6.320  11.854 -0.2767 -0.0639  0.1152
14489W        W31337   8.543   8.861   4.000  0.1668 -0.2696  0.1212
14490W        W31338   9.298  10.049   3.958 -0.0630  0.2246 -0.1193
14491W        W31339  11.273  13.400  16.124 -0.0158 -0.0406 -0.0223
14492W        W31340   6.323   4.405   2.714 -0.1297  0.2692 -0.1432
14493W        W31341  12.085  14.902   0.076  0.1390  0.0707 -0.1645
14494W        W31342  12.318   4.720   6.372 -0.1379 -0.2725 -0.1321
14495W        W31343  16.527  12.327   0.672 -0.0273  0.0542  0.1172
14496W        W31344   3.457   8.711   0.107 -0.1476  0.0843 -0.1318
14497W        W31345  16.534   6.890  16.112 -0.1494  0.2328  0.0342
14498W        W31346  15.685   3.572   2.431  0.0367 -0.2055 -0.0690
14499W        W31347   1.223   9.236  11.690  0.0972 -0.1546 -0.1733
14500W        W31348  10.788   1.887   0.873  0.1382  0.1204 -0.2780
14501W        W31349  13.671  14.020   3.996 -0.2820 -0.1495 -0.0056
14502W        W31350  14.553  10.670   3.755  0.1839  0.2760 -0.1831
14503W        W31351   3.206  14.334   3.122  0.3438  0.5302  0.0484
14504W        W31352  10.715  17.586  14.778  0.1118  0.0359 -0.0247
14505W        W31353  12.541  12.005  13.472  0.1108  0.2484 -0.0377
14506W        W31354  13.120  10.404  14.097 -0.0976  0.1403 -0.1406
14507W        W31355   1.619   2.570  12.829 -0.0805 -0.0837  0.1025
14508W        W31356   3.774  15.258   4.542 -0.0419 -0.5217  0.0905
14509W        W31357   8.199  10.006   4.184 -0.0318 -0.0040  0.2373
14510W        W31358  13.980  12.626   2.221 -0.1833 -0.1698  0.1616
14511W        W31359  11.690  14.807  16.174 -0.1497  0.2317  0.1742
14512W        W31360   3.464  11.837   0.614  0.0189 -0.0209 -0.3963
14513W        W31361   4.026  13.479   4.917 -0.0041  0.0589 -0.1435
14514W        W31362  16.152   2.550   2.244 -0.2153  0.1660 -0.1702
14515W        W31363   6.239   9.899  12.453  0.0270  0.0603 -0.0496
14516W        W31364   0.626  15.086  10.413  0.2856 -0.0664 -0.0191
14517W        W31365   3.010   1.485   0.932  0.0021 -0.1346 -0.2184
14518W        W31366   6.087  12.881   4.142 -0.1979 -0.1761  0.1466
14519W        W31367  16.435   2.609  16.066  0.2376  0.0101 -0.3326
14520W        W31368  11.178   4.206  12.644  0.0805 -0.1253  0.2794
14521W        W31369  13.509   4.476   0.418  0.1182 -0.2703 -0.1625
14522W        W31370  15.223   8.271  15.851  0.2258 -0.2638  0.2546
14523W        W31371  14.651  13.878   5.133  0.3316 -0.0416  0.0558
14524W        W31372  10.548   1.734   3.194  0.1197  0.1036 -0.2430
14525W        W31373   1.878   8.088   3.771  0.1172 -0.1590  0.0720
14526W        W31374  13.457   4.943   1.792  0.0306 -0.4080  0.3520
14527W        W31375  11.234  15.761   4.792  0.0929 -0.1327  0.1253
14528W        W31376   0.603  17.396  16.037  0.0866  0.3200  0.0256
14529W        W31377   9.689   7.312  14.412  0.1532  0.0675  0.0056
14530W        W31378  17.639   7.150   1.961 -0.2292 -0.0805 -0.0231
14531W        W31379  12.866  12.819   1.411  0.0752 -0.1465 -0.1892
14532W        W31380   5.013   0.899  13.430  0.1535  0.1241 -0.1450
14533W        W31381   1.899  16.133  15.582  0.1866 -0.0517  0.0732
14534W        W31382  15.606  16.105   1.543 -0.1165 -0.1205  0.0051
14535W        W31383   9.408   8.854   3.682 -0.0198 -0.0047  0.1264
14536W        W31384   3.883   6.774  15.985 -0.1404  0.0217  0.1432
14537W        W31385   4.819  13.092  12.959  0.2659  0.0597 -0.0288
14538W        W31386   8.799  13.825   1.135  0.0357 -0.0875  0.1884
14539W        W31387   7.701  11.982  10.524 -0.2473  0.0769  0.1831
14540W        W31388   9.260  17.746  11.960  0.3686 -0.0401 -0.1711
14541W        W31389  15.397   2.709   2.080 -0.0908 -0.0612 -0.0199
14542W        W31390   8.440  14.332  13.092  0.2427 -0.2121 -0.0790
14543W        W31391   6.876   4.209   2.031  0.4218  0.1892 -0.0250
14544W        W31392  11.400   2.860  13.224  0.1822 -0.3995  0.1215
14545W        W31393   7.280  11.717   2.862  0.1966 -0.1968  0.0601
14546W        W31394   6.555   7.222  14.697 -0.0892 -0.0435 -0.1140
14547W        W31395   2.973  15.411   6.162 -0.3249  0.2576 -0.1696
14548W        W31396  15.768  10.988  14.505  0.2135 -0.1567  0.0184
14549W        W31397   8.522  11.745   3.811  0.2238 -0.2104 -0.1637
14550W        W31398  14.710  15.402   4.043 -0.0305  0.0709  0.1382
14551W        W31399   5.679   5.933  13.295  0.3063  0.0303 -0.0479
14552W        W31400   5.709   7.621   0.699 -0.3519 -0.0822  0.0799
14553W        W31401   2.547  13.133  16.216 -0.1067  0.0946 -0.0700
14554W        W31402   1.998   5.155  13.371 -0.0169 -0.4827  0.1357
14555W        W31403   1.047   2.495   0.980  0.2278 -0.2235 -0.1241
14556W        W31404  13.857  13.136   0.871 -0.0809  0.0963 -0.0026
14557W        W31405   9.000  10.103   2.551 -0.1541  0.0741  0.2064
14558W        W31406  15.982  16.991  12.656  0.0359  0.3020  0.2886
14559W        W31407  13.172   0.740   3.980  0.0514  0.0657 -0.3020
14560W        W31408   1.386  12.302  15.926 -0.0947 -0.0645  0.2062
14561W        W31409  16.660   5.718   5.915  0.0342  0.2349 -0.0137
14562W        W31410   3.034  12.347  12.659 -0.2489 -0.3935 -0.1496
14563W        W31411  12.374   6.939   2.034  0.1825 -0.1873  0.1456
14564W        W31412   2.508   2.026  11.959  0.0407 -0.0102 -0.4343
14565W        W31413   0.733  17.642  13.139 -0.1429 -0.0763  0.1967
14566W        W31414   9.544   7.440  15.280 -0.2090  0.1203  0.2132
14567W        W31415  15.659  15.577   4.113  0.0628  0.0814  0.0047
14568W        W31416  11.702   0.346   2.725 -0.1269  0.1601 -0.4385
14569W        W31417   7.439   2.064   0.610 -0.0899 -0.1914  0.0195
14570W        W31418  12.353   2.037  16.562  0.2912 -0.1722 -0.1627
14571W        W31419  11.915  11.763   4.177 -0.0927 -0.1669 -0.1639
14572W        W31420   4.607  13.926  12.738  0.1525 -0.1385 -0.1500
14573W        W31421  16.340  13.080  13.943  0.1543 -0.0743 -0.0652
14574W        W31422   8.051   6.497  12.050  0.1431 -0.3731 -0.1144
14575W        W31423   5.224  12.297  14.664 -0.0178 -0.1977 -0.1131
14576W        W31424  11.339  10.868  11.870 -0.0969  0.0636 -0.1433
14577W        W31425  10.693  10.294  14.154 -0.0616  0.0497 -0.4079
14578W        W31426  14.028  15.921   3.991 -0.1081  0.0443 -0.0239
14579W        W31427   4.512   4.759   1.993  0.1488  0.0213 -0.0656
14580W        W31428   8.885  11.311   2.332 -0.3096  0.1027 -0.0121
14581W        W31429  17.297   7.462   1.131 -0.2672  0.2320 -0.1207
14582W        W31430   6.679   9.969   4.742  0.2370  0.1718 -0.0979
14583W        W31431   2.050   9.554  14.867  0.0948  0.1599 -0.0223
14584W        W31432   8.201   6.444   4.804  0.1091  0.2664 -0.0799
14585W        W31433   2.535  13.917   1.991 -0.1801  0.1829 -0.2191
14586W        W31434   7.138  12.942  16.572  0.0798  0.2035  0.0789
14587W        W31435  13.747   8.798  13.266  0.2007 -0.3313  0.1566
14588W        W31436   1.795   5.555   2.767  0.1347 -0.2459 -0.1779
14589W        W31437  11.974  11.959  13.492 -0.0450  0.0694  0.1385
14590W        W31438   6.758  15.070  12.966 -0.0268 -0.0366  0.1835
14591W        W31439  16.084   0.811  14.724  0.4484 -0.1149 -0.1918
14592W        W31440   4.769   2.380  13.419  0.2693 -0.1412  0.0325
14593W        W31441  16.707  15.589  14.573 -0.1381 -0.3169  0.0573
14594W        W31442   0.489   9.740   2.745 -0.1393  0.0052 -0.0055
14595W        W31443  14.722  16.308   5.228  0.1815  0.2752 -0.1767
14596W        W31444   9.269   4.711   4.440 -0.1034  0.0984  0.0026
14597W        W31445   2.557   0.734  15.553 -0.2024 -0.0369  0.2559
14598W        W31446  11.524  12.811  12.402 -0.0070 -0.1770  0.2831
14599W        W31447   0.182  12.788  14.621 -0.0214 -0.1285 -0.1266
14600W        W31448  11.537   5.690  15.391 -0.3807  0.1732 -0.0664
14601W        W31449  12.736   0.346  14.969 -0.2363  0.0933  0.4469
14602W        W31450   3.332  16.505   5.678 -0.2034 -0.0682  0.0277
14603W        W31451  14.563   6.363  11.751 -0.1002 -0.2353  0.1955
14604W        W31452   7.442  12.455   2.383  0.0146  0.5182  0.0387
14605W        W31453   1.379   3.281  14.483  0.1450 -0.0444 -0.1004
14606W        W31454   6.748  17.475   4.609  0.0755  0.2035  0.1455
14607W        W31455   1.711   3.927   4.527  0.2775 -0.2936 -0.1027
14608W        W31456  16.217  12.599  12.911 -0.0151  0.0094  0.0301
14609W        W31457   6.279   6.154   1.579 -0.2154  0.1500  0.2325
14610W        W31458   7.941   0.180   5.047  0.1479  0.0193 -0.0046
14611W        W31459  16.257   6.045  12.020 -0.3204 -0.3558 -0.0588
14612W        W31460   6.307   9.768  14.003  0.0599 -0.0287 -0.0163
14613W        W31461   0.657   6.160  11.284  0.4356  0.1077 -0.3230
14614W        W31462  15.095  16.638   4.151  0.3431  0.0305  0.2492
14615W        W31463  15.560  10.728  15.396  0.0842 -0.0332  0.1973
14616W        W31464   8.972   1.420   0.292  0.0977  0.0035  0.1570
14617W        W31465  13.531  11.884   5.033  0.0929 -0.0234 -0.1306
14618W        W31466   1.645  15.219  13.322 -0.0226 -0.0529 -0.2020
14619W        W31467   5.123   7.266   2.985 -0.0256 -0.0027  0.0559
14620W        W31468   1.818   4.686  13.884  0.0670 -0.2807  0.0620
14621W        W31469   7.265   5.825   4.197  0.1594 -0.0713  0.1279
14622W        W31470   2.373   4.273  11.908  0.0270 -0.2783 -0.2789
14623W        W31471   3.461  12.684   3.698  0.0254  0.1318 -0.0763
14624W        W31472   2.184   4.719  13.535  0.0601 -0.2297 -0.0343
14625W        W31473   4.581  12.395  15.985  0.1328 -0.2977  0.3154
14626W        W31474  17.489   8.647   1.841 -0.0725 -0.2788 -0.0374
14627W        W31475  12.371   6.418  12.441  0.0113  0.1168  0.1970
14628W        W31476  10.339   8.020  13.753 -0.4201 -0.1459  0.0356
14629W        W31477   0.858  11.164   4.127  0.0269 -0.1224 -0.0014
14630W        W31478   8.068  17.845   3.219 -0.1078  0.1302 -0.0509
14631W        W31479  14.233   6.824  14.795 -0.0724 -0.2562 -0.0043
14632W        W31480   2.816   2.462  12.081  0.4699  0.0309  0.2374
14633W        W31481  15.700  10.185  16.487 -0.1819  0.1235  0.3302
14634W        W31482  17.616   9.456   4.884 -0.2279  0.3258  0.1733
14635W        W31483  11.662  16.630  16.590  0.4756 -0.0856 -0.3192
14636W        W31484   1.626   1.218  14.546 -0.2779 -0.0537 -0.0008
14637W        W31485   2.829  14.239   1.765 -0.2222 -0.0269 -0.1253
14638W        W31486  10.196   4.404   3.236 -0.1159 -0.1485  0.5580
14639W        W31487  10.484  14.073   1.828 -0.0094  0.1317 -0.0328
14640W        W31488   4.929  13.906   6.593  0.1406 -0.3755  0.2333
14641W        W31489   2.842  16.740  14.480  0.0892  0.0323 -0.3386
14642W        W31490   7.388  16.214   3.999  0.0345 -0.3314  0.0048
14643W        W31491  13.039   6.208  15.662  0.1028  0.0484 -0.1930
14644W        W31492   3.397  14.856  14.518  0.0966 -0.3217 -0.0073
14645W        W31493  15.426   0.576  11.726  0.0311  0.1601 -0.4585
14646W        W31494   7.696   1.713   1.807 -0.3552 -0.1997  0.2768
14647W        W31495  12.042  15.652   1.682 -0.0772 -0.1341  0.2908
14648W        W31496   8.968  17.381  12.641 -0.1727 -0.2130  0.2743
14649W        W31497  12.806   5.006  15.820  0.3223 -0.0999 -0.0009
14650W        W31498  16.227  12.236   0.133 -0.0751 -0.1396 -0.1211
14651W        W31499   5.801   0.448   3.682  0.1121  0.1029  0.3143
14652W        W31500  10.748   1.239   1.446  0.1120 -0.0574 -0.2211
14653W        W31501   8.433   4.390   2.155  0.0989  0.1275  0.3267
14654W        W31502  13.969  10.506   4.371  0.0372  0.2077  0.0095
14655W        W31503   3.041  10.062  15.223 -0.0943 -0.0015  0.1082
14656W        W31504   2.706   4.208   3.491 -0.2830 -0.2307  0.1097
14657W        W31505  15.898   1.434  12.757  0.0244 -0.0076  0.5330
14658W        W31506   8.812  15.446   0.641  0.0748 -0.3564  0.0280
14659W        W31507   0.743  16.053  13.927  0.0580 -0.2735 -0.0862
14660W        W31508   2.680  13.168  12.831  0.1573 -0.0948 -0.1826
14661W        W31509  14.757   7.945   1.927 -0.2027 -0.1860 -0.2863
14662W        W31510   3.845   5.800  15.916 -0.1178 -0.0097  0.0670
14663W        W31511   4.925   0.156   1.383 -0.2526  0.1819  0.0117
14664W        W31512   6.203  10.353   1.556  0.0123  0.1987  0.1332
14665W        W31513  17.607  17.422   4.694 -0.0348  0.0433  0.1770
14666W        W31514   9.827  17.041  11.768 -0.1255 -0.0645  0.2515
14667W        W31515  17.160  14.302   3.810  0.0845 -0.1313  0.0049
14668W        W31516  13.859   6.418  11.534 -0.1353  0.0953 -0.0100
14669W        W31517   7.757  12.685   2.724 -0.1477 -0.1210 -0.1778
14670W        W31518   4.495   2.473  14.923 -0.0503  0.1244  0.1732
14671W        W31519  10.794   9.891   1.535 -0.0641 -0.2130  0.0048
14672W        W31520  16.288  12.085   2.061  0.2603  0.2533  0.3323
14673W        W31521   6.110   7.151  14.045  0.0968  0.3082 -0.1589
14674W        W31522   5.850   8.243   1.528  0.3144  0.1631  0.0747
14675W        W31523   5.463  14.350  13.026  0.0013 -0.0778  0.2097
14676W        W31524   4.285  10.890   0.428 -0.1402  0.2824 -0.0781
14677W        W31525   2.294   8.744  11.734 -0.0614  0.0100  0.1456
14678W        W31526  12.081   6.075  14.734  0.0065  0.3161 -0.1142
14679W        W31527   3.417   4.481  11.916 -0.0920 -0.1737 -0.3453
14680W        W31528  11.755   7.804  12.618 -0.1687  0.0582 -0.2887
14681W        W31529   8.655   2.051  13.005  0.2110  0.0590 -0.1094
14682W        W31530  11.686   6.718   0.172  0.0860 -0.1953  0.0428
14683W        W31531  15.376  14.650   5.131 -0.1595 -0.0453  0.0300
14684W        W31532   6.291   6.539  12.627 -0.1348  0.1269 -0.0131
14685W        W31533  13.517   3.265  13.786  0.1721 -0.2753 -0.0597
14686W        W31534   2.779  13.052   4.222  0.0356  0.1618 -0.1727
14687W        W31535   2.390  14.421  14.370 -0.1858 -0.1725 -0.2135
14688W        W31536  16.470  15.783   1.276 -0.0550 -0.1620 -0.0588
14689W        W31537   9.648   5.714  14.128  0.0837  0.0957  0.3121
14690W        W31538   0.566   8.046   4.842 -0.0210  0.1120  0.2496
14691W        W31539  14.475   0.100   0.326 -0.3202  0.0160 -0.0394
14692W        W31540  15.442   4.223   1.508 -0.2452  0.0806 -0.1331
14693W        W31541   0.743  10.996   0.150 -0.1730  0.1044 -0.0825
14694W        W31542  13.316   4.897  12.794 -0.0011 -0.0333 -0.2400
14695W        W31543  15.086  10.132   0.550 -0.0690 -0.0033  0.0971
14696W        W31544   0.439  13.878  12.589 -0.1093  0.0231 -0.3246
14697W        W31545  12.483   6.749   3.404  0.1360  0.1795 -0.0212
14698W        W31546  12.131  13.358  12.140  0.1469  0.3403 -0.0677
14699W        W31547  11.847   6.890  15.736 -0.4692 -0.2108  0.2011
14700W        W31548   4.382   7.012  13.742 -0.0209  0.0614  0.0274
14701W        W31549   8.387   7.357  13.785  0.0183  0.0917  0.0325
14702W        W31550  10.305  15.394   2.875  0.1724 -0.1103 -0.0214
14703W        W31551  17.097   1.431  13.173 -0.0100  0.3261  0.2234
14704W        W31552  10.835  16.672   3.007  0.0577 -0.0487  0.1538
14705W        W31553   7.160  15.009   2.167 -0.0149 -0.0687 -0.2529
14706W        W31554  15.463   6.409   0.187 -0.1739 -0.1200  0.1702
14707W        W31555  16.856   1.704   5.195 -0.5722  0.2338  0.0180
14708W        W31556   6.188   0.589  16.069  0.0637  0.0791 -0.1487
14709W        W31557  11.122  10.089  11.265 -0.2727  0.2325  0.1695
14710W        W31558  15.889  12.512   4.934  0.2635 -0.2414  0.2304
14711W        W31559   6.543   3.907   2.942 -0.0873 -0.1819  0.1663
14712W        W31560   7.011   3.730   2.167 -0.1484  0.2129  0.0262
14713W        W31561  13.066  13.139  12.297  0.2509  0.2231 -0.0266
14714W        W31562  13.931  17.314  13.928  0.5551 -0.0340  0.1440
14715W        W31563   5.394   9.253   0.162 -0.1161 -0.0082  0.1372
14716W        W31564   8.359  11.449   1.425 -0.0348 -0.0471 -0.2597
14717W        W31565   7.119  16.275  12.678  0.0822  0.0456  0.0587
14718W        W31566   9.710   7.531   2.021  0.0716  0.0906 -0.0253
14719W        W31567   4.619   3.856  16.138  0.2166 -0.0290  0.1882
14720W        W31568   1.825  11.814   0.349  0.1203  0.1578  0.0324
14721W        W31569   9.708   5.975   0.940 -0.0079  0.2346  0.2440
14722W        W31570  14.450   1.139   0.748 -0.3796  0.1570 -0.0809
14723W        W31571   9.396   6.917   5.616 -0.2940  0.0897  0.1296
14724W        W31572  13.655  12.240  12.658  0.2016  0.1008  0.4380
14725W        W31573   6.199   1.528  11.872 -0.2120 -0.2444  0.1224
14726W        W31574  12.915   5.898   4.566  0.1951  0.2658  0.0596
14727W        W31575  11.264   4.220   4.763 -0.1478 -0.0561 -0.0806
14728W        W31576   3.676   9.349  12.075 -0.2107  0.1875 -0.0030
14729W        W31577   6.076  16.300  15.553  0.0508  0.0253  0.2589
14730W        W31578  10.182  17.670  13.994  0.2293 -0.1957 -0.2354
14731W        W31579  11.183  13.022  13.798  0.1453 -0.2752 -0.2441
14732W        W31580  11.103   1.542  11.568 -0.2081  0.2565 -0.2594
14733W        W31581   4.428   6.648  13.410  0.2058  0.0143 -0.1970
14734W        W31582  15.446  12.463  11.796 -0.2435 -0.2000 -0.1968
14735W        W31583   8.786   7.081   6.063  0.1384 -0.1348 -0.2338
14736W        W31584   0.047   5.939   2.222  0.3008 -0.2372  0.3319
14737W        W31585   2.748  15.114   1.584  0.2148  0.0710 -0.0412
14738W        W31586   8.277  12.743   2.929 -0.0562  0.4103 -0.1730
14739W        W31587  15.914   0.111  15.210  0.0489  0.0885  0.3067
14740W        W31588   1.342  17.554  14.309 -0.2272  0.3854 -0.0284
14741W        W31589   8.542   0.622   3.860  0.0013  0.0199  0.1422
14742W        W31590  16.476   1.757   2.858  0.4175  0.2412  0.0176
14743W        W31591  15.114  13.989  11.860 -0.4258 -0.1239 -0.2148
14744W        W31592   9.612   4.074   2.688  0.0702  0.1880 -0.0940
14745W        W31593   0.242  17.226   4.702 -0.1912 -0.1139  0.0753
14746W        W31594   1.439   6.487   3.357 -0.1506 -0.0818  0.0503
14747W        W31595   5.388   5.836  14.297  0.0060  0.2298  0.0476
14748W        W31596   2.449   0.419  13.583 -0.2282 -0.0966 -0.1752
14749W        W31597   1.132   3.735   2.450  0.2603 -0.0908  0.0908
14750W        W31598  15.649   9.497  12.810  0.1241  0.2152 -0.0342
14751W        W31599  11.415  15.095  13.972  0.2572 -0.1201 -0.3257
14752W        W31600  10.330   2.202   3.142  0.2469  0.0378  0.1703
14753W        W31601   3.128   9.349  16.501 -0.1314 -0.1764 -0.0196
14754W        W31602   6.401  15.531   1.013 -0.0880  0.1842 -0.1294
14755W        W31603   7.136   9.206   4.449 -0.1394  0.2153 -0.1410
14756W        W31604   5.556  14.786  13.848 -0.1934  0.1073 -0.0499
14757W        W31605   0.827   5.475   3.114 -0.5323 -0.0544 -0.1602
14758W        W31606  12.440   8.146  16.298  0.2708 -0.2732  0.3124
14759W        W31607  15.181   3.545  16.066 -0.0314 -0.0259  0.0306
14760W        W31608   6.649  10.299   0.352  0.1047 -0.1700  0.1012
14761W        W31609  10.828   5.849   1.065 -0.0013 -0.3128  0.2845
14762W        W31610   1.505  13.510  12.742  0.0294 -0.1244 -0.0712
14763W        W31611  12.597   0.764  15.700  0.2529  0.1329 -0.1933
14764W        W31612   0.709  12.438   0.789 -0.1502 -0.4089 -0.2169
14765W        W31613   5.396  16.856  15.437 -0.1224 -0.0061 -0.2003
14766W        W31614  15.608   5.835   2.237 -0.1251  0.1041 -0.0024
14767W        W31615   9.939  15.057  12.859 -0.1533 -0.0594 -0.1241
14768W        W31616   0.406  16.972  15.740 -0.2727 -0.3495 -0.4750
14769W        W31617  15.567   4.188   0.971  0.2650  0.4192  0.1191
14770W        W31618  10.090   1.963   1.478 -0.1318  0.0564  0.0692
14771W        W31619  17.254  12.509  13.144  0.1159  0.1780  0.0835
14772W        W31620  14.440   0.063   3.094 -0.2265  0.1724 -0.0547
14773W        W31621  17.656  16.930   4.790 -0.4258 -0.0585 -0.1442
14774W        W31622  17.607  10.795   0.152  0.1471 -0.0497 -0.0862
14775W        W31623   9.629   8.618  12.277 -0.0875 -0.2060 -0.0524
14776W        W31624  17.793  17.068  15.566  0.1786 -0.1608 -0.0354
14777W        W31625  11.927   2.260  13.893 -0.1373 -0.3187 -0.1558
14778W        W31626   6.474   8.717   1.329 -0.0282  0.0457  0.1847
14779W        W31627  10.377   9.759   5.944  0.0128  0.0602 -0.0392
14780W        W31628   2.929   0.815  14.292  0.3065  0.3239  0.1662
14781W        W31629   0.578  12.598   2.808  0.0002 -0.1174 -0.0972
14782W        W31630   5.740  12.631   3.793 -0.0722 -0.1904 -0.1455
14783W        W31631   1.853  11.337  11.590 -0.0704  0.0860  0.0531
14784W        W31632   6.545  10.756  13.438  0.0970 -0.0509 -0.2333
14785W        W31633   3.711   1.556  13.620 -0.0885 -0.1289 -0.1545
14786W        W31634  10.844   7.335  12.291 -0.0777  0.1501  0.1323
14787W        W31635  13.685   7.323   4.466  0.2134  0.1668  0.3337
14788W        W31636  11.327  12.825   5.198 -0.0096 -0.0975  0.0703
14789W        W31637  14.239  14.912  12.636 -0.1950 -0.0610 -0.2251
14790W        W31638   3.017   2.500   1.463 -0.0072 -0.0303 -0.1142
14791W        W31639   0.123  11.233  11.923 -0.2706 -0.1164  0.2462
14792W        W31640  11.320  12.773   1.852 -0.2751 -0.3513  0.0688
14793W        W31641  15.426   7.095   4.119  0.0862 -0.1098 -0.0953
14794W        W31642  10.822  14.689   3.509 -0.3888  0.3673  0.0420
14795W        W31643   6.382  14.041   2.373 -0.2848  0.1738 -0.3035
14796W        W31644   3.689  13.533  13.251  0.0110 -0.1388  0.1535
14797W        W31645   6.373  15.160   0.193  0.1744  0.2966 -0.0592
14798W        W31646   3.873  13.851  15.731  0.3146  0.3090 -0.2395
14799W        W31647  16.521  13.106   4.301 -0.2711 -0.1732  0.2008
14800W        W31648   4.976  13.784   0.708 -0.3180  0.1728 -0.4463
14801W        W31649   8.822  10.982   1.872  0.1137 -0.1485  0.2517
14802W        W31650  15.345  13.982   3.435 -0.3986  0.0538 -0.1011
14803W        W31651   9.055  17.101   2.504 -0.0426 -0.0535  0.1795
14804W        W31652   4.807   5.474   0.890 -0.2713 -0.1949  0.0238
14805W        W31653   1.754   5.891  16.362  0.0710 -0.1233  0.2070
14806W        W31654  14.338   6.627  12.850 -0.0319 -0.1314 -0.2026
14807W        W31655   2.149   7.808  12.542  0.0340 -0.0155 -0.2840
14808W        W31656  12.109  10.050   4.050 -0.3387  0.0726  0.2151
14809W        W31657   4.917  11.507  15.246 -0.3437 -0.2080  0.1377
14810W        W31658   9.897  15.564   2.673 -0.0589  0.2418  0.1344
14811W        W31659  16.976  12.749   1.943  0.2840  0.1507  0.1448
14812W        W31660   4.594   9.636   2.186 -0.0852  0.3711 -0.1555
14813W        W31661  13.726   3.798   0.546  0.1424 -0.1763  0.2388
14814W        W31662   4.708   0.773   0.525 -0.1978 -0.3080  0.2957
14815W        W31663   4.089  16.749  12.622  0.1121  0.0644  0.0271
14816W        W31664   7.882   5.488  11.559 -0.0591  0.1960  0.0428
14817W        W31665   9.924   7.371  14.851  0.2805 -0.1457 -0.0536
14818W        W31666  15.301   7.899  13.093 -0.0466  0.0353  0.4665
14819W        W31667  16.248   2.359   5.098  0.1032 -0.1047 -0.1152
14820W        W31668   8.260  14.835   1.092 -0.1877  0.0574  0.0467
14821W        W31669  17.193   6.901  11.250  0.0022  0.1627  0.1696
14822W        W31670   3.101   9.281  11.433  0.0203 -0.0230  0.2765
14823W        W31671   6.393  16.258  14.349  0.3060 -0.4075  0.1672
14824W        W31672  11.472   0.470  12.469  0.2594 -0.0587 -0.0744
14825W        W31673  10.942   3.770  12.602 -0.0441 -0.0469  0.0015
14826W        W31674   9.146   1.274   6.197 -0.1162 -0.0167  0.2674
14827W        W31675  16.859  11.062  14.447  0.2384 -0.0204 -0.1438
14828W        W31676  17.251   6.183   6.031  0.2551  0.0029 -0.2379
14829W        W31677   2.800  17.283  13.807  0.1414 -0.2313 -0.0828
14830W        W31678  13.477   4.967  12.051 -0.3335  0.0740  0.2391
14831W        W31679   5.187  14.888  11.814 -0.1134  0.0143 -0.1452
14832W        W31680   5.521  12.254   1.935  0.1399 -0.4543  0.0306
14833W        W31681   1.827   8.092   2.881 -0.1446 -0.2518 -0.0833
14834W        W31682  12.496   4.265  13.309  0.1524 -0.0148  0.0129
14835W        W31683  15.783   9.375   1.053 -0.2046  0.0388  0.2665
14836W        W31684   0.743  15.413  12.453  0.1168  0.3939 -0.0400
14837W        W31685   3.159  13.470   2.586  0.0769  0.0039  0.1253
14838W        W31686  11.837   1.079  13.209 -0.1769 -0.2059  0.3188
14839W        W31687  14.349  16.050   0.407  0.0794 -0.0356  0.0305
14840W        W31688  17.767   1.403  15.865  0.2465  0.0006  0.1415
14841W        W31689   3.107   2.713   2.086 -0.2810 -0.1827  0.2593
14842W        W31690   3.675   5.271  12.361  0.3082  0.0709 -0.0484
14843W        W31691   0.575  14.041   1.979 -0.1127  0.1104  0.0489
14844W        W31692   6.630   2.867   6.020 -0.2740  0.0131 -0.1725
14845W        W31693   1.894  17.003   1.787  0.0677 -0.0610 -0.3065
14846W        W31694   9.169  15.219   1.407 -0.0582  0.1379  0.3058
14847W        W31695   8.206  13.416   4.688  0.0063 -0.0908 -0.0156
14848W        W31696  14.595   5.099   3.575  0.1055  0.6772 -0.2695
14849W        W31697  12.122  17.335  14.204  0.2412 -0.1701  0.3113
14850W        W31698  16.274   4.469   0.856 -0.2202  0.1092  0.0350
14851W        W31699  13.082   6.483  16.098  0.0654  0.0307  0.0262
14852W        W31700  14.585  14.130   0.285  0.1088 -0.0306  0.4037
14853W        W31701  10.003  17.460   3.511  0.1318  0.1163  0.0236
14854W        W31702   7.220  14.447   2.933 -0.0919 -0.1614 -0.3756
14855W        W31703   1.628   2.075  12.127 -0.1000  0.3876  0.0759
14856W        W31704  13.716   8.187   0.799 -0.1492 -0.0264 -0.2109
14857W        W31705   0.787   1.605  15.986  0.1191 -0.0956  0.4277
14858W        W31706   7.980   0.385   1.902  0.0112 -0.1677  0.1975
14859W        W31707  12.236   7.557   2.818  0.1636 -0.2772 -0.1144
14860W        W31708   7.116  15.012   5.568 -0.4707 -0.1603  0.0012
14861W        W31709   2.889  15.597   1.753  0.0930  0.1383 -0.0612
14862W        W31710  12.610  12.939   2.516 -0.0057 -0.0289 -0.0656
14863W        W31711  11.058  14.685   2.579  0.1174  0.0088  0.1537
14864W        W31712   5.861   2.482  16.471 -0.0647 -0.1530 -0.1902
14865W        W31713  12.001  11.435   0.617  0.0546  0.3254 -0.0641
14866W        W31714   6.893   1.039   0.375 -0.2970  0.0359  0.1540
14867W        W31715   6.033  15.628  11.937  0.0267 -0.0381  0.2909
14868W        W31716   6.332   5.687   0.530  0.0014 -0.2399 -0.1134
14869W        W31717   6.955   3.653   1.264  0.0363 -0.2286  0.2589
14870W        W31718   5.022   0.895  14.384  0.4927  0.2404 -0.0022
14871W        W31719   5.707  14.399   6.238  0.0631  0.3670 -0.0696
14872W        W31720   6.287   4.730   0.642  0.3626 -0.1325 -0.2029
14873W        W31721   3.431   2.068  12.343  0.0241 -0.0837 -0.1164
14874W        W31722  13.019  15.410   2.830 -0.2769 -0.0099 -0.1935
14875W        W31723  17.260  11.761  13.419  0.1873 -0.5254  0.1178
14876W        W31724  14.376  16.263  15.586 -0.2925 -0.3620 -0.0870
14877W        W31725   6.669   2.588   1.226  0.3033  0.1289 -0.1075
14878W        W31726  15.631   1.613  13.163 -0.1379 -0.0732 -0.1592
14879W        W31727   3.705  10.319   4.019 -0.0839 -0.0405  0.1810
14880W        W31728   3.425  12.290   2.079 -0.0860  0.1762 -0.1014
14881W        W31729  10.666  17.849   4.189 -0.0090  0.2964 -0.2120
14882W        W31730  15.943  16.222  14.648  0.2458 -0.2436 -0.1012
14883W        W31731   1.033   7.649  13.144  0.0302  0.1856 -0.0444
14884W        W31732  13.223   6.553  13.363 -0.1599  0.2452  0.1249
14885W        W31733   0.386  16.667   2.522  0.0333  0.2521 -0.2364
14886W        W31734  11.551   9.499  15.995  0.0537  0.2175 -0.0159
14887W        W31735  11.854   1.618  16.226 -0.1347  0.2756  0.2356
14888W        W31736   3.316  13.372   0.205  0.0001  0.0884 -0.2124
14889W        W31737  13.312  17.001  16.384  0.0461 -0.2406 -0.0388
14890W        W31738   3.697   5.880  15.420 -0.2726  0.1250  0.0281
14891W        W31739   9.539   0.679  10.495 -0.0327  0.1117  0.0515
14892W        W31740  11.918  16.391   0.354 -0.1339 -0.0170  0.0599
14893W        W31741   9.779   3.974  15.988  0.0673 -0.0062  0.2207
14894W        W31742   3.865   2.897   3.329 -0.0745  0.1009  0.0829
14895W        W31743  12.870  15.079   1.003 -0.1721 -0.2030 -0.0570
14896W        W31744   8.703   1.947   4.474  0.0404  0.1403 -0.1159
14897W        W31745  12.857   5.895   1.113 -0.0111  0.4260 -0.1964
14898W        W31746  14.445  13.243   5.200 -0.1001  0.0336  0.0669
14899W        W31747   8.263   7.931   1.895 -0.0909 -0.0658  0.0540
14900W        W31748   1.571  14.528   3.846  0.2211  0.1926  0.1060
14901W        W31749   3.948   2.198  13.247 -0.1168  0.0647 -0.3271
14902W        W31750   5.963  14.083   2.638 -0.1357 -0.1626  0.0997
14903W        W31751   6.062   9.358  14.785  0.0697  0.2052  0.0393
14904W        W31752   0.333   8.104   1.216  0.1672 -0.2791 -0.1357
14905W        W31753   6.451  16.015  13.247  0.3287  0.0270 -0.0168
14906W        W31754   6.447   9.265   3.512  0.0219 -0.0436 -0.2415
14907W        W31755   8.826   2.339   4.832 -0.0505  0.3362 -0.1113
14908W        W31756   8.856   6.296  11.466 -0.2236 -0.1408 -0.0332
14909W        W31757   1.619   5.026   3.322 -0.5052  0.0395  0.0183
14910W        W31758  10.277   4.020  12.124 -0.1292  0.0064  0.0926
14911W        W31759   3.635  17.730  13.816 -0.3734  0.2895  0.0946
14912W        W31760  13.981  17.360   3.799  0.0578  0.0307 -0.1952
14913W        W31761   7.971  12.510   0.723  0.1850  0.0079 -0.1531
14914W        W31762   8.841   6.609  16.104 -0.2244 -0.0323 -0.1762
14915W        W31763  16.371   3.012   2.019  0.2136 -0.0058  0.1403
14916W        W31764  17.383   5.375  15.638  0.0617  0.2755  0.0854
14917W        W31765   4.601   7.266  14.910 -0.0440 -0.0743 -0.2080
14918W        W31766   9.167   0.473  12.103  0.0184 -0.0355  0.0950
14919W        W31767  13.181   3.990  15.435  0.0929 -0.3350  0.0117
14920W        W31768   0.308  17.561  12.754 -0.0486 -0.3063  0.1171
14921W        W31769  15.813   7.318   0.538  0.0659 -0.1987 -0.0556
14922W        W31770   0.429  16.834   1.576 -0.1773  0.0534  0.0455
14923W        W31771   8.062  10.808  16.258  0.2850 -0.1785  0.0000
14924W        W31772  11.093  10.198   3.042 -0.1999  0.1673  0.4236
14925W        W31773   5.675  14.391  12.459 -0.1940 -0.3055  0.2119
14926W        W31774   6.897  16.836   0.336 -0.2838  0.0489 -0.0976
14927W        W31775   3.216   3.781  13.784  0.2172 -0.4547  0.1899
14928W        W31776   4.560  11.434   2.154  0.1910  0.1009  0.0592
14929W        W31777   2.853  10.617   0.280 -0.1157  0.1499  0.0130
14930W        W31778   9.752  12.866   2.229  0.2226 -0.1162  0.1467
14931W        W31779   1.251  10.514  11.970 -0.2476 -0.1549  0.1156
14932W        W31780   3.686   9.215   0.885 -0.0886 -0.0325 -0.1040
14933W        W31781   7.221   4.908  12.961 -0.1930 -0.1983 -0.3956
14934W        W31782   1.408   2.853  13.599  0.1515  0.0525  0.0270
14935W        W31783  11.727  10.701  11.487  0.5049  0.1592  0.1150
14936W        W31784  16.150  14.733  14.514 -0.2583  0.0847 -0.1941
14937W        W31785   6.588  17.673   1.035  0.0665  0.2428  0.0434
14938W        W31786   7.704  17.519   2.882 -0.0346  0.1905  0.0622
14939W        W31787   1.946  12.542   0.831  0.2226  0.0686  0.1183
14940W        W31788  16.739  17.054  12.637  0.1916 -0.1198 -0.1218
14941W        W31789  13.004   9.789   4.138  0.0088  0.2698 -0.0487
14942W        W31790   7.914  12.749  16.346  0.0261 -0.0446 -0.0871
14943W        W31791  17.273   9.153   6.028 -0.0097 -0.2339  0.1417
14944W        W31792  16.361   5.590   0.246 -0.0361 -0.0040  0.2831
14945W        W31793  17.721  16.431   4.466 -0.0107  0.0599 -0.0446
14946W        W31794  17.009  13.342  11.960 -0.1129 -0.0045  0.1517
14947W        W31795   2.750   2.305   2.337 -0.1556  0.1891 -0.0584
14948W        W31796   0.859  10.144  14.272  0.2666 -0.1143 -0.1636
14949W        W31797  12.886   6.243   4.155 -0.4871 -0.3719 -0.1922
14950W        W31798   9.043   8.820  15.886  0.2033  0.1710 -0.1874
14951W        W31799  14.860   9.662   0.704  0.1174 -0.0302 -0.1338
14952W        W31800   8.845   3.116  16.561 -0.1665 -0.0007 -0.1115
14953W        W31801  11.015   3.211  11.553 -0.3093  0.1982 -0.0864
14954W        W31802  10.717   9.613  15.462 -0.0163  0.0432  0.1010
14955W        W31803   1.143   0.811  15.177  0.1575 -0.0123  0.0599
14956W        W31804  13.509   1.440  13.330 -0.0414 -0.0382 -0.7179
14957W        W31805   6.225  16.799  14.448 -0.1864 -0.1174 -0.1476
14958W        W31806   4.872   6.358   3.724  0.1751 -0.3453 -0.3411
14959W        W31807  13.932  13.063   1.974  0.1511  0.1487  0.2880
14960W        W31808   0.027  16.362   2.477  0.2299 -0.0809  0.0420
14961W        W31809  16.402   1.451  15.322  0.1399  0.4478 -0.2165
14962W        W31810   6.322   4.908   3.789 -0.1787  0.0404 -0.0520
14963W        W31811   0.163   4.960  13.674  0.0506  0.1779 -0.0409
14964W        W31812  10.239   7.462   2.665 -0.1967  0.0774  0.2891
14965W        W31813   0.922   5.516   4.356 -0.0115  0.2263 -0.0052
14966W        W31814  16.681  16.740   0.556 -0.0142  0.0331 -0.0430
14967W        W31815   8.703  12.241   3.670  0.0070  0.3670  0.1909
14968W        W31816   0.205  15.528  12.396  0.1362 -0.0858 -0.0040
14969W        W31817   3.965  16.455   5.120  0.0590  0.0323  0.0720
14970W        W31818   7.574   0.616   0.829  0.2733  0.1221  0.0070
14971W        W31819  16.344   0.026  15.533 -0.0402 -0.1277  0.2078
14972W        W31820  15.461  16.946   5.539 -0.4498  0.1437 -0.0811
14973W        W31821   0.211  11.293   3.097 -0.0008 -0.1194  0.1226
14974W        W31822   7.957   5.108  14.533 -0.0102 -0.0761  0.0056
14975W        W31823  13.453  13.411  13.075  0.0906 -0.0902  0.5032
14976W        W31824  15.226   2.214  15.224 -0.1643 -0.1718 -0.1455
14977W        W31825   8.512  17.229  11.494 -0.1178 -0.0947 -0.2679
14978W        W31826  10.144   2.322   2.374 -0.1479  0.1419 -0.0993
14979W        W31827  12.759  16.803   3.076 -0.0597  0.0852  0.1087
14980W        W31828  14.361  17.724   2.624 -0.0575 -0.0440  0.5196
14981W        W31829   3.564   3.985   4.462  0.0559  0.1798 -0.0773
14982W        W31830   3.884  11.192   3.488 -0.0810  0.0343  0.0389
14983W        W31831   0.819  15.792   2.625  0.1729  0.0032  0.0750
14984W        W31832   4.197  14.260   1.106  0.0481 -0.1038 -0.1437
14985W        W31833  11.664   1.422   3.935  0.1111 -0.1660 -0.0440
14986W        W31834   5.250   6.783   6.171 -0.1055  0.0160  0.0778
14987W        W31835   7.367   7.100   2.594  0.0021  0.2590 -0.0645
14988W        W31836   3.535   3.261  15.738 -0.0355 -0.0443 -0.1689
14989W        W31837   0.088  15.543   1.168 -0.0173  0.1051 -0.1011
14990W        W31838  15.384   3.749   4.277 -0.0749 -0.0186  0.0924
14991W        W31839   5.456  10.594  14.057  0.0943 -0.2428  0.0694
14992W        W31840  14.450  14.874   1.665 -0.1468 -0.0103  0.0118
14993W        W31841   0.182   7.527  16.094  0.1419  0.1283  0.1015
14994W        W31842   4.837   3.430   3.554  0.3171 -0.2200  0.3779
14995W        W31843   5.026   0.006   4.566 -0.2960  0.1121  0.1816
14996W        W31844   8.352   4.703  14.549  0.1526 -0.3201  0.0026
14997W        W31845   1.482   6.039  14.742  0.4064 -0.3007 -0.1302
14998W        W31846  16.313  10.903   0.211  0.1125  0.1198  0.1614
14999W        W31847   4.587   2.175   4.328 -0.0995  0.0689 -0.2621
15000W        W31848  17.547  10.242  15.682  0.2337  0.3239  0.0732
15001W        W31849   1.838   8.950   2.779  0.3206 -0.1834 -0.1427
15002W        W31850   3.556  12.593  13.160 -0.1351  0.0898 -0.0741
15003W        W31851  14.575  17.824  14.829  0.1619  0.0748 -0.0632
15004W        W31852  17.428   4.620  15.183 -0.3691 -0.0085 -0.0090
15005W        W31853   2.295  12.199  12.094 -0.0803  0.0846  0.0398
15006W        W31854  14.930  15.292  12.133  0.3231 -0.2302  0.0974
15007W        W31855   6.306   0.829  11.077 -0.0371  0.3548  0.0636
15008W        W31856   1.210  15.184   3.481  0.0002  0.0163  0.1883
15009W        W31857   2.499   1.164   3.544 -0.0164 -0.2692  0.2499
15010W        W31858  14.132  14.511   4.550 -0.0976  0.1327  0.0742
15011W        W31859   8.032  12.861   1.978 -0.0612  0.1387  0.2992
15012W        W31860  13.098   8.851   4.147  0.2206 -0.1835 -0.0633
15013W        W31861  12.906  15.268   5.064 -0.0405 -0.0591 -0.0824
15014W        W31862   0.757  14.293  14.398  0.0722  0.1681  0.2185
15015W        W31863   7.332   8.944  12.678  0.0873  0.0679  0.1661
15016W        W31864  16.113   2.634  11.426  0.4016  0.0225  0.0848
15017W        W31865   4.311   0.112  14.367  0.1633 -0.0242 -0.0604
15018W        W31866  13.805   4.636  13.938 -0.0350 -0.1654  0.0383
15019W        W31867  16.198  16.190   3.017  0.1258  0.0976 -0.0503
15020W        W31868   7.998  11.733   3.676  0.5121  0.0583 -0.0705
15021W        W31869   1.650  16.184   2.964  0.0431 -0.0648 -0.2756
15022W        W31870   2.533   2.490   3.616 -0.0158  0.1186 -0.0966
15023W        W31871   6.296  11.803  13.280 -0.2493  0.0603 -0.2201
15024W        W31872  16.167  12.989   2.915 -0.0343 -0.0289  0.3405
15025W        W31873   6.633   8.317  13.993  0.0119  0.1056 -0.1197
15026W        W31874   8.889   1.482   4.664 -0.2504  0.0444 -0.0518
15027W        W31875  17.198   5.614  14.191 -0.1892 -0.3635 -0.0741
15028W        W31876   5.568  13.484   3.987 -0.1028 -0.2989  0.2154
15029W        W31877  13.009  14.783   3.997 -0.1332 -0.1060  0.4190
15030W        W31878  17.199  10.540   3.343  0.3933  0.2122  0.0472
15031W        W31879   2.538   9.445  14.462  0.1785  0.2104 -0.0894
15032W        W31880   3.811   8.108  15.887  0.4179 -0.2573  0.0540
15033W        W31881   0.218   7.883  11.529 -0.0961 -0.1852  0.4045
15034W        W31882   1.046  17.384  13.511  0.0620 -0.1444 -0.3080
15035W        W31883  13.574   0.182   0.937  0.2152  0.3287 -0.1530
15036W        W31884   3.415   4.728   1.966  0.0307  0.1230 -0.1669
15037W        W31885   0.019  15.915  15.095  0.1489  0.3669  0.0111
15038W        W31886  15.648   0.567  14.603  0.0334  0.0270 -0.0970
15039W        W31887   7.498   7.375   6.049  0.1508  0.0491 -0.0315
15040W        W31888   6.592   0.098  15.442  0.2402  0.0681  0.2297
15041W        W31889  15.394   3.509  12.639  0.0143  0.1578  0.0947
15042W        W31890  14.953   5.233   2.635 -0.3033  0.0727 -0.1551
15043W        W31891   7.284  13.749   6.519  0.0034 -0.2022 -0.1351
15044W        W31892  12.821   1.634  15.919  0.3346 -0.1057 -0.0836
15045W        W31893  11.262   1.537   0.743 -0.2330 -0.0610  0.5441
15046W        W31894   3.596   1.570   4.162  0.1484 -0.3018 -0.0073
15047W        W31895  17.286   3.919  13.872 -0.3618  0.2606  0.0565
15048W        W31896   1.782  11.791   3.624  0.0823  0.2708  0.3398
15049W        W31897   4.020  12.145  12.120  0.0665  0.1344 -0.0838
15050W        W31898   8.525  13.196   1.954 -0.3182  0.3034  0.0350
15051W        W31899   3.659   5.346   2.429 -0.0359  0.0305  0.0119
15052W        W31900   3.807   1.472   1.903 -0.2473 -0.4852  0.0195
15053W        W31901   2.109  13.851   2.324  0.0904  0.0717  0.1693
15054W        W31902   2.634   0.153  13.908  0.1567  0.3359  0.0238
15055W        W31903   2.439   6.894  15.898 -0.0568  0.3789 -0.3406
15056W        W31904   6.932  12.745  13.841  0.0058 -0.1801 -0.4321
15057W        W31905   6.804   2.667   2.983 -0.0193 -0.0275  0.1561
15058W        W31906   3.780   6.088  14.006  0.0974 -0.3047 -0.1000
15059W        W31907   7.121   0.599   2.380  0.0182  0.3462  0.0562
15060W        W31908  10.959   7.484   1.880  0.2862  0.1507  0.0871
15061W        W31909   3.786   9.676  16.401 -0.0154  0.1103  0.1932
15062W        W31910   7.229   7.584   2.587 -0.0220 -0.0586  0.1668
15063W        W31911   0.334  10.097   4.837 -0.3184 -0.0906  0.5261
15064W        W31912   1.617   2.494   5.491  0.0900 -0.0114 -0.3209
15065W        W31913   7.628   7.466  12.168 -0.2914 -0.2757  0.1966
15066W        W31914  11.800   3.860  14.370  0.0849  0.2225  0.0295
15067W        W31915   9.271   4.336   2.297  0.0246  0.2633 -0.2704
15068W        W31916   4.467  15.050  11.728  0.0277 -0.0448 -0.3146
15069W        W31917  15.482  10.573  11.213  0.2439 -0.0724  0.0220
15070W        W31918  10.643   7.509  16.467  0.0861 -0.2872  0.3644
15071W        W31919   1.016   3.898  16.071 -0.1975 -0.1063 -0.3321
15072W        W31920  15.590  16.475  16.104  0.3094 -0.0723  0.1630
15073W        W31921  15.265   2.945  14.666 -0.1686  0.0550 -0.0383
15074W        W31922   7.549  15.501   1.425  0.0378  0.1735  0.3869
15075W        W31923   5.907  10.480  11.431 -0.1225 -0.0692  0.0011
15076W        W31924   3.484  12.330   4.073  0.2945 -0.3582 -0.2220
15077W        W31925  12.690  13.618   3.042 -0.1710 -0.1628 -0.1940
15078W        W31926  14.746  17.615  16.182 -0.1596 -0.0159 -0.1939
15079W        W31927   1.322  15.522   1.004 -0.0647  0.1885 -0.2812
15080W        W31928  12.921   3.931   4.661  0.0384 -0.1158  0.3496
15081W        W31929   0.255  10.483   2.151  0.1108 -0.0095 -0.1344
15082W        W31930   3.536   3.681   1.850  0.1377 -0.0874  0.3378
15083W        W31931  10.475  12.300  16.523 -0.0204  0.1728 -0.0691
15084W        W31932   5.805  12.930  12.980 -0.1224  0.0831  0.1013
15085W        W31933   7.469  16.629   3.664  0.2638 -0.0001  0.0704
15086W        W31934   7.826   9.983   3.698 -0.2254 -0.1343  0.0880
15087W        W31935   2.088   5.100   3.004  0.2310 -0.0051  0.2005
15088W        W31936   1.906  10.079   3.160  0.0655 -0.0440 -0.2543
15089W        W31937  11.025   2.221   1.115  0.2638  0.2194  0.0064
15090W        W31938  13.241  15.298   4.681 -0.0897  0.0886  0.0671
15091W        W31939  14.863  17.282  13.522  0.2576  0.1862  0.1437
15092W        W31940   9.470  11.209   1.502  0.1959 -0.1649  0.0602
15093W        W31941  15.724  10.516  11.648  0.0155 -0.0292  0.1011
15094W        W31942   6.228   5.592   3.229 -0.0635 -0.2641 -0.0542
15095W        W31943   2.256   0.684   2.525 -0.1800 -0.0449 -0.2685
15096W        W31944  13.520   8.214   3.997 -0.0076  0.1596  0.0629
15097W        W31945  16.053   6.262  14.135 -0.3634  0.1232 -0.0885
15098W        W31946   3.752  12.195  12.509 -0.2344  0.0710  0.0013
15099W        W31947   0.802   2.346   0.612  0.4813  0.0786  0.0653
15100W        W31948   7.986   4.301   6.043 -0.1884  0.1790  0.4468
15101W        W31949  16.952  10.464   0.181 -0.1422 -0.2284  0.0685
15102W        W31950  17.376  12.904  15.576 -0.1774  0.1602  0.2547
15103W        W31951   2.231  15.794   3.961  0.0054 -0.3057 -0.1807
15104W        W31952  13.246   5.777  11.768 -0.1012  0.0480 -0.1530
15105W        W31953   5.936   7.460  15.998 -0.2154  0.1546 -0.2186
15106W        W31954  12.618   0.494   0.799  0.1473  0.1804 -0.2988
15107W        W31955  14.913   1.640  16.259  0.0851  0.0522 -0.0166
15108W        W31956   0.704  11.604  15.499 -0.0567 -0.0656  0.0704
15109W        W31957   7.463   9.333  14.265 -0.0152  0.2989 -0.2730
15110W        W31958   1.729   7.088  15.818 -0.2673 -0.0616 -0.1628
15111W        W31959  13.684   3.648  16.623 -0.3031  0.1400 -0.0399
15112W        W31960  14.571   8.018  11.826 -0.0707  0.0213  0.4406
15113W        W31961  15.502  12.050  14.460  0.0976 -0.0219  0.1657
15114W        W31962   8.356   8.348  11.288  0.0731  0.1392  0.1190
15115W        W31963   3.889  11.041  12.060 -0.2836  0.1032 -0.2455
15116W        W31964  11.957   8.630   3.192 -0.3068 -0.3195 -0.1185
15117W        W31965  15.886   5.314  12.439 -0.0611  0.0321 -0.2886
15118W        W31966  11.992  11.032   4.935  0.2845  0.1719  0.0116
15119W        W31967  10.065   3.096  14.325 -0.2213  0.1349  0.1409
15120W        W31968  16.265   5.679  12.374  0.2272 -0.2296 -0.3079
15121W        W31969   5.243  17.826  14.257  0.4501  0.1342  0.0335
15122W        W31970   9.278  14.181   1.128 -0.1601 -0.2402 -0.1198
15123W        W31971   9.947  17.387   2.050  0.0729  0.3946  0.2277
15124W        W31972   2.831  10.242  12.836  0.0672  0.3137  0.3257
15125W        W31973  12.225  16.407  15.097  0.2247 -0.2228  0.1735
15126W        W31974   9.256   6.827  13.680 -0.0441  0.0954 -0.2803
15127W        W31975  14.648  10.647  14.234 -0.3746 -0.0053  0.0722
15128W        W31976   7.430   8.496  12.858 -0.2600  0.0836 -0.1752
15129W        W31977  14.111   9.668  13.649 -0.0796 -0.1554  0.0216
15130W        W31978  10.301   8.641  11.621  0.0848 -0.2042 -0.0166
15131W        W31979  17.773   3.666   3.292 -0.0007  0.1565  0.0575
15132W        W31980   1.953  11.602  13.907  0.0318 -0.1358 -0.0997
15133W        W31981  11.000  13.644   2.170  0.1310 -0.0197  0.1759
15134W        W31982   8.685  16.500  12.516 -0.1656 -0.1452 -0.2183
15135W        W31983   1.780  14.864   0.263 -0.0155  0.0362 -0.4014
15136W        W31984  12.184   0.836  15.932  0.1896 -0.1465  0.1448
15137W        W31985  15.607   3.713  13.120 -0.1425  0.3785  0.2590
15138W        W31986  13.185   4.928   3.612  0.0898  0.3763  0.0175
15139W        W31987   1.359   4.802   2.388  0.1838 -0.0402 -0.3935
15140W        W31988  17.147  15.643  14.298 -0.3546  0.1567  0.1073
15141W        W31989  12.703   9.669   4.652  0.0201 -0.1635  0.1610
15142W        W31990  15.986  12.281   1.724  0.2777  0.0161  0.2987
15143W        W31991  12.178  15.189   1.234 -0.0602 -0.0795  0.1154
15144W        W31992  11.619  13.263  12.961  0.0755  0.0110  0.0723
15145W        W31993   2.488   4.776   4.701 -0.1530 -0.1900 -0.0198
15146W        W31994   0.724  15.322   3.406  0.0712 -0.1742  0.1052
15147W        W31995  17.816   8.211   3.567 -0.0840  0.0593  0.2695
15148W        W31996  13.521  13.263  12.490 -0.1545  0.1068  0.1676
15149W        W31997  15.884  15.270  12.325 -0.0734  0.1381 -0.1740
15150W        W31998   5.378  10.848  12.219 -0.0993 -0.1042  0.0749
15151W        W31999  14.066  14.144  13.277 -0.0915  0.1611 -0.1127
15152W        W32000   4.402   7.598   0.359 -0.2221 -0.1203 -0.0001
15153W        W32001  11.892   5.500   3.841  0.0039  0.1474  0.0346
15154W        W32002   0.579   4.849   1.853  0.2762  0.1493  0.0118
15155W        W32003   6.061  15.372  14.635  0.0566 -0.0945  0.2997
15156W        W32004   4.988  10.929  16.454  0.0833 -0.3153 -0.2130
15157W        W32005  12.251  16.770  15.514  0.1201 -0.1229  0.1157
15158W        W32006   7.397  16.706   4.198  0.3804 -0.1586 -0.0063
15159W        W32007  12.497   1.320   3.424 -0.5328  0.0927  0.1964
15160W        W32008   9.872  15.776   0.975 -0.0433  0.0218  0.1058
15161W        W32009   4.058   2.635  12.168  0.3476  0.1720  0.1274
15162W        W32010   6.429   7.776   3.691  0.1827  0.1474 -0.0195
15163W        W32011  15.646  12.867   2.438  0.0093  0.0385  0.2146
15164W        W32012  13.280   0.131  16.146 -0.0353  0.0483  0.3148
15165W        W32013  15.814  16.292  11.252  0.2615 -0.0887  0.1436
15166W        W32014   3.911  14.735   4.219  0.2253 -0.3229  0.0116
15167W        W32015  13.057   9.993   2.502  0.3336 -0.0384 -0.0950
15168W        W32016   5.721   1.912   4.263 -0.0141 -0.1994 -0.0425
15169W        W32017   8.974  14.797  16.121 -0.0185 -0.1599 -0.2212
15170W        W32018   2.391  14.843  11.714  0.1513 -0.0649  0.2660
15171W        W32019   7.837  17.560   4.683 -0.1353 -0.0254 -0.0873
15172W        W32020  16.308  15.805   3.266 -0.1576  0.0589 -0.3774
15173W        W32021  10.851  13.091   4.525  0.1754  0.2513 -0.3062
15174W        W32022  14.746  16.950  12.383  0.1039  0.1682  0.1996
15175W        W32023  16.316  16.046   3.888  0.0527  0.0203  0.2629
15176W        W32024  10.807   1.848   2.708 -0.1029 -0.1667 -0.0902
15177W        W32025   3.405   0.526   1.566 -0.1072  0.3744  0.2480
15178W        W32026   5.291  15.471  15.041  0.2237  0.1384 -0.2233
15179W        W32027  10.570  10.344  13.681 -0.0829  0.1142 -0.2847
15180W        W32028  15.052   1.427  11.952  0.2406 -0.2893  0.1483
15181W        W32029   6.618   7.049  14.200 -0.3084  0.0760 -0.1338
15182W        W32030   9.551  13.302  15.650 -0.0350 -0.1449 -0.1280
15183W        W32031   8.718  16.712   2.800 -0.1256  0.1514  0.0278
15184W        W32032  10.427  16.897   4.926 -0.0108  0.1674 -0.0496
15185W        W32033   9.397  10.278   3.481  0.0456 -0.2554  0.0888
15186W        W32034  11.611   3.343  15.160 -0.0481 -0.2461  0.1288
15187W        W32035   8.067  12.609  14.047  0.0365  0.1829  0.2902
15188W        W32036   5.103  15.039  16.173 -0.2744 -0.0546  0.0095
15189W        W32037  14.174  10.134  14.872  0.1225  0.1808  0.1663
15190W        W32038  16.115  11.754  12.718  0.0238  0.0629 -0.0907
15191W        W32039   1.701   8.464   3.584 -0.1419 -0.1921 -0.4053
15192W        W32040   8.851   5.566  14.645  0.0523 -0.0614 -0.1597
15193W        W32041   0.343  12.717   0.102 -0.0351 -0.1032  0.0478
15194W        W32042  11.073   2.139  15.345  0.3253 -0.0737 -0.1238
15195W        W32043  14.310   6.666  16.312 -0.3724  0.0468  0.3522
15196W        W32044  15.917   3.364   4.986  0.0081  0.1654 -0.3767
15197W        W32045   8.641   0.024  13.777 -0.1234  0.0618 -0.1237
15198W        W32046   6.675  13.507  11.174 -0.0915  0.1239 -0.2528
15199W        W32047  12.967   8.914  10.797 -0.1256  0.1609 -0.2588
15200W        W32048   0.378   0.800   1.207 -0.0792  0.2399 -0.2147
15201W        W32049   7.468  14.579   0.544  0.2090  0.1236 -0.1215
15202W        W32050   9.018   5.338  12.637 -0.0858  0.0921 -0.2900
15203W        W32051  17.002   1.233   1.815  0.0824 -0.1807  0.0520
15204W        W32052   9.432   1.193  10.547 -0.2494  0.0741 -0.2354
15205W        W32053  13.494   7.752  13.268 -0.1238  0.0189 -0.1044
15206W        W32054  15.056  15.604   1.362 -0.3267 -0.1435  0.2627
15207W        W32055   3.901  10.557  14.956  0.1352 -0.0259  0.2063
15208W        W32056  10.576  10.406  15.199 -0.2339 -0.0034 -0.0502
15209W        W32057   8.179   0.505  15.914  0.0175 -0.1023  0.0972
15210W        W32058  12.118   9.114  12.124  0.0300  0.0588  0.2927
15211W        W32059   0.483   5.023  12.047  0.0643 -0.2228  0.0987
15212W        W32060   1.470  13.463  13.529 -0.5847 -0.2018 -0.3401
15213W        W32061   2.866   2.794  12.469  0.1343 -0.0550 -0.0223
15214W        W32062  15.621   4.742  13.388  0.2489  0.3880  0.1187
15215W        W32063   2.917  17.809  11.780 -0.1724 -0.2402 -0.0538
15216W        W32064  17.500   7.775  11.360 -0.1387 -0.1606  0.0448
15217W        W32065   7.309  12.919   2.336  0.2137 -0.2037 -0.0442
15218W        W32066  16.343   7.839  11.698  0.3525 -0.0508 -0.0493
15219W        W32067   5.222   8.419   5.086  0.0742 -0.2501 -0.0224
15220W        W32068   6.561   0.509  11.930 -0.1099  0.1415  0.1419
15221W        W32069   7.602  12.686   1.964 -0.3623  0.0318  0.0357
15222W        W32070   2.971   0.305   1.467  0.1701  0.0572  0.0063
15223W        W32071   4.112  16.302  13.787 -0.0054 -0.0049  0.1749
15224W        W32072  14.552  10.637   1.781  0.0593 -0.1424  0.0106
15225W        W32073   7.981   8.511  11.614 -0.1586  0.1260  0.2261
15226W        W32074   2.704   0.364  15.826 -0.0466 -0.1588 -0.1011
15227W        W32075   2.556  10.623  12.913 -0.1461  0.0201  0.2950
15228W        W32076  12.053   3.797   1.269 -0.0718  0.2302 -0.0640
15229W        W32077  10.156   0.292  12.240 -0.0323 -0.0317 -0.2901
15230W        W32078   2.964   6.468   4.335 -0.4168  0.0292  0.0492
15231W        W32079   0.484  17.227   1.287  0.2246  0.1623  0.2772
15232W        W32080  11.801   8.327   1.624  0.2917  0.0196 -0.1376
15233W        W32081   1.347  17.370  12.486  0.0049  0.1455  0.0633
15234W        W32082   1.980  16.517   2.579 -0.1792 -0.2101  0.1644
15235W        W32083  14.465   3.206   1.031  0.0677 -0.0173  0.1475
15236W        W32084  13.232   0.904   2.725 -0.0768  0.1345  0.2211
15237W        W32085  13.001  12.736   4.855  0.0010  0.0632 -0.0150
15238W        W32086   1.121  16.204   2.991 -0.0735  0.1466  0.2183
15239W        W32087  12.743   2.304   4.261  0.3351 -0.1581  0.2241
15240W        W32088   0.951   2.077  16.558  0.0405  0.1718 -0.2460
15241W        W32089   0.659  14.251   3.675  0.1043 -0.0004 -0.0459
15242W        W32090   8.134   0.027   2.673  0.2361  0.1432 -0.1519
15243W        W32091  12.302   3.592  15.872 -0.1271  0.0167 -0.0955
15244W        W32092   6.782   7.172   0.503  0.1594 -0.1633 -0.1885
15245W        W32093   0.205  13.319  11.761  0.0996  0.1389 -0.1732
15246W        W32094   6.553  10.686  12.280 -0.0343 -0.4156  0.0845
15247W        W32095   3.782  11.579   4.725  0.2492  0.1604 -0.0926
15248W        W32096   1.900   1.348  15.297 -0.1477 -0.2252  0.1828
15249W        W32097   0.172   9.821   2.280  0.0586  0.1035  0.1011
15250W        W32098   4.918  17.240   3.420 -0.0628  0.3386  0.1355
15251W        W32099   6.148  12.444  15.835 -0.2881  0.2467 -0.1425
15252W        W32100   4.955   8.245  12.605 -0.1110 -0.0615  0.1266
15253W        W32101  16.855   2.000   0.854  0.1298 -0.4244  0.0213
15254W        W32102  15.078   0.260   1.153  0.0073 -0.0245  0.0758
15255W        W32103  11.530   9.939   0.825 -0.2151 -0.0899 -0.1903
15256W        W32104  16.409   1.171   0.699 -0.0716 -0.0396  0.3311
15257W        W32105   5.128   6.468  15.303  0.0567 -0.1414 -0.0509
15258W        W32106  10.120   8.427  10.805 -0.0388  0.0643  0.1070
15259W        W32107  15.737  17.240  16.008 -0.0497  0.0973  0.1106
15260W        W32108  12.464   4.387   2.895 -0.0418  0.0461 -0.1557
15261W        W32109  12.726   0.337  11.696  0.0729  0.0435  0.2720
15262W        W32110  13.604   9.575  11.927  0.1784  0.1459  0.0300
15263W        W32111  14.528   5.658   0.526  0.1055  0.3854 -0.1785
15264W        W32112  14.381   0.404  14.724  0.0730 -0.2498 -0.0301
15265W        W32113   0.278  16.527   3.084  0.0670 -0.0932 -0.0364
15266W        W32114  11.042  16.478  12.292  0.0809 -0.0278 -0.1924
15267W        W32115  12.638  13.519  15.391 -0.0417 -0.0041  0.1758
15268W        W32116   3.848   5.999   3.730  0.2888  0.0939 -0.3103
15269W        W32117  11.272   3.097   3.505  0.4304 -0.1697 -0.1791
15270W        W32118  13.323   3.629   5.412 -0.1308  0.0500  0.0975
15271W        W32119   5.237  12.181   4.508 -0.1182  0.1039  0.1662
15272W        W32120   5.792   0.617  13.097 -0.1169 -0.0782  0.1525
15273W        W32121  11.519  13.940   1.507  0.2786 -0.0424 -0.1764
15274W        W32122   3.730  10.141  12.993 -0.0730 -0.0896  0.2425
15275W        W32123   1.432   4.684  15.350  0.2024 -0.0561  0.0756
15276W        W32124  12.974  14.492  15.489  0.0942  0.0162  0.0421
15277W        W32125   3.735  16.029  15.156  0.1019  0.0487 -0.0074
15278W        W32126  13.621   2.120   5.100 -0.0315 -0.5944  0.1698
15279W        W32127  13.894   6.564  15.013 -0.0208 -0.0434 -0.2220
15280W        W32128  12.859   8.389  14.299 -0.1677  0.0085 -0.0358
15281W        W32129  15.268   7.255   5.113 -0.0415  0.0314  0.0556
15282W        W32130  14.622  11.974  15.668 -0.0062  0.3418  0.1277
15283W        W32131   6.493  15.905   5.147  0.0052 -0.1499  0.0056
15284W        W32132  14.175  11.786   2.843  0.2079 -0.1504 -0.0404
15285W        W32133  11.296   2.107   3.594  0.1751 -0.2705 -0.4490
15286W        W32134   1.970   3.370   0.263  0.0430  0.2284  0.1490
15287W        W32135   6.549   3.755  15.464 -0.2275 -0.0729  0.1925
15288W        W32136  14.938  15.460  15.420 -0.0155 -0.2722  0.1495
15289W        W32137   0.854  17.494  16.471  0.0631  0.1063  0.1018
15290W        W32138   8.115  11.222   2.882 -0.0870 -0.5068 -0.0780
15291W        W32139  12.002  17.200   1.516  0.1152  0.0828 -0.0318
15292W        W32140   0.349  15.378  10.676 -0.4349 -0.0941  0.0348
15293W        W32141  10.886  12.229   3.406 -0.3497 -0.0644  0.1832
15294W        W32142  10.020  16.914  13.100  0.0131 -0.0103 -0.0138
15295W        W32143   6.894   3.032   5.044 -0.1605  0.0409  0.1083
15296W        W32144   2.661  12.477   4.246 -0.0717  0.1060  0.2927
15297W        W32145   6.036   5.251  11.640 -0.0500 -0.2851  0.2987
15298W        W32146   6.485  13.713   3.895  0.0356  0.0823 -0.1698
15299W        W32147  11.464   6.396   1.531  0.3723 -0.2144 -0.0108
15300W        W32148   5.813   4.751  11.687  0.0470  0.0733  0.0888
15301W        W32149  13.412   9.921  14.265 -0.0925  0.3794  0.0152
15302W        W32150   1.789  13.623  11.370  0.2422  0.2830  0.2042
15303W        W32151  10.488   0.393  15.412 -0.2341  0.2590 -0.0787
15304W        W32152   3.980  14.507   5.501 -0.2636 -0.0156  0.1129
15305W        W32153   9.231   8.968   1.568  0.0599  0.2279  0.0371
15306W        W32154   8.695  13.000   0.023 -0.1893  0.1509 -0.0441
15307W        W32155   7.308   1.928  15.399 -0.1448 -0.1756 -0.0039
15308W        W32156  12.287   9.099   4.442 -0.0140  0.3558 -0.1003
15309W        W32157   0.058  15.926  12.620  0.2314 -0.1090 -0.2303
15310W        W32158   1.920  13.762  12.610 -0.2985  0.0795  0.1162
15311W        W32159  14.349   5.287  14.595  0.1657 -0.0272 -0.0896
15312W        W32160  10.465  11.857   0.902  0.2636 -0.2610  0.1231
15313W        W32161   9.842  14.509   2.504  0.0893  0.1467 -0.0506
15314W        W32162   4.739   6.223  13.573  0.0695 -0.1326  0.0868
15315W        W32163   5.572   5.638   1.729  0.1226  0.0703  0.3741
15316W        W32164   3.905  14.984  11.196 -0.0473 -0.3864 -0.0155
15317W        W32165   5.808  15.613   4.669 -0.0235 -0.0801 -0.2080
15318W        W32166  12.914   4.148  12.639 -0.1394 -0.1205 -0.2449
15319W        W32167   8.310  16.121   1.146 -0.0892 -0.1319 -0.2540
15320W        W32168  10.582   4.906   1.965 -0.1233  0.1941  0.0823
15321W        W32169   1.818   4.371   5.813  0.1329 -0.1043 -0.1646
15322W        W32170   1.747  11.031  13.552  0.1710 -0.2611 -0.2923
15323W        W32171  15.676   2.732  12.870 -0.1294 -0.3123 -0.1920
15324W        W32172  10.333  11.722   1.599  0.1572  0.2844  0.0060
15325W        W32173   1.903   8.322  13.536  0.2309  0.1184 -0.2132
15326W        W32174   8.737   9.274  14.661  0.1641  0.0784 -0.1416
15327W        W32175   4.508  14.726   2.251  0.0647  0.1026 -0.1258
15328W        W32176  17.427  10.608  14.158 -0.2340  0.0376  0.0756
15329W        W32177  11.590   9.212   5.226 -0.0954  0.0088 -0.4749
15330W        W32178  14.138   2.025   5.361 -0.0016  0.2213 -0.2159
15331W        W32179   2.360   1.938   3.293 -0.1603  0.1317  0.1701
15332W        W32180   2.641  16.868  11.745  0.3627 -0.3562  0.1638
15333W        W32181  13.597   1.523   3.386  0.3657  0.1755 -0.2344
15334W        W32182  11.104  14.977   3.981  0.2386  0.2269  0.0799
15335W        W32183   3.806  11.066  15.072 -0.1228  0.2570 -0.1598
15336W        W32184  10.879   2.548   1.652 -0.0094 -0.3838 -0.1629
15337W        W32185   2.057   4.817  14.837  0.1592  0.2146 -0.0019
15338W        W32186  11.456  16.924  16.220  0.1936 -0.1483 -0.3449
15339W        W32187   1.806  17.730  15.043  0.0779 -0.2965  0.2038
15340W        W32188   9.106   1.412   3.058  0.0427  0.0997  0.1799
15341W        W32189  12.816  15.878  11.700  0.0940  0.0091  0.0907
15342W        W32190   4.237   2.288  11.763 -0.1390  0.2113 -0.4009
15343W        W32191   5.485   0.439  12.112  0.0338 -0.0440 -0.0915
15344W        W32192  17.437   4.807  12.577 -0.1107  0.0673  0.1723
15345W        W32193  12.211  11.805  13.954  0.0874  0.1739  0.2036
15346W        W32194  13.952   6.644   1.069 -0.0080 -0.2288  0.4415
15347W        W32195  13.929   3.350   2.937  0.4303 -0.0586 -0.4107
15348W        W32196   8.959  11.249  11.314  0.1253  0.2668 -0.0536
15349W        W32197   2.320  13.102  13.199 -0.2042  0.0441 -0.0198
15350W        W32198   9.527  17.063  15.938 -0.1244  0.1122  0.0965
15351W        W32199   9.870   7.381   4.076 -0.1984 -0.0757  0.1753
15352W        W32200  13.625   4.236   3.029  0.0579 -0.1548  0.2664
15353W        W32201  11.242   8.539  15.263 -0.0087 -0.0823 -0.0357
15354W        W32202   7.153   4.600   4.136 -0.3206 -0.0679  0.1430
15355W        W32203  15.594  10.235  13.814 -0.1968  0.0685  0.0355
15356W        W32204   7.607   4.380  11.433 -0.1856  0.1011 -0.0370
15357W        W32205   9.165  12.263   3.359 -0.2470 -0.0741 -0.1392
15358W        W32206  13.323   7.720   0.121  0.0503  0.0042 -0.0672
15359W        W32207  12.966  17.603   2.679  0.2193 -0.0139  0.2302
15360W        W32208   9.302   2.644  14.965  0.1870  0.3046 -0.2212
15361W        W32209  13.814   9.273  12.994  0.1064 -0.0420 -0.1226
15362W        W32210  17.460  14.124  16.200  0.1223 -0.0103  0.2203
15363W        W32211   2.608  15.470   0.229 -0.1745 -0.1377  0.0006
15364W        W32212   7.265   0.016  13.924  0.0464  0.0911 -0.3030
15365W        W32213  15.051   1.514   5.392 -0.4239 -0.0617  0.2197
15366W        W32214   0.850  10.852  12.699 -0.3516 -0.0332  0.1134
15367W        W32215  11.420   0.588   1.612 -0.3503  0.1299 -0.2726
15368W        W32216   2.272   4.426  16.304 -0.2577  0.1260  0.1091
15369W        W32217  17.210  14.957  11.192 -0.2780  0.2059 -0.5961
15370W        W32218   1.670  16.672   0.107  0.0739 -0.2444 -0.0704
15371W        W32219  10.428   1.522   0.258 -0.2866  0.0819  0.5242
15372W        W32220  17.008   2.952   2.375 -0.0346  0.2593 -0.1435
15373W        W32221   5.973  17.459  14.249  0.0531 -0.0144  0.1213
15374W        W32222  12.644  17.173   2.695 -0.0728 -0.1739  0.0993
15375W        W32223  13.279  15.629   3.702 -0.1342  0.0862 -0.0842
15376W        W32224   4.852   8.427  13.445 -0.0250  0.1312 -0.1661
15377W        W32225   0.704  12.515  15.010  0.0517  0.1234 -0.0334
15378W        W32226   7.471   9.328  13.025 -0.0146 -0.1003 -0.0477
15379W        W32227  13.063   5.610  16.271 -0.4059  0.0841 -0.0921
15380W        W32228  14.787  11.611   2.767  0.0916 -0.1380 -0.2732
15381W        W32229   1.022   8.359   3.922 -0.2256 -0.0180  0.0751
15382W        W32230  12.715   8.158   3.513 -0.3960  0.0982 -0.3368
15383W        W32231   1.675   9.502   1.696 -0.2051 -0.1310 -0.5065
15384W        W32232   4.364   6.611   0.167  0.1912 -0.1826 -0.0214
15385W        W32233   8.990  13.148   2.154 -0.1388 -0.0322 -0.0988
15386W        W32234  10.653   6.007   2.770  0.3469 -0.1998  0.2336
15387W        W32235  12.846  12.271   3.957 -0.2694 -0.1913  0.0921
15388W        W32236  15.766   8.724   3.017 -0.1006  0.2607  0.0504
15389W        W32237   2.848  13.208  15.804  0.1789 -0.2229 -0.2734
15390W        W32238  16.410  15.732   4.949  0.2030 -0.2020  0.0063
15391W        W32239   5.704  16.346  11.263  0.0849 -0.0922 -0.0349
15392W        W32240   1.592   1.677   0.618 -0.0570 -0.0958 -0.4209
15393W        W32241  13.345   2.582  15.611  0.1396  0.0114  0.0041
15394W        W32242  10.383  17.232  13.151  0.0830  0.3540  0.0733
15395W        W32243   6.734   4.981  13.334  0.2218 -0.0757  0.0264
15396W        W32244   7.103   9.353   0.505 -0.0339  0.0381 -0.0573
15397W        W32245   1.420   3.111   0.005  0.3114  0.0350 -0.0629
15398W        W32246   7.235  16.270  16.494 -0.0989  0.1582 -0.2104
15399W        W32247  11.366  12.863   4.196 -0.1652 -0.1641  0.0975
15400W        W32248  10.318   6.348   3.035 -0.0570 -0.1593  0.0961
15401W        W32249  14.339  15.067  13.477 -0.2871 -0.1497  0.0754
15402W        W32250   1.686  17.075  15.794 -0.2699  0.0114  0.4348
15403W        W32251  15.134   0.478  12.138 -0.1271  0.2317 -0.0316
15404W        W32252   3.495  16.447  12.400 -0.4367 -0.0362  0.1960
15405W        W32253  13.517  12.722  12.442  0.0519 -0.0861  0.2366
15406W        W32254  15.901  11.332  12.549 -0.0968  0.0780  0.2984
15407W        W32255  13.372  13.523  11.992  0.2964 -0.3808 -0.2396
15408W        W32256  16.239   8.208  13.758 -0.0466 -0.2087  0.2986
15409W        W32257   6.109   4.875   2.591  0.1409 -0.0297 -0.1782
15410W        W32258  15.192   5.226   1.670  0.4288 -0.1461  0.0230
15411W        W32259   2.823   5.377   1.838 -0.1334 -0.0923  0.2105
15412W        W32260   8.394   5.487   2.246  0.0098 -0.0124 -0.3055
15413W        W32261   3.481   7.829   0.882  0.2211  0.0217 -0.0170
15414W        W32262  15.595   9.271  12.398  0.2032  0.3380 -0.1378
15415W        W32263  17.172  13.916   4.155  0.1622 -0.0519 -0.3459
15416W        W32264   2.035   6.516   4.710 -0.0417 -0.0707 -0.2486
15417W        W32265   9.106  17.821   1.698 -0.2264 -0.2307  0.2484
15418W        W32266   1.501  11.538   5.492  0.3476  0.0554  0.1350
15419W        W32267  17.237  12.385   2.129  0.2234 -0.2781 -0.0505
15420W        W32268  17.523   5.941   3.653  0.2100  0.1721 -0.6581
15421W        W32269  11.931  13.000   1.175  0.1154  0.2344  0.2139
15422W        W32270  16.821   5.661   0.518  0.0900 -0.2572 -0.1232
15423W        W32271   9.879   5.116  13.579 -0.0960  0.2071  0.0581
15424W        W32272   8.208  15.470   0.255 -0.2160  0.1604  0.4358
15425W        W32273  17.108  17.664   1.876 -0.1465 -0.1363 -0.0448
15426W        W32274   9.445   2.255  12.398  0.1442 -0.2090 -0.2970
15427W        W32275   1.515  17.797  12.093  0.0900 -0.1075 -0.0402
15428W        W32276   4.420   6.359   2.419 -0.0650 -0.3697 -0.1899
15429W        W32277  15.662   2.970   3.528  0.0226  0.0200  0.0208
15430W        W32278  11.171  10.823  14.026 -0.1368  0.1675  0.3071
15431W        W32279  11.215  13.986  16.125 -0.2511  0.0148  0.1056
15432W        W32280  12.334  16.852  12.805  0.1462  0.2396 -0.1549
15433W        W32281   1.102   5.334   1.590  0.0620 -0.1058 -0.0005
15434W        W32282  10.623   3.920   6.317  0.1424 -0.0651 -0.0359
15435W        W32283  12.376  14.486  14.388 -0.3260 -0.2779 -0.4491
15436W        W32284   1.849  12.975  12.156 -0.2605 -0.2472  0.4469
15437W        W32285  15.543   9.314  15.794  0.2377  0.1761  0.2255
15438W        W32286  11.209   9.636   2.881 -0.2316 -0.1616 -0.0261
15439W        W32287  13.376  11.092   0.802  0.0663  0.1876  0.0127
15440W        W32288  16.539   7.871   3.359  0.2238  0.1232  0.3174
15441W        W32289  10.352  15.947  13.855  0.3227 -0.1188 -0.2718
15442W        W32290  16.311  12.493   6.397  0.0621  0.1220 -0.0952
15443W        W32291   6.228   2.544  16.138  0.0883  0.1769 -0.0472
15444W        W32292   3.631  12.488  12.099 -0.1957 -0.1173  0.0444
15445W        W32293  11.266  10.653   6.379 -0.1801  0.1079 -0.0155
15446W        W32294  13.419  14.000   4.515  0.1295  0.3066  0.0086
15447W        W32295  17.490   1.716  13.075 -0.1463 -0.0506 -0.1731
15448W        W32296   8.364   3.995   0.676 -0.0050  0.1545  0.3469
15449W        W32297   4.281  17.521  13.111  0.3544  0.3668  0.3959
15450W        W32298  16.276   1.921  13.748 -0.0454  0.0278  0.4680
15451W        W32299   1.228  10.973   3.786 -0.2015  0.1978  0.0870
15452W        W32300  17.267   6.768   3.118 -0.0394 -0.1617 -0.0848
15453W        W32301   6.934  16.130  14.454 -0.0412  0.0563  0.0321
15454W        W32302  15.723   0.438   4.291 -0.0734  0.2030 -0.0430
15455W        W32303  12.705  13.518   5.757 -0.0014  0.0577 -0.0756
15456W        W32304  10.730  13.584   0.715 -0.0470  0.0564 -0.1279
15457W        W32305   2.694   8.736   0.005 -0.0664  0.2006  0.0999
15458W        W32306  13.529  15.799  12.930 -0.2449 -0.1199  0.2254
15459W        W32307   1.417   2.515   1.403  0.1372  0.1259  0.0585
15460W        W32308   4.962   9.245   1.467  0.0285 -0.1694  0.1043
15461W        W32309   3.922   8.665  13.834 -0.2679 -0.1774 -0.1255
15462W        W32310  16.933   3.033   4.364  0.1145  0.2620 -0.5018
15463W        W32311   9.348  11.572   0.631  0.0152  0.1997  0.3344
15464W        W32312  11.896   2.729  11.542  0.2922 -0.2359  0.1248
15465W        W32313   6.384   4.224   1.940  0.0976 -0.1422 -0.2306
15466W        W32314   2.418   5.414  13.632 -0.1272  0.1695  0.1180
15467W        W32315   0.600   7.953  13.456 -0.1160 -0.0282 -0.0493
15468W        W32316   3.445   7.084  12.521  0.0006  0.0987 -0.2883
15469W        W32317   9.967  14.981  11.456 -0.2675 -0.1195 -0.1371
15470W        W32318   5.429   7.089   0.871  0.4416 -0.0467 -0.0908
15471W        W32319   0.187  12.632   3.181 -0.1652 -0.2326 -0.0608
15472W        W32320   6.052   5.694  13.118  0.5840  0.1617  0.0112
15473W        W32321   3.855   7.850  14.522  0.1429  0.0584  0.2428
15474W        W32322   5.919   3.854  12.234 -0.0568 -0.2188 -0.3264
15475W        W32323  10.875  11.423  12.155  0.0159 -0.2272  0.2809
15476W        W32324  13.561  16.526   0.943 -0.0050 -0.0288 -0.2879
15477W        W32325   9.048  11.880   4.134  0.0028  0.1857 -0.0837
15478W        W32326   6.633   7.698   1.244  0.2225  0.1155 -0.0483
15479W        W32327  11.083  17.768   3.201  0.1872  0.4035  0.2329
15480W        W32328   1.446   7.399  12.986 -0.0638 -0.1225  0.0559
15481W        W32329   6.630   6.316  13.587 -0.0249 -0.2033 -0.0494
15482W        W32330   1.940   5.629  13.658  0.1034  0.3207 -0.0399
15483W        W32331  16.875   5.538   1.355  0.3121 -0.2345  0.0244
15484W        W32332  10.353   2.577   0.539  0.2986  0.0694  0.1361
15485W        W32333  17.741   2.951   4.035 -0.0133 -0.4341 -0.0770
15486W        W32334   4.644  15.332   2.843  0.0607 -0.1574  0.0296
15487W        W32335  13.770  13.547  11.686  0.0701  0.3276 -0.5692
15488W        W32336   2.541  16.241   5.257  0.0004  0.2885 -0.1784
15489W        W32337   8.325   3.346  14.954  0.1194  0.1401 -0.2160
15490W        W32338  14.781  12.410  14.512  0.0466 -0.0357  0.3776
15491W        W32339   8.459   8.430   3.775  0.0883 -0.2112 -0.0337
15492W        W32340   3.963   4.442  14.496  0.2060  0.1137 -0.0026
15493W        W32341   1.552  17.643  15.982 -0.1315  0.2213 -0.2134
15494W        W32342   6.229   5.233  15.265  0.2297  0.3072 -0.2478
15495W        W32343   2.664  10.531   1.857  0.0247 -0.1834 -0.0023
15496W        W32344   5.104   9.493  15.502 -0.1515  0.0254  0.0549
15497W        W32345   2.388  11.039  12.538 -0.1178  0.3275  0.0530
15498W        W32346  13.764  15.585  15.179  0.0824 -0.1969  0.0898
15499W        W32347  12.909  15.026  14.773  0.0722 -0.2222  0.2261
15500W        W32348  12.423   5.267  16.344 -0.0794  0.1525 -0.0741
15501W        W32349  10.344   9.559  16.028  0.0949 -0.0740  0.2230
15502W        W32350  16.283   0.226   2.633  0.1963  0.1375  0.1197
15503W        W32351   0.591   7.536  11.895  0.2541  0.1480  0.1480
15504W        W32352  13.630  16.064   4.325  0.0731 -0.0796  0.2253
15505W        W32353   4.693  14.960  13.372 -0.1013 -0.1251 -0.1035
15506W        W32354  15.783   8.466  15.655  0.0573 -0.1213  0.1036
15507W        W32355  15.698   3.784  15.580  0.2448  0.1464  0.0238
15508W        W32356  14.104  16.464   3.530 -0.0457 -0.0051  0.3252
15509W        W32357   2.051   4.301   4.022  0.0087 -0.2079  0.3439
15510W        W32358  16.061  14.739   2.152 -0.1658  0.2401 -0.1726
15511W        W32359   4.079   2.227   4.448 -0.0572 -0.2041  0.1750
15512W        W32360  11.087   9.049   0.952 -0.2427  0.1397  0.1290
15513W        W32361   8.683  13.180   4.753 -0.0778 -0.2087 -0.1394
15514W        W32362   5.218   6.123   4.869 -0.0259 -0.0198 -0.0583
15515W        W32363  12.547   9.797  11.598  0.1346  0.2484  0.2148
15516W        W32364   3.963   6.693   2.096 -0.0297  0.0998  0.0519
15517W        W32365  10.443  15.976   0.411  0.2590  0.0142  0.1117
15518W        W32366  12.607   3.443  14.373  0.0077 -0.3594  0.1686
15519W        W32367   9.968  17.736  12.563 -0.3251  0.0981 -0.0868
15520W        W32368   3.314   3.069  12.370 -0.0885  0.0987  0.0997
15521W        W32369  10.951   7.659  10.211  0.0963  0.0201 -0.1605
15522W        W32370  17.689   3.939  14.119 -0.0601 -0.0073  0.0305
15523W        W32371  13.453  15.135   3.932 -0.2428  0.0022 -0.1238
15524W        W32372   5.191  11.340  13.996 -0.2929 -0.0591 -0.0361
15525W        W32373   5.735   6.222   2.822  0.4566 -0.1162  0.0374
15526W        W32374   1.263   4.139   0.678 -0.2808 -0.3511 -0.1593
15527W        W32375  10.374  14.040  13.886 -0.0628 -0.1756  0.0704
15528W        W32376   1.028   6.191  14.517  0.0913 -0.1340  0.3247
15529W        W32377  12.840  10.446  13.359  0.0652 -0.0704 -0.2110
15530W        W32378  12.043  15.465   0.113  0.0780 -0.2042 -0.3026
15531W        W32379   3.115  12.355  13.206  0.3371  0.0424 -0.1698
15532W        W32380   5.294   8.640  13.532  0.1173 -0.0951  0.1862
15533W        W32381   7.942  11.760   3.128  0.2602 -0.1347  0.4422
15534W        W32382   5.237  10.523  15.074 -0.1359 -0.0814  0.0984
15535W        W32383   2.993   1.669  13.568 -0.1824  0.2516 -0.1902
15536W        W32384   3.427  15.315   2.256  0.1162  0.3116  0.4783
15537W        W32385  13.868  15.052  13.682  0.0105  0.1341  0.1793
15538W        W32386   7.474  12.742  13.440 -0.0893 -0.0506 -0.0305
15539W        W32387   9.291   9.856   1.725  0.1032 -0.1771 -0.0520
15540W        W32388   0.527  17.109   4.227 -0.0503  0.2795  0.3910
15541W        W32389   7.635  14.690   2.988  0.0428 -0.2340  0.2952
15542W        W32390  14.570  13.355   4.262 -0.2135  0.1203  0.1133
15543W        W32391  14.575   7.716   5.489 -0.0055  0.0982 -0.1579
15544W        W32392  11.260  13.304  12.377  0.0913  0.0702 -0.3525
15545W        W32393  12.555   0.357  13.104 -0.0196 -0.1090 -0.1191
15546W        W32394   4.219  12.755  15.178 -0.5030  0.1315 -0.1301
15547W        W32395   9.144   0.105  15.345 -0.0920 -0.0977  0.0537
15548W        W32396  17.843   9.768  16.129 -0.0224  0.1126  0.1878
15549W        W32397   7.320  14.553   4.403 -0.3427 -0.1495 -0.0542
15550W        W32398  13.182  13.977  12.826 -0.2036  0.2928 -0.1276
15551W        W32399   0.169  11.979  11.247  0.1198 -0.0554 -0.1467
15552W        W32400   7.463  14.471  11.159 -0.0412 -0.1918 -0.1066
15553W        W32401   9.763   5.845  16.482 -0.0232 -0.3283 -0.0082
15554W        W32402   9.415   6.898   2.864 -0.1711 -0.1210 -0.0324
15555W        W32403  15.062   2.642  13.864 -0.3657  0.1144 -0.0177
15556W        W32404  17.771   3.157  10.889 -0.0559 -0.2826 -0.2836
15557W        W32405   3.593   7.386   2.661  0.1863 -0.0177  0.1340
15558W        W32406  10.162   3.035   0.445 -0.1925 -0.0432  0.3843
15559W        W32407   2.514   9.420  15.884 -0.1924 -0.3418 -0.2837
15560W        W32408   6.681  14.567  16.247  0.3867 -0.2043  0.1020
15561W        W32409   1.186  10.547  14.554  0.1249  0.1745 -0.1165
15562W        W32410  11.964  10.101   4.781  0.1021  0.0207  0.3712
15563W        W32411  16.247   0.411  14.892 -0.4427 -0.0098 -0.1126
15564W        W32412  17.319   4.667   5.027  0.1290  0.2044 -0.0478
15565W        W32413   2.469   1.032   2.244 -0.2577  0.0135  0.0672
15566W        W32414  13.146   6.670   4.167  0.0223 -0.0880  0.2315
15567W        W32415   7.033  13.272  12.862  0.1296 -0.3473 -0.3412
15568W        W32416  11.598  15.489  12.054 -0.3874 -0.1257  0.2578
15569W        W32417   1.354  15.398   0.019  0.0968  0.1198 -0.0329
15570W        W32418   2.941   3.391   1.998 -0.2300 -0.0147 -0.1995
15571W        W32419  11.745   6.486  15.335  0.1138  0.1222 -0.3203
15572W        W32420   9.748  11.047  15.300 -0.1502  0.0677  0.0456
15573W        W32421   7.302  10.290  12.682  0.1560  0.0091 -0.0730
15574W        W32422   4.527  10.404  12.475  0.0565 -0.0381 -0.2791
15575W        W32423  16.127   1.449   1.464 -0.0437  0.3820 -0.0844
15576W        W32424  16.238   9.096   2.261 -0.0116 -0.2864  0.2313
15577W        W32425   3.670   2.687   2.731  0.1183 -0.0202 -0.0973
15578W        W32426   1.241  11.528  12.227 -0.1106 -0.2901  0.0467
15579W        W32427   1.114  10.340   3.051 -0.2951  0.4240  0.0461
15580W        W32428  12.455   9.044  12.983 -0.1549  0.2507  0.0545
15581W        W32429  16.373   5.739   3.368  0.1465  0.3089 -0.0850
15582W        W32430  16.137   2.172   3.051 -0.0841 -0.0051  0.4660
15583W        W32431  11.188  11.904   4.809  0.1779  0.2735  0.0485
15584W        W32432  13.259  16.137  16.273  0.2633 -0.0941  0.1645
15585W        W32433   9.141   9.472  14.810 -0.1736  0.0442 -0.2203
15586W        W32434  11.750   4.780  11.420  0.2348 -0.3000 -0.0182
15587W        W32435  11.961  10.619  13.684  0.2909  0.1195  0.0122
15588W        W32436  12.247   2.937  15.426  0.0057 -0.0447  0.0643
15589W        W32437  14.888   4.677   3.742 -0.3211 -0.0077 -0.1956
15590W        W32438  16.476  13.458   4.649  0.1101  0.4023 -0.0759
15591W        W32439  13.838   7.563  16.588  0.0960  0.0031 -0.0144
15592W        W32440   3.187  13.412  12.336 -0.2861 -0.0993 -0.2047
15593W        W32441  13.283   1.768   5.384 -0.2609  0.0920 -0.3089
15594W        W32442   8.186   1.515  12.374  0.0206 -0.1084 -0.1044
15595W        W32443  15.695   3.586   5.424 -0.3201  0.4509  0.2109
15596W        W32444  12.851  10.161  12.393  0.0226 -0.2990 -0.0453
15597W        W32445  11.159   8.978   1.493 -0.1675 -0.1726 -0.1145
15598W        W32446  14.566   1.568  13.185  0.3936  0.0836  0.0407
15599W        W32447  14.230   4.943  16.282 -0.2712  0.3262 -0.2768
15600W        W32448   9.547   8.334   1.625  0.1402 -0.1523 -0.0864
15601W        W32449   2.030   0.388  13.143 -0.0330 -0.0454 -0.0664
15602W        W32450   5.306   0.545  13.164 -0.0451  0.1589 -0.1562
15603W        W32451  12.670  17.526  13.421  0.0004 -0.0619 -0.0698
15604W        W32452  15.998  15.871  15.685 -0.0038  0.0796 -0.0004
15605W        W32453  13.607  10.606   3.528 -0.2459 -0.0283  0.0722
15606W        W32454  16.380  15.699   2.623 -0.0798 -0.1848 -0.1662
15607W        W32455   2.514   8.379  12.027 -0.0453  0.1521 -0.0876
15608W        W32456   1.671   4.062   0.388 -0.1226 -0.1716 -0.3888
15609W        W32457  16.151   9.995   0.043 -0.0096  0.0792  0.1665
15610W        W32458   7.304   0.477  14.034  0.0479  0.1481  0.2186
15611W        W32459  10.349  16.211  11.999  0.1219 -0.3655  0.0345
15612W        W32460  12.986  10.114  11.839  0.2070  0.1222 -0.1428
15613W        W32461  13.698   1.491  15.481 -0.0959 -0.3682 -0.1505
15614W        W32462   8.712   4.833   1.010 -0.5882 -0.3999 -0.2112
15615W        W32463   6.094   1.154  13.041  0.3230  0.2679 -0.0743
15616W        W32464  13.020  16.659  13.159  0.0431 -0.0262 -0.3938
15617W        W32465   7.994   1.067   5.438 -0.0490 -0.3136 -0.1171
15618W        W32466   4.787   4.636   0.622 -0.0582  0.1114 -0.1127
15619W        W32467  12.243   5.118  12.709  0.1617 -0.1087 -0.1419
15620W        W32468   7.975   7.336  11.801 -0.0091  0.0000 -0.0914
15621W        W32469   8.009  15.606  15.475 -0.1093  0.0618  0.3759
15622W        W32470   1.768   2.657   2.281  0.0021 -0.1847  0.0852
15623W        W32471   0.122  14.127   1.654  0.0952  0.0085  0.5460
15624W        W32472   7.541  15.481  14.035 -0.0375 -0.1402  0.3721
15625W        W32473  15.643  16.290  15.619  0.1457  0.1854 -0.1661
15626W        W32474   8.753   1.855   5.027 -0.1442 -0.1227 -0.1406
15627W        W32475   3.561   7.995  12.629 -0.2969 -0.1251  0.0775
15628W        W32476   4.220   2.380   3.387  0.2728  0.0754 -0.0469
15629W        W32477   3.612  12.823  11.755  0.1063 -0.0376 -0.2836
15630W        W32478  11.367   3.304  13.572  0.2017  0.0144  0.2842
15631W        W32479   2.408   9.267   5.500 -0.2765  0.1289 -0.0753
15632W        W32480   8.074   8.242  13.997 -0.1591  0.0491  0.1816
15633W        W32481   1.824  11.312   2.560  0.1438 -0.0618  0.4771
15634W        W32482   2.453   8.920   1.816  0.0272 -0.3034  0.0420
15635W        W32483   9.877  13.850  11.944  0.0657  0.1606  0.2014
15636W        W32484  15.874  13.580   5.139 -0.2183  0.1181 -0.0683
15637W        W32485   0.416  12.181   2.579 -0.1186 -0.2683 -0.0414
15638W        W32486   3.550  16.410   3.040 -0.2806 -0.0917  0.0773
15639W        W32487  10.175   3.277  13.832  0.0400 -0.0553 -0.1009
15640W        W32488   8.312  15.114  14.135 -0.1859 -0.3121  0.0552
15641W        W32489   4.948  17.221  12.719 -0.0064  0.1026  0.0993
15642W        W32490  15.541   2.910  15.166  0.2528 -0.0300 -0.0721
15643W        W32491  11.493   0.242  13.894 -0.2089  0.0809 -0.0340
15644W        W32492  14.357  10.315   4.021 -0.1225  0.1382 -0.1420
15645W        W32493  15.327   2.425  14.795  0.3583  0.1424  0.1729
15646W        W32494   3.066  16.195   4.320 -0.1294 -0.0159 -0.2342
15647W        W32495   4.172   5.880  12.263 -0.0247 -0.0325 -0.1231
15648W        W32496  15.989  12.581   2.706 -0.4031  0.2599 -0.2806
15649W        W32497  17.426  17.648   3.351  0.0265 -0.0827  0.0839
15650W        W32498  17.058  13.700  11.558 -0.2041 -0.1970  0.3723
15651W        W32499   8.855  17.531  11.736  0.0206  0.2040 -0.1275
15652W        W32500  11.098   6.661   1.724 -0.2415  0.0945  0.0668
15653W        W32501   6.024   2.273   2.063 -0.1022  0.0817  0.1981
15654W        W32502  16.802   6.200  16.278 -0.1669 -0.0667  0.0200
15655W        W32503  17.678   7.293   2.431  0.0238 -0.1088 -0.1115
15656W        W32504  13.680   3.663   3.271  0.1051  0.1309 -0.1793
15657W        W32505   1.721  16.916   4.287 -0.1053  0.3300 -0.3703
15658W        W32506   2.173   3.804   4.240  0.2613  0.0492 -0.1016
15659W        W32507   0.279  14.234  11.612  0.1863  0.0676  0.2087
15660W        W32508  14.305  15.066   0.641  0.3166  0.2633  0.1317
15661W        W32509  14.422  14.765  16.361  0.1197  0.0485  0.0442
15662W        W32510   6.261   6.081  12.864  0.1440 -0.1074  0.0146
15663W        W32511   8.287  14.916  13.172 -0.2411 -0.1066  0.1549
15664W        W32512   7.067   8.522  16.427 -0.1957 -0.1422 -0.1935
15665W        W32513  11.993   2.048   0.313  0.1849 -0.0208 -0.1515
15666W        W32514   1.559   0.553  15.495 -0.0949 -0.1136  0.2235
15667W        W32515   9.634   0.868  14.401 -0.1411 -0.3800  0.0829
15668W        W32516  10.951  15.319  14.264  0.2138 -0.0989 -0.2204
15669W        W32517   0.074  16.898   1.199 -0.1563  0.2141 -0.1473
15670W        W32518   4.074   9.389   5.506  0.3113 -0.0333  0.2327
15671W        W32519  11.249  15.017   0.311  0.0737  0.0209  0.0507
15672W        W32520   9.039   5.380  11.666  0.0991 -0.2578 -0.0789
15673W        W32521   8.840   1.358  14.676 -0.1299 -0.1550  0.0530
15674W        W32522   9.091  10.654   3.290 -0.2821 -0.1395 -0.0033
15675W        W32523  13.572   7.221   3.080 -0.1686 -0.1352 -0.1342
15676W        W32524  14.956   4.698  15.127  0.1234  0.1771 -0.2516
15677W        W32525   0.246   5.408  12.450  0.1744 -0.0843  0.0532
15678W        W32526  10.693  15.825  15.264 -0.0768 -0.2555 -0.1021
15679W        W32527   9.179   6.300   1.628  0.1874  0.1745 -0.1356
15680W        W32528  16.610  11.008   6.174 -0.2185  0.1262  0.1959
15681W        W32529   1.286  15.212   2.470 -0.0351 -0.2229  0.0041
15682W        W32530  17.251   3.201  11.912 -0.1629  0.3172  0.1041
15683W        W32531  12.801   2.961   1.678 -0.2724 -0.0118 -0.0548
15684W        W32532  17.070   8.706  16.035 -0.0555  0.0358 -0.0569
15685W        W32533   9.598  11.958  14.296  0.1684 -0.0868 -0.1320
15686W        W32534  14.808  16.415  10.593  0.1170  0.1056 -0.2043
15687W        W32535  12.114   7.291  16.285 -0.3271  0.2453 -0.4535
15688W        W32536  10.460   8.460  11.191 -0.0885 -0.0450  0.3028
15689W        W32537  12.449   1.877  12.414  0.0410 -0.3846  0.1648
15690W        W32538  14.189  17.817  16.421 -0.2452  0.1420  0.1872
15691W        W32539   4.787   2.160   4.755  0.1133  0.2052  0.3351
15692W        W32540   8.436  15.736  15.968 -0.3169  0.0276 -0.2407
15693W        W32541  13.086  17.114  14.269 -0.5642 -0.3005  0.2753
15694W        W32542   0.210   6.862   4.271  0.1289 -0.0136 -0.0271
15695W        W32543  14.068   3.794   5.327 -0.0087 -0.0026 -0.4369
15696W        W32544  15.164  17.049   2.598 -0.1161  0.0806  0.1083
15697W        W32545   8.425   2.698  13.649 -0.3300 -0.1378  0.2728
15698W        W32546   3.602  13.683  10.344  0.2321  0.0785  0.2350
15699W        W32547  11.126  17.658   3.947  0.1535 -0.0478  0.1068
15700W        W32548   1.951   0.836   5.627  0.0444 -0.0504 -0.0468
15701W        W32549   3.188  15.462  11.698 -0.0719  0.0006  0.0489
15702W        W32550  16.072   1.617  11.335 -0.0178 -0.1727 -0.0099
15703W        W32551   1.878   3.895  15.490 -0.0003 -0.0535 -0.1840
15704W        W32552   6.590   5.616  12.419  0.0877 -0.1080 -0.0204
15705W        W32553  14.688   9.218   3.348  0.1926 -0.0916  0.1379
15706W        W32554   8.109   3.409   1.977 -0.1333 -0.1537  0.0331
15707W        W32555   7.762  16.414  12.344 -0.0753 -0.1333 -0.1786
15708W        W32556   4.873   4.048   4.746  0.2850  0.2157  0.2220
15709W        W32557  16.748   3.060   2.799  0.1103  0.0280 -0.1006
15710W        W32558  12.911   9.030   3.021 -0.0076  0.0983  0.1326
15711W        W32559   6.578   7.894  15.187  0.0749  0.3077  0.0150
15712W        W32560  10.676   6.421   1.754  0.0719  0.1801 -0.0367
15713W        W32561   1.999  11.255  15.105 -0.2043  0.0672  0.0836
15714W        W32562  12.972   7.938  15.281  0.2006 -0.0741 -0.0893
15715W        W32563   1.303  15.784   0.551  0.0037 -0.0675 -0.0139
15716W        W32564  11.422   8.428   4.070  0.1320 -0.2357 -0.0299
15717W        W32565  17.381  15.262  15.173  0.0999  0.0082  0.2777
15718W        W32566   1.004   0.979  12.052  0.2236  0.1538 -0.1594
15719W        W32567   1.214  10.630  15.464 -0.2454  0.1658  0.1520
15720W        W32568   2.719  13.991  16.091 -0.1158 -0.1692  0.3916
15721W        W32569  17.436   5.306  16.543 -0.2550 -0.1378  0.1017
15722W        W32570   7.871   9.557  12.254  0.0059 -0.1931 -0.0796
15723W        W32571  16.192  17.002  13.416  0.4589 -0.1364 -0.1491
15724W        W32572   7.920   4.931  12.219  0.0790  0.0978 -0.1365
15725W        W32573   6.512  17.033   3.091  0.2366 -0.1359  0.0228
15726W        W32574  12.995   9.158  12.478 -0.0108  0.0602  0.1351
15727W        W32575   6.505  12.190   0.574  0.4839  0.1790 -0.0204
15728W        W32576   7.494  14.250  11.820 -0.0679 -0.0170  0.0446
15729W        W32577   1.233   8.627  15.705 -0.2318 -0.0072 -0.0590
15730W        W32578   8.669   0.952   4.231  0.4080  0.0663  0.0225
15731W        W32579   0.368  15.491   0.748  0.1820 -0.0320 -0.0274
15732W        W32580  16.045  12.994  16.108  0.0860  0.0503  0.1871
15733W        W32581  14.915   0.800  12.530 -0.3184  0.1639  0.0594
15734W        W32582   5.491  12.132  15.604  0.1983 -0.0053  0.1383
15735W        W32583   7.054  16.226   3.587 -0.3012 -0.0738 -0.0289
15736W        W32584   5.972   6.778  12.235  0.1149  0.3995 -0.3521
15737W        W32585   5.287   5.524  15.152  0.0451 -0.1502 -0.0606
15738W        W32586   5.857   7.961  16.101 -0.2115 -0.1068  0.1349
15739W        W32587   0.001   8.425  16.031  0.4165 -0.1185 -0.1537
15740W        W32588  16.663   3.680  12.357 -0.1773 -0.2239 -0.0742
15741W        W32589   4.139   5.422  12.434  0.2998 -0.0221 -0.0150
15742W        W32590  14.482   5.218   4.607 -0.1114  0.1852  0.0585
15743W        W32591   7.251  16.730  15.355 -0.0565  0.0774 -0.1966
15744W        W32592   4.836   1.382  12.504  0.0633  0.0998 -0.0205
15745W        W32593   3.054  17.479   2.182  0.1181 -0.0942  0.1166
15746W        W32594   9.462   0.687   4.329  0.3032 -0.3668 -0.0326
15747W        W32595   8.434   1.404   0.221 -0.0920 -0.2773 -0.1233
15748W        W32596   3.024   4.600   3.833  0.3914  0.1507  0.1304
15749W        W32597  15.296   9.323  11.965  0.2075  0.1735 -0.1191
15750W        W32598  10.476  15.872  12.966  0.0948 -0.1391 -0.1327
15751W        W32599   0.841  11.071  13.209 -0.0529 -0.0918  0.2890
15752W        W32600  17.308  16.072   1.165 -0.0670 -0.0752 -0.2541
15753W        W32601   1.559  10.362  11.383  0.0732  0.0890  0.1554
15754W        W32602  12.310  12.876   3.562  0.1494 -0.2881 -0.2195
15755W        W32603  11.753  16.307  14.847  0.1663 -0.0242  0.2121
15756W        W32604   5.134  12.700   1.019 -0.2757  0.1630  0.0434
15757W        W32605   5.726   9.689  11.265  0.1396 -0.1955 -0.0255
15758W        W32606  10.844   2.435  10.754 -0.1557  0.0509 -0.3988
15759W        W32607  14.552  15.596  11.787 -0.0112 -0.0138 -0.1457
15760W        W32608  11.067   6.768   3.617  0.0171 -0.0330  0.1404
15761W        W32609  16.169   0.452   1.181 -0.1530  0.1033  0.1277
15762W        W32610   4.143   2.503   2.781 -0.1604  0.2941 -0.1255
15763W        W32611   4.740  13.146  11.412  0.1571 -0.1858 -0.0096
15764W        W32612  10.634   2.213  13.010 -0.1677 -0.0890 -0.1297
15765W        W32613   6.221  14.442  13.567  0.0332 -0.3059  0.0298
15766W        W32614  15.950  12.030  13.946 -0.0472 -0.0497 -0.0713
15767W        W32615  14.905   5.512   0.160  0.0853  0.2544 -0.0242
15768W        W32616  12.354   2.317   2.181 -0.4301  0.0372  0.0079
15769W        W32617   5.260   2.140  11.517  0.0856 -0.0945  0.1524
15770W        W32618  15.892  12.465  16.480  0.2070  0.1131  0.2932
15771W        W32619  14.161   2.742   1.503 -0.0050  0.0122  0.5004
15772W        W32620  14.785  10.365   6.015  0.0674 -0.0685 -0.1487
15773W        W32621  13.721   3.959  12.435 -0.1950  0.2350  0.3138
15774W        W32622  14.536   9.703   4.173 -0.3085  0.1027  0.1492
15775W        W32623   4.022   3.453  15.397 -0.2033 -0.0894  0.1353
15776W        W32624   3.497   1.059   2.027  0.6133  0.3233 -0.2286
15777W        W32625  17.179   0.726   2.059 -0.0547 -0.0202 -0.0564
15778W        W32626   2.747   2.828  12.934 -0.0528  0.2257 -0.0829
15779W        W32627  12.166   3.901   1.732 -0.0817 -0.0521  0.1506
15780W        W32628   6.808  14.378   0.508  0.2279 -0.0079  0.2407
15781W        W32629   6.645   6.584  16.462 -0.1356 -0.1666  0.1064
15782W        W32630  17.048  10.810  12.567  0.3655 -0.0098 -0.1999
15783W        W32631  13.625   8.889   1.277 -0.4478  0.0202  0.2169
15784W        W32632   8.517   3.134   1.039 -0.0147  0.1591  0.0962
15785W        W32633   5.824  17.224   4.788 -0.1472  0.3760  0.2407
15786W        W32634  12.607   8.447   0.023  0.1409 -0.0335 -0.0373
15787W        W32635  15.310   9.076   1.656 -0.0329 -0.3738  0.3864
15788W        W32636  11.451  14.274  11.445 -0.1635 -0.0358  0.2570
15789W        W32637   4.299   1.959   2.593  0.2334  0.0197  0.0296
15790W        W32638  16.085   4.616   2.139  0.1462  0.1217 -0.1255
15791W        W32639  10.802   0.742  15.086  0.1602 -0.1011 -0.0307
15792W        W32640   1.561   9.037  12.607 -0.1580 -0.0908 -0.0656
15793W        W32641  11.155  11.746   2.161  0.0805 -0.2957  0.0649
15794W        W32642   1.448  10.920   2.509  0.3233 -0.1107 -0.0039
15795W        W32643   8.695   8.816   1.835  0.0978  0.0551  0.0817
15796W        W32644  11.340  16.396  12.682 -0.1313 -0.1263  0.1942
15797W        W32645   9.178  11.963   0.861  0.2057  0.0121 -0.2190
15798W        W32646   6.704   4.415  14.905 -0.1597 -0.1005  0.3473
15799W        W32647  17.713   2.229   3.414  0.1981  0.2212 -0.1316
15800W        W32648   5.489   3.051   1.960  0.0769 -0.0414  0.0505
15801W        W32649  11.309   9.740  15.255 -0.1368 -0.2178 -0.1204
15802W        W32650   6.017  12.408   4.189  0.3060  0.3230  0.1377
15803W        W32651   2.796   3.326  12.349 -0.2592 -0.0593 -0.2499
15804W        W32652   6.915   4.144   2.742  0.1548 -0.3774  0.1227
15805W        W32653  14.101   4.235   2.701  0.3034 -0.1911 -0.0284
15806W        W32654   4.614   8.827  16.481 -0.1909 -0.0936  0.0904
15807W        W32655  16.553   7.457   6.043  0.1695 -0.1125 -0.1855
15808W        W32656   5.786  17.544   0.335 -0.0173 -0.1912  0.1165
15809W        W32657  14.505  12.040  12.647  0.0704  0.2413 -0.0793
15810W        W32658   7.810   4.421   0.923  0.3551 -0.1626  0.2288
15811W        W32659   5.309  14.244  11.075 -0.1729 -0.0891  0.2532
15812W        W32660   8.154   5.514  13.483 -0.0907  0.2645 -0.0910
15813W        W32661   2.897  16.815   2.659  0.0763 -0.1345  0.0386
15814W        W32662   1.702   7.462  12.559 -0.1630 -0.3329 -0.1935
15815W        W32663  14.118   4.926   4.711  0.0438  0.4341 -0.1285
15816W        W32664   4.062  11.315   2.686 -0.1373  0.0539 -0.0998
15817W        W32665   5.844  17.617  12.732  0.0486 -0.2714 -0.1137
15818W        W32666   6.899   8.644  15.024 -0.0340  0.0186  0.0644
15819W        W32667  16.406  13.711  12.962 -0.1046 -0.1135  0.3146
15820W        W32668   9.414  14.917  15.297 -0.2472  0.0432  0.0914
15821W        W32669  11.278   0.246  14.532  0.1018 -0.0361  0.0015
15822W        W32670  15.066  16.727   2.225 -0.0867 -0.3339  0.0403
15823W        W32671  16.206  10.345  16.324  0.2758 -0.1888  0.0357
15824W        W32672   0.260  16.692   4.859 -0.1544 -0.1851 -0.0722
15825W        W32673  13.251  13.709   0.373  0.0403 -0.1942  0.0358
15826W        W32674   1.046  10.694  16.362  0.3582  0.0271  0.3638
15827W        W32675  14.783   7.137  12.222  0.0087  0.0936  0.0634
15828W        W32676   8.782   8.183  11.474 -0.1552 -0.3027  0.1129
15829W        W32677   1.875  17.043   0.806  0.0452 -0.1140 -0.0231
15830W        W32678   5.857  15.650  13.712 -0.0105  0.2356 -0.1884
15831W        W32679   5.562   1.992   3.283  0.4323 -0.0195  0.3445
15832W        W32680  13.857   1.402  16.334 -0.0236  0.2979  0.2817
15833W        W32681   7.229   6.462   0.502 -0.0886  0.0147 -0.3683
15834W        W32682   1.508  10.372   4.572 -0.0245  0.0168  0.2260
15835W        W32683   9.437  11.059  10.464  0.0448 -0.3367 -0.3416
15836W        W32684  10.761   0.230  15.825  0.2639 -0.1071 -0.1363
15837W        W32685   6.136   8.845   5.963  0.2330  0.0922 -0.1208
15838W        W32686  16.761  12.587  13.994  0.1864  0.4384  0.0916
15839W        W32687   0.511   1.551   2.692 -0.0431  0.3428  0.0261
15840W        W32688   8.735   3.133   4.470  0.1985  0.4577  0.0770
15841W        W32689   4.446  13.092   5.123  0.0127  0.1443  0.1865
15842W        W32690   1.687   2.442  15.438 -0.2440 -0.1015 -0.0189
15843W        W32691  13.396   4.884   5.438  0.1794  0.0484  0.0291
15844W        W32692   4.277   6.829  12.436  0.0934  0.1375 -0.2107
15845W        W32693   2.163  11.260  11.207 -0.1792  0.0844  0.0140
15846W        W32694  14.566   5.218  15.964 -0.2950 -0.0821 -0.0476
15847W        W32695  12.654   4.978  14.827  0.1136  0.0604 -0.1623
15848W        W32696   6.813   9.163   4.047  0.3273  0.2386 -0.0051
15849W        W32697  13.918   7.603  14.933 -0.3379  0.1844 -0.2616
15850W        W32698  13.841  16.465  14.378 -0.0999  0.0022 -0.1199
15851W        W32699   0.912  16.637  15.662  0.1086  0.0318  0.0537
15852W        W32700  15.213  13.242  15.683  0.0739 -0.1261  0.0858
15853W        W32701  11.760   7.163  11.826 -0.0323 -0.1422  0.4264
15854W        W32702  17.364  16.183   1.647 -0.2842 -0.0346  0.2256
15855W        W32703  16.739   1.101  13.354 -0.0063 -0.0114  0.0322
15856W        W32704  14.312   9.741   4.586  0.0106 -0.0528 -0.0353
15857W        W32705   0.439   4.952  12.529  0.0116 -0.2310  0.0718
15858W        W32706  11.990  14.984  10.832  0.1781 -0.1585  0.1005
15859W        W32707   3.539   3.774  15.505 -0.0447  0.3206 -0.0311
15860W        W32708   5.457  14.947  14.830 -0.0426  0.2397 -0.1267
15861W        W32709   4.367   4.192   3.910  0.1561 -0.0946 -0.0997
15862W        W32710   5.651  17.600   3.218 -0.4448  0.1890 -0.0867
15863W        W32711   6.733  14.718   0.131 -0.0086 -0.1331 -0.0490
15864W        W32712   7.578   2.287  12.574 -0.1557  0.0239  0.1720
15865W        W32713  14.977  14.373   0.459 -0.0583 -0.0416 -0.0932
15866W        W32714  17.686  13.160   4.278 -0.1195 -0.0907 -0.0253
15867W        W32715  13.870  11.575   3.550 -0.1678  0.0122 -0.0541
15868W        W32716  10.065   9.830  16.370  0.0715  0.0703  0.0232
15869W        W32717   0.691   8.584  11.791 -0.2551 -0.1724 -0.0347
15870W        W32718   9.606  14.398   2.971  0.1923 -0.0035 -0.1036
15871W        W32719  15.225  15.459   2.887  0.1028  0.3198 -0.0939
15872W        W32720   5.957  15.919  13.320 -0.2273  0.1375  0.2622
15873W        W32721   2.333  10.736   3.708  0.0816  0.2553 -0.2245
15874W        W32722  13.415   2.608  14.210  0.0422 -0.2131 -0.2068
15875W        W32723   1.476   2.576   2.736 -0.0497  0.0111  0.1838
15876W        W32724   4.193   7.610  16.539  0.1954  0.2650 -0.1840
15877W        W32725  10.260  11.795  15.510 -0.2347 -0.3213 -0.0170
15878W        W32726  10.637   4.038  11.566  0.1276 -0.2365  0.0472
15879W        W32727  10.798  13.579   3.188  0.1149 -0.3937  0.1481
15880W        W32728   3.480  17.388  14.333 -0.3730  0.0032  0.1591
15881W        W32729   8.609   9.690   3.330 -0.2568  0.1532 -0.2979
15882W        W32730  15.354  11.171  14.276  0.2461  0.1007 -0.1923
15883W        W32731   8.032   3.643   3.303 -0.1131  0.0515  0.0517
15884W        W32732  15.712   8.339  13.087 -0.0076  0.1434 -0.2016
15885W        W32733   3.934  11.273  16.235  0.2893 -0.3033  0.1190
15886W        W32734   5.699  15.470  11.181 -0.3068 -0.0498 -0.1204
15887W        W32735  14.321  14.318  11.701  0.1001 -0.0156 -0.0431
15888W        W32736  16.712   0.429   2.692  0.0937 -0.1396 -0.0276
15889W        W32737   6.770   7.982  14.360  0.1041 -0.0024  0.3047
15890W        W32738  12.984  15.001  15.607  0.3537 -0.3354  0.2388
15891W        W32739   9.322   5.479   2.210  0.0943  0.0764  0.1218
15892W        W32740   9.118  12.439   0.956 -0.1505  0.0419 -0.2010
15893W        W32741   0.500   0.112  14.698 -0.3984  0.0039  0.0771
15894W        W32742  12.145   8.346  13.347 -0.0589 -0.1259  0.0763
15895W        W32743  15.143   3.069  14.241  0.1436 -0.4116 -0.1562
15896W        W32744  11.809   6.126   3.580 -0.0094  0.0561  0.2111
15897W        W32745  15.846  12.573  13.241 -0.1241 -0.1700 -0.1248
15898W        W32746   9.855   6.651  13.915 -0.0580 -0.2258 -0.0533
15899W        W32747  14.131  16.772   2.369 -0.2272 -0.0278 -0.1315
15900W        W32748   2.193   4.454   3.351  0.4004  0.0334  0.1529
15901W        W32749  16.977   2.776   6.374  0.0263  0.0692  0.2052
15902W        W32750  12.654   4.790   1.742 -0.0692  0.3480  0.0065
15903W        W32751   3.800  12.659   0.423  0.0356 -0.0796 -0.0993
15904W        W32752   8.295   8.599  15.395  0.1950  0.1149  0.1984
15905W        W32753   4.853   4.605   2.577  0.0718  0.1468 -0.0228
15906W        W32754   4.087   9.525  12.432  0.1236  0.1854  0.0916
15907W        W32755  10.623   0.659  12.942  0.1854  0.2605 -0.1234
15908W        W32756  11.045   2.473   4.563 -0.1510 -0.0332  0.1236
15909W        W32757   3.645  17.388  14.877  0.4035  0.0712  0.2074
15910W        W32758   3.410  17.202   2.357  0.4041  0.0075  0.1233
15911W        W32759   1.651   8.114  14.183  0.0151 -0.0537 -0.1409
15912W        W32760  12.148   4.785   3.140  0.3145 -0.0186  0.1084
15913W        W32761  16.562   7.429   5.443 -0.0532  0.0169  0.3418
15914W        W32762  17.452  16.810  14.661  0.1193 -0.0290 -0.1555
15915W        W32763   0.691   0.814  14.913  0.1873 -0.2464  0.0820
15916W        W32764   3.571   1.071  12.239  0.0440 -0.1815 -0.2152
15917W        W32765   7.493   2.413   0.915 -0.1117 -0.1872  0.2986
15918W        W32766   5.599  11.066  14.138  0.0296  0.0199 -0.4687
15919W        W32767   5.119  17.422  16.111 -0.1945 -0.4547 -0.0025
15920W        W32768  11.722   3.345   0.030 -0.0388 -0.5152  0.0495
15921W        W32769  17.039   9.946   0.016  0.0551  0.2600  0.0136
15922W        W32770  10.558  16.780  16.273 -0.0269 -0.1681  0.0084
15923W        W32771  11.502  12.881   3.118 -0.3033 -0.0474  0.0937
15924W        W32772   7.457   1.316   4.261 -0.0271 -0.0675  0.0608
15925W        W32773  13.810   9.666   4.593  0.2722  0.1620 -0.1337
15926W        W32774  14.608   9.457   2.557 -0.3583  0.0633  0.0928
15927W        W32775   0.149   5.218  14.058  0.0710 -0.5020 -0.2834
15928W        W32776   2.676   2.784   2.453  0.0453  0.2088  0.1555
15929W        W32777  17.446  11.141  12.692 -0.4456  0.1331  0.3849
15930W        W32778   4.687  13.384  14.222 -0.0814  0.1421 -0.0158
15931W        W32779  16.684  13.537  12.229 -0.1953  0.0019  0.1928
15932W        W32780   4.650  17.092   4.618  0.1906 -0.1894  0.4587
15933W        W32781  17.185   2.110  10.583 -0.0651  0.0932 -0.4509
15934W        W32782  12.656   3.961  11.663  0.2653  0.3331 -0.3501
15935W        W32783  16.911   8.972  13.871  0.0464  0.0749  0.1932
15936W        W32784   7.438   7.907   3.846  0.1177 -0.2077  0.0278
15937W        W32785   9.807  11.984   2.829 -0.1103 -0.0113 -0.2274
15938W        W32786   9.152   0.890   5.945  0.2618  0.2121 -0.0433
15939W        W32787   2.645   3.326   5.922 -0.3090 -0.2039  0.2311
15940W        W32788   3.252   7.876  16.528  0.2366  0.2273  0.1607
15941W        W32789  15.212   1.146   1.641  0.0023 -0.0788 -0.1517
15942W        W32790   8.160  10.952   1.094  0.0755  0.0480  0.1476
15943W        W32791  16.847  13.680  15.609 -0.0961 -0.0168 -0.1655
15944W        W32792   0.516  17.109  14.735  0.0341 -0.0359 -0.0157
15945W        W32793  11.931   9.525  14.501  0.1162 -0.0776  0.0309
15946W        W32794  12.601  13.265   2.072  0.0148  0.1858 -0.0712
15947W        W32795   3.416   1.819   5.037  0.2517  0.2101 -0.1568
15948W        W32796   4.737  16.646   5.349 -0.0103 -0.2323 -0.1834
15949W        W32797   1.927  17.441  14.432  0.0797  0.0466  0.0979
15950W        W32798   4.969  10.572   1.628 -0.1612  0.0774 -0.0708
15951W        W32799  17.018  13.056  15.849 -0.1921  0.0875 -0.0745
15952W        W32800   0.183  13.360  13.882  0.1663  0.0149  0.0099
15953W        W32801   7.657  11.828  15.559 -0.1015 -0.1035  0.0001
15954W        W32802  11.507   2.906  16.421 -0.0774 -0.2349 -0.2210
15955W        W32803   7.188   1.941   1.045 -0.2466 -0.1137  0.0122
15956W        W32804   0.614  11.809   4.906  0.0470  0.1669  0.3087
15957W        W32805  16.114   5.151   0.211 -0.1442  0.0592  0.1710
15958W        W32806   3.729  13.650   3.533 -0.1859 -0.0357  0.2101
15959W        W32807  12.675   9.207   0.172  0.0224  0.1077  0.0501
15960W        W32808  10.719   6.334   0.962 -0.0290 -0.0205 -0.2124
15961W        W32809  12.508   8.898  15.079 -0.1500  0.1257 -0.2193
15962W        W32810  15.561   1.113   1.105 -0.3046 -0.1344 -0.0674
15963W        W32811   1.884   1.138  11.618 -0.0160 -0.2887 -0.1329
15964W        W32812  13.507  16.234   4.773  0.3687 -0.1139 -0.1901
15965W        W32813  14.771  16.781   5.096  0.1220 -0.2560  0.0104
15966W        W32814  12.430   6.211  12.895 -0.0838 -0.0488  0.2672
15967W        W32815  16.340  12.578   1.881 -0.1537  0.3784 -0.2334
15968W        W32816  15.328  17.424   4.322  0.1628  0.1551  0.2833
15969W        W32817   1.107   8.242   2.264 -0.2215 -0.0057 -0.3057
15970W        W32818   1.037  15.988  15.065 -0.3728  0.1873 -0.1633
15971W        W32819  15.719  10.782  12.095 -0.3147  0.1425 -0.1417
15972W        W32820  11.632  15.482   4.966 -0.3351 -0.0480 -0.0308
15973W        W32821  15.578   8.572   5.211  0.0943  0.0298  0.0879
15974W        W32822   7.500   1.598   1.352 -0.1718  0.3528 -0.0851
15975W        W32823  11.421   8.013   1.150  0.1723 -0.3478 -0.0620
15976W        W32824   6.251   0.913   2.144 -0.4304  0.0165  0.2607
15977W        W32825   5.165   3.905  12.951  0.2827  0.1341  0.1424
15978W        W32826   0.125   4.959   3.921  0.2496 -0.0553 -0.2241
15979W        W32827   5.897  16.547   3.485  0.1390 -0.3200 -0.1342
15980W        W32828   5.420  16.783  11.233 -0.1285  0.0333 -0.0494
15981W        W32829  17.568   6.393   3.962  0.1372  0.4760 -0.1251
15982W        W32830   4.257   9.381   1.895 -0.3514  0.3056 -0.1894
15983W        W32831   2.251  17.136  13.686  0.1931  0.1692  0.2487
15984W        W32832   7.825   4.168   3.315  0.1546 -0.0755 -0.0803
15985W        W32833  11.969  12.660   2.553 -0.0951 -0.1413  0.1112
15986W        W32834  11.862   5.986  16.120 -0.1361  0.2134 -0.0710
15987W        W32835   0.024  10.423  11.583 -0.0473  0.0361 -0.3374
15988W        W32836   4.588  12.520  10.620 -0.0344  0.0280  0.0308
15989W        W32837   3.999   6.248  15.621  0.0369 -0.1257 -0.1559
15990W        W32838   8.576   3.532   3.046 -0.0125 -0.2126 -0.2589
15991W        W32839  15.073  15.058  14.431 -0.1243 -0.1381 -0.0102
15992W        W32840  16.005   4.987  14.197  0.1030  0.2047  0.4532
15993W        W32841  10.758   6.458  11.481  0.0378  0.0238 -0.0147
15994W        W32842  11.057  15.810  13.410  0.1795  0.3201 -0.0256
15995W        W32843   7.027   0.702  15.946  0.1960 -0.1161 -0.0035
15996W        W32844  11.074  10.331  15.303 -0.0876 -0.3196 -0.1007
15997W        W32845  14.353  17.217  12.097 -0.0466 -0.3027 -0.1756
15998W        W32846  12.818  12.185   4.627  0.0261 -0.6141  0.2459
15999W        W32847   8.448  15.434  13.721  0.0223 -0.1875  0.2663
16000W        W32848  11.661  15.318   1.763  0.1290  0.2376  0.3406
16001W        W32849   9.446  17.411   1.743 -0.3255 -0.0672  0.2218
16002W        W32850  12.294  10.056  14.758  0.0579 -0.0529 -0.1070
16003W        W32851   5.974   9.359   3.583  0.1646 -0.1455 -0.1279
16004W        W32852   9.360   3.725  12.042  0.0224 -0.0387  0.2173
16005W        W32853   5.788  10.926   4.865  0.1993  0.1844 -0.1256
16006W        W32854   0.871   9.675  14.105 -0.3567  0.2294  0.0179
16007W        W32855  10.816   3.923   2.620  0.0003 -0.0996  0.0220
16008W        W32856   5.076  10.092   5.650 -0.1341  0.1679  0.1679
16009W        W32857  17.696  11.247   2.087  0.4396 -0.0351  0.0053
16010W        W32858  10.969  15.209   0.703  0.1782 -0.3281  0.0129
16011W        W32859  17.348   7.801   0.728 -0.2960  0.3130  0.1108
16012W        W32860  12.958   5.740   2.531 -0.1511  0.2097  0.0273
16013W        W32861  11.724  10.124   4.318 -0.0290  0.2439 -0.1212
16014W        W32862   5.850  14.234  13.920  0.1423 -0.1093 -0.2330
16015W        W32863   8.670  16.757  14.802  0.1204 -0.0501 -0.1291
16016W        W32864  14.619   3.405  11.142  0.1856  0.0784  0.0815
16017W        W32865   0.501  14.674  14.668  0.0898 -0.0597  0.1758
16018W        W32866   4.259   6.978   2.470 -0.1807  0.2036 -0.1446
16019W        W32867   9.404   2.388   2.666 -0.0170 -0.0171 -0.0939
16020W        W32868  15.459   8.943   2.666  0.0180  0.1766 -0.1651
16021W        W32869   5.194   0.925   0.345 -0.2474 -0.0515 -0.1287
16022W        W32870   7.643  10.004   4.317  0.2562  0.0332 -0.1051
16023W        W32871  11.773   7.872   2.953 -0.0707  0.1332 -0.1391
16024W        W32872  15.602   5.055   0.951 -0.0380  0.1785  0.3414
16025W        W32873   4.210  13.731   2.681  0.2605 -0.2192  0.2202
16026W        W32874  16.829   5.931   0.951  0.0058  0.4554 -0.2839
16027W        W32875  12.442   5.488  11.907  0.1675  0.0615  0.1455
16028W        W32876  13.050   0.489  14.529  0.0311  0.0625 -0.0588
16029W        W32877   9.563  16.673  14.745  0.1408  0.0726  0.0585
16030W        W32878  16.889  17.822   0.031  0.0686 -0.0910 -0.5555
16031W        W32879   0.119   5.896   3.675 -0.5181 -0.1387  0.2192
16032W        W32880   3.936  15.851  11.170  0.0433  0.1183 -0.0004
16033W        W32881   2.433  12.294  14.455 -0.1116  0.2416 -0.1386
16034W        W32882  12.802  15.264  13.819 -0.1868  0.0300  0.0452
16035W        W32883  12.027   4.879  14.149 -0.0451 -0.2363 -0.0417
16036W        W32884  12.793   7.311  13.544 -0.5242  0.2000 -0.0294
16037W        W32885  13.530  10.501   5.256  0.0111  0.0250  0.0363
16038W        W32886  17.443   0.523  13.295  0.2432 -0.0375  0.0447
16039W        W32887  12.239   5.009   0.447 -0.1973  0.1411 -0.1483
16040W        W32888   0.692   1.643  16.594  0.1646 -0.0717  0.0366
16041W        W32889   1.271  13.193   5.075  0.0728  0.2033  0.1268
16042W        W32890   4.364   1.830   4.784 -0.2866 -0.2626 -0.0218
16043W        W32891   3.054   3.368  14.446  0.2741  0.3312 -0.1913
16044W        W32892  16.317  17.221   2.014  0.1007 -0.0406  0.0894
16045W        W32893   5.618  15.970  12.773 -0.2339 -0.0465 -0.2162
16046W        W32894  16.631  17.698  11.513 -0.0515  0.0055 -0.1525
16047W        W32895   5.696   8.648   4.794 -0.1802  0.0324  0.1817
16048W        W32896   9.253   2.887   0.649  0.2397  0.2339  0.2065
16049W        W32897  12.979   1.058   0.843  0.2231 -0.1098  0.3258
16050W        W32898   5.716  16.809  14.304  0.2485 -0.0173 -0.0974
16051W        W32899   7.457  16.527   2.666  0.1707  0.1617  0.0126
16052W        W32900  11.347   3.338   4.791 -0.0299  0.2356 -0.1886
16053W        W32901   7.399   0.654   4.800  0.0673 -0.1604 -0.2341
16054W        W32902  14.221   8.490  13.153  0.2078 -0.1545 -0.1420
16055W        W32903  17.464  16.886  16.217  0.1191 -0.1981 -0.1709
16056W        W32904  14.517   3.003  12.976  0.3634  0.3238 -0.3211
16057W        W32905   8.794   5.566  15.266 -0.3862  0.0708  0.0684
16058W        W32906   1.839   1.635  11.447  0.3458 -0.0921 -0.0233
16059W        W32907  11.259  16.320   0.981  0.1289  0.1352 -0.0820
16060W        W32908  14.470  10.549   4.462  0.0689 -0.1632 -0.0741
16061W        W32909  13.014   7.336  12.911 -0.0907  0.1467 -0.1356
16062W        W32910  10.649   8.464  12.502 -0.1586  0.1587 -0.2005
16063W        W32911   8.074   9.095   4.982  0.0049  0.2832  0.0865
16064W        W32912   7.223  12.458  12.965  0.1628  0.0062  0.2754
16065W        W32913   3.841   2.100  13.741 -0.5486 -0.1007 -0.2535
16066W        W32914   8.563   4.016  16.069 -0.0525  0.0321  0.1649
16067W        W32915  12.989   2.606  11.277  0.0515  0.0644  0.1615
16068W        W32916   8.813  15.395  16.093 -0.0984 -0.1864 -0.1132
16069W        W32917  17.240   8.894  14.294 -0.1325 -0.0741 -0.0302
16070W        W32918   9.690   1.240  16.254  0.1236  0.0108 -0.0752
16071W        W32919  11.321   4.929  12.169  0.2724  0.0954  0.1937
16072W        W32920  17.724   6.543  12.477 -0.0486 -0.0188  0.0075
16073W        W32921   8.893  11.329   5.542 -0.0724  0.0360 -0.0523
16074W        W32922   4.384  14.917  16.035 -0.1644 -0.0145  0.1285
16075W        W32923   9.860  11.214  14.777 -0.3314  0.0613  0.1288
16076W        W32924  11.602   2.710  13.880 -0.0195  0.0646  0.0000
16077W        W32925  14.406   6.470   2.508  0.1679 -0.1274  0.1946
16078W        W32926   8.272   4.324   1.703  0.0923  0.0095 -0.0477
16079W        W32927   2.584  11.907  14.736 -0.0020  0.3137  0.0381
16080W        W32928  11.909   2.824  12.007 -0.0279 -0.1902 -0.2020
16081W        W32929   2.487   9.349   4.283 -0.2782 -0.1670  0.0496
16082W        W32930   8.602   6.277  13.422 -0.0575 -0.1187 -0.0351
16083W        W32931   9.452  17.447   0.587  0.0938 -0.2427 -0.0597
16084W        W32932   2.338  16.595  14.569  0.1155  0.0582  0.1001
16085W        W32933   5.114  12.556   1.966  0.1704 -0.3131 -0.1044
16086W        W32934  13.418   3.514   6.389 -0.0724 -0.1040  0.2219
16087W        W32935  14.270   6.213   0.350 -0.0265 -0.0846 -0.1863
16088W        W32936  13.046   7.836   2.103 -0.2004 -0.2250  0.3067
16089W        W32937  14.931  12.669   3.595 -0.0573 -0.0426 -0.5386
16090W        W32938   5.128   9.204   4.517 -0.1551 -0.1487  0.0298
16091W        W32939   9.613   8.847   2.401 -0.0243 -0.1870 -0.0335
16092W        W32940  10.343  12.749  13.426  0.0946  0.0812  0.0593
16093W        W32941   9.103  10.108  10.701  0.0640  0.1110 -0.2641
16094W        W32942  14.525   3.470  14.216 -0.0426 -0.1204 -0.0256
16095W        W32943   9.829  13.355  12.182 -0.0660 -0.0176 -0.3766
16096W        W32944  14.140  10.592  14.451  0.0271  0.2199 -0.0550
16097W        W32945  17.273   4.428  14.699 -0.0342  0.1792 -0.0721
16098W        W32946  10.748   2.649  16.127 -0.3426 -0.1390 -0.1669
16099W        W32947  13.936   0.639   3.649 -0.0328 -0.0739 -0.2010
16100W        W32948  15.692   6.121  13.438  0.2001  0.2330  0.0555
16101W        W32949  17.564   1.396   2.656  0.0093 -0.0740  0.1163
16102W        W32950   5.633  12.862  11.975 -0.2409  0.1684 -0.4985
16103W        W32951   5.711   5.918   4.829 -0.0685 -0.1583  0.1657
16104W        W32952   7.580   9.825   4.750 -0.0437  0.1522  0.0042
16105W        W32953  10.453  15.380  13.966 -0.3871 -0.0695  0.2404
16106W        W32954   9.301   9.786  12.935  0.2701 -0.2268  0.0529
16107W        W32955  15.885  13.798   5.594 -0.2573 -0.0804 -0.0090
16108W        W32956   4.278   1.316  11.820 -0.0037 -0.2526 -0.1321
16109W        W32957   4.590  16.948  12.535  0.0271  0.2644  0.0918
16110W        W32958  17.114   5.017   0.313 -0.1736 -0.0896 -0.0059
16111W        W32959   4.775   2.508  15.435 -0.2866 -0.2226 -0.0513
16112W        W32960  14.139  10.599  15.796  0.0761 -0.0006 -0.0719
16113W        W32961  13.150  11.788   0.595  0.1578 -0.1374 -0.0329
16114W        W32962  17.694   2.045  12.258 -0.0284  0.2147 -0.2071
16115W        W32963   1.146   5.033   1.166 -0.5003 -0.0745  0.0191
16116W        W32964   3.648   6.078   4.194 -0.3510  0.2723  0.0831
16117W        W32965   4.185  13.409  14.158 -0.1515  0.2834  0.2098
16118W        W32966  13.705  13.807  12.915 -0.1092 -0.0699 -0.1471
16119W        W32967   3.253  15.534  15.012 -0.0530  0.0354  0.1962
16120W        W32968   7.808   7.637   3.312  0.3726 -0.0069  0.2383
16121W        W32969   4.295  15.728   0.844 -0.2377  0.1510  0.0846
16122W        W32970   6.721  10.889  14.396  0.2528  0.0790  0.2619
16123W        W32971  17.747   2.869   2.243 -0.1588  0.2004  0.2971
16124W        W32972   4.756  11.031  13.622 -0.1927  0.0560  0.1895
16125W        W32973  11.581  16.471  16.122 -0.0139 -0.0983 -0.1733
16126W        W32974  16.566   6.958   2.209 -0.0102  0.3455 -0.0544
16127W        W32975   4.819   8.545  15.178 -0.0043  0.0908 -0.2288
16128W        W32976   7.737  14.949   2.575  0.0684 -0.0915  0.0073
16129W        W32977  10.160  15.269  15.824 -0.2215 -0.1472  0.1679
16130W        W32978  14.698   5.488   2.317  0.0272  0.2531  0.1057
16131W        W32979  12.472   3.180   3.782  0.4896 -0.0172 -0.2557
16132W        W32980   0.588   5.742  16.314  0.1813 -0.1584  0.4278
16133W        W32981  11.140   3.978  15.650  0.3034 -0.1284 -0.0575
16134W        W32982   4.185  12.657  13.398 -0.0812 -0.0554 -0.0170
16135W        W32983  11.983   4.475  11.018  0.2259  0.0399  0.3237
16136W        W32984  17.840  10.838  14.655  0.0330  0.2671  0.1922
16137W        W32985  15.762   6.477   0.618 -0.0759  0.3062 -0.3537
16138W        W32986   7.120  10.530  16.340 -0.0630  0.3538 -0.3183
16139W        W32987   6.460   7.391  16.126 -0.0515  0.0768 -0.2872
16140W        W32988   2.994  16.329   0.823 -0.2168  0.0001  0.1507
16141W        W32989   8.871   4.944  13.923  0.1098  0.0691 -0.0828
16142W        W32990  15.639   5.492   5.036 -0.0020  0.4700 -0.0041
16143W        W32991  12.642  13.526   1.669  0.1871 -0.1436 -0.5168
16144W        W32992   2.571   3.378  14.320  0.1254 -0.2084 -0.0501
16145W        W32993   4.881   0.575  10.441 -0.0562 -0.0749 -0.2851
16146W        W32994   8.740  14.364  11.775  0.1876 -0.0284  0.1897
16147W        W32995  10.063   7.714  13.449 -0.0082 -0.2387 -0.0098
16148W        W32996  12.600   8.868   5.116 -0.1517  0.0872  0.1163
16149W        W32997  10.553   1.344   2.821  0.0471 -0.3434 -0.2056
16150W        W32998   3.386   9.883  14.765  0.0184 -0.0945  0.1144
16151W        W32999  12.447   8.109   4.783 -0.1451  0.1437 -0.0688
16152W        W33000  13.454  16.921   1.924  0.0350 -0.4883  0.1152
16153W        W33001  15.835  15.038   1.115 -0.1914 -0.1749 -0.0408
16154W        W33002  14.303  12.546  14.230 -0.0754 -0.0670 -0.0989
16155W        W33003  10.595  12.294  13.211 -0.0654  0.0086 -0.3248
16156W        W33004  14.368   4.501   2.233 -0.2448 -0.0108  0.0250
16157W        W33005   6.242   8.180  11.858  0.0333 -0.2545  0.2994
16158W        W33006   6.043   4.716   3.130  0.1712 -0.2587 -0.0141
16159W        W33007   8.228  10.929  15.623 -0.1186 -0.0028 -0.0145
16160W        W33008   0.164   5.091   1.694  0.2295 -0.2764  0.1831
16161W        W33009   0.184   8.435  14.133  0.0339  0.1669 -0.2003
16162W        W33010  12.839  12.636   0.299  0.0289 -0.0924 -0.0538
16163W        W33011  14.425   9.789  14.077 -0.2335  0.0099  0.0359
16164W        W33012   2.540  17.346  15.460  0.1238  0.1249 -0.0296
16165W        W33013  15.334   8.228  13.978 -0.2134 -0.0609  0.3290
16166W        W33014  10.914   3.015  15.550 -0.0075 -0.1114  0.0239
16167W        W33015   4.938   6.322  14.833  0.0095  0.1130  0.0991
16168W        W33016  10.522  11.327  16.296  0.1173 -0.1246  0.0301
16169W        W33017   5.883   5.534   3.639  0.2733  0.1130 -0.0817
16170W        W33018  10.781   3.092   2.620 -0.0962 -0.0815 -0.0677
16171W        W33019   6.917   7.822   3.725 -0.0087  0.1762 -0.0655
16172W        W33020   4.271   6.552   5.383 -0.4648  0.3073  0.1494
16173W        W33021  11.963  14.159  11.614 -0.1683  0.4281 -0.0151
16174W        W33022   5.846   7.314   3.594  0.1009 -0.1494 -0.0787
16175W        W33023   3.023   0.224  16.172  0.0717 -0.0309 -0.0326
16176W        W33024   4.044  16.092   6.215  0.1511 -0.0380 -0.0032
16177W        W33025  11.173  14.360   5.466  0.3064 -0.0621 -0.0925
16178W        W33026  13.591  17.759   3.573 -0.2037  0.0379 -0.0195
16179W        W33027   3.538  15.142  15.863  0.0396  0.2095  0.0637
16180W        W33028   7.578   9.540   0.514  0.1674 -0.5436  0.1858
16181W        W33029   2.210   4.448  13.935  0.1004  0.2157 -0.0261
16182W        W33030  11.223   2.667  15.362  0.1532 -0.0688 -0.1870
16183W        W33031   7.774   1.799   5.134 -0.0516 -0.0554 -0.1505
16184W        W33032   7.723   3.449   0.218  0.0398  0.2137 -0.3430
16185W        W33033  16.557  14.571  11.477  0.0757  0.0309 -0.1446
16186W        W33034   5.421  16.409   2.584  0.0877 -0.3158  0.1561
16187W        W33035  16.647  17.761   3.497  0.0536  0.1455  0.1180
16188W        W33036   8.571   6.866   3.686 -0.0005 -0.0677 -0.1495
16189W        W33037   8.050  10.909   5.648  0.1090  0.2272 -0.1943
16190W        W33038  17.596   8.884  15.934 -0.1356  0.1979 -0.0064
16191W        W33039   2.118  14.350   2.347 -0.0773  0.0247  0.2072
16192W        W33040   4.344  11.534   4.042  0.1529  0.0389 -0.0357
16193W        W33041   0.918   2.463  14.448 -0.0035  0.2137  0.1766
16194W        W33042   8.359   2.745  11.562  0.0848 -0.1581  0.1407
16195W        W33043  11.820   1.552  14.590  0.2459  0.1137  0.0826
16196W        W33044   4.894   9.734  12.323  0.0254 -0.2404  0.0086
16197W        W33045   7.197   8.511   2.420 -0.0224 -0.0304 -0.2277
16198W        W33046  13.066   6.017  13.517  0.0364  0.1063 -0.0808
16199W        W33047   0.021  14.883  15.017 -0.0381 -0.3379  0.2300
16200W        W33048  17.693   7.988  12.902 -0.0676 -0.0430 -0.1245
16201W        W33049  16.695  13.586   0.638 -0.2891  0.0280  0.3827
16202W        W33050  10.313   7.074  12.295 -0.2616 -0.0799  0.1499
16203W        W33051   1.184   8.639  13.389 -0.0400 -0.1579 -0.0883
16204W        W33052   4.165  15.909  12.063 -0.4430  0.1545  0.0302
16205W        W33053   4.651   4.073  15.523 -0.3424  0.2677  0.0087
16206W        W33054   7.420  14.080   3.273  0.2098  0.2523  0.1008
16207W        W33055   0.727   4.303   1.865  0.0297  0.0465 -0.0227
16208W        W33056  17.670  13.387  12.790  0.1864  0.0032  0.0288
16209W        W33057   1.065   6.251   3.665  0.1429 -0.3316 -0.0432
16210W        W33058   1.735  12.955  15.505 -0.0101  0.0328  0.2007
16211W        W33059   2.840   5.537  13.347 -0.0471 -0.1870  0.0806
16212W        W33060   5.286   3.267   3.568 -0.1579 -0.2123  0.0287
16213W        W33061   8.117  16.672   0.534  0.0766  0.1835 -0.0673
16214W        W33062   6.511   5.472  12.971  0.0487 -0.3360 -0.0297
16215W        W33063  11.134   8.636  15.770 -0.1952 -0.3963  0.1938
16216W        W33064   0.976   4.087  13.146 -0.0653  0.0566  0.0284
16217W        W33065   2.315  15.699   2.998 -0.1285  0.1939 -0.0507
16218W        W33066   3.988  14.001   1.576 -0.0701  0.2329 -0.1767
16219W        W33067   8.286   3.649  15.334  0.0868  0.2158 -0.1243
16220W        W33068   0.544   0.262   5.141 -0.1668  0.1538  0.0209
16221W        W33069   8.148   2.712   4.053 -0.2345 -0.1581  0.0698
16222W        W33070   1.896   0.047  13.487  0.2331 -0.0226  0.0179
16223W        W33071   4.005   5.602   2.142  0.2880  0.3598  0.1737
16224W        W33072   6.056   2.165   3.437  0.0408  0.1181  0.0924
16225W        W33073   6.878   3.786  15.075  0.1180 -0.1741 -0.0956
16226W        W33074  14.913   8.561  12.606  0.1511  0.1230  0.0616
16227W        W33075   4.228  17.024  15.733 -0.1856 -0.0378 -0.1605
16228W        W33076  11.590   5.741  12.832  0.1244  0.2717  0.1839
16229W        W33077   2.786   0.992  13.269 -0.2810 -0.0977 -0.0434
16230W        W33078   8.518   9.555   2.481 -0.1961 -0.2339  0.1190
16231W        W33079   5.651  12.463   1.427 -0.0031  0.1467 -0.0033
16232W        W33080  17.755   5.298  12.148 -0.0601 -0.0707  0.2371
16233W        W33081   1.083   7.537  11.711 -0.3055 -0.0790 -0.0749
16234W        W33082   1.091   6.761   4.484 -0.0377 -0.1730 -0.1390
16235W        W33083   6.927   8.364  12.964  0.0130 -0.1202 -0.1183
16236W        W33084  11.351   3.772   5.011  0.4593  0.1534 -0.1743
16237W        W33085  13.006  17.506   3.548  0.6114  0.1625 -0.1237
16238W        W33086   9.064  15.679  16.586 -0.1356  0.0057 -0.1658
16239W        W33087  16.093   7.046  14.720 -0.0734 -0.1770  0.0360
16240W        W33088   1.674   1.715   1.155 -0.3261 -0.0562 -0.1599
16241W        W33089  10.177   7.017   1.641 -0.1984 -0.3048 -0.1309
16242W        W33090   5.656   8.374  15.762  0.0629 -0.1109 -0.0822
16243W        W33091   2.434  17.491  14.080  0.1044 -0.1251 -0.0040
16244W        W33092   4.627   2.836  12.803  0.1205 -0.0445  0.2428
16245W        W33093  11.978   0.377  11.593  0.2645  0.3761  0.3596
16246W        W33094   2.041   1.477   3.544  0.0792  0.0344  0.1290
16247W        W33095  15.523  15.579   1.515  0.0275  0.6284  0.0751
16248W        W33096   5.591   6.371  16.091  0.1170  0.0657  0.1288
16249W        W33097   4.129   6.759   0.554  0.1729  0.1524 -0.0828
16250W        W33098  10.704   4.707  16.598  0.2381  0.0890 -0.0437
16251W        W33099  13.723   3.640   1.379 -0.1621  0.1907  0.1699
16252W        W33100   1.359   9.074   0.410 -0.0858  0.2116  0.0196
16253W        W33101  14.253   3.227  15.402  0.3773  0.0990  0.0449
16254W        W33102  14.979   0.657   2.506 -0.3161  0.0550  0.0833
16255W        W33103   2.014   7.830   3.278 -0.0133 -0.0960 -0.0455
16256W        W33104  11.073   6.272   3.645  0.0245 -0.2073 -0.0869
16257W        W33105  14.538   8.644   0.943  0.1768 -0.2763 -0.2192
16258W        W33106   5.284   8.499   2.116  0.3694 -0.5666 -0.0139
16259W        W33107   5.375   9.632  13.418 -0.2591 -0.0539  0.0297
16260W        W33108  15.040  17.338  12.183 -0.1533 -0.0127 -0.0792
16261W        W33109  12.340  12.176   3.213  0.2398  0.1345  0.3319
16262W        W33110  12.157   7.034   5.012  0.3165  0.0670  0.3020
16263W        W33111   0.924  13.524  12.846  0.3329  0.2276 -0.0557
16264W        W33112   2.221   1.251   4.571 -0.0916  0.0274 -0.0819
16265W        W33113  16.601   8.613   3.986  0.0191  0.1825  0.0651
16266W        W33114  11.521   8.676  16.120 -0.0639  0.2204  0.0129
16267W        W33115  10.691  12.115   4.852 -0.0991  0.1622 -0.0616
16268W        W33116   6.172   7.489   2.073  0.1522 -0.2144  0.0341
16269W        W33117   4.328  11.708   3.009  0.1537  0.2952  0.1574
16270W        W33118  11.958  16.586  14.476  0.1160  0.0270  0.2662
16271W        W33119  15.642   5.766  11.493 -0.0080 -0.1385 -0.0918
16272W        W33120   8.727   4.378  14.687  0.0195 -0.1056 -0.1394
16273W        W33121   0.707   0.421   1.025  0.2102 -0.0576  0.1230
16274W        W33122   4.567   5.375   1.302 -0.0871  0.3012 -0.1772
16275W        W33123  11.721   5.114   2.858  0.0201  0.2035  0.1797
16276W        W33124   1.838   0.550  15.994 -0.0998  0.0335  0.2325
16277W        W33125   9.992  15.378  14.109 -0.2240 -0.2033 -0.0738
16278W        W33126  13.551  16.726   2.759 -0.2879  0.1004  0.1162
16279W        W33127  11.173  14.898  15.388  0.0392 -0.0252  0.2328
16280W        W33128  14.934  11.245  13.602 -0.1511 -0.0295  0.2972
16281W        W33129   7.261   7.547  12.866  0.1336  0.1559  0.0166
16282W        W33130  13.620  11.909  16.270 -0.1566  0.1139  0.2000
16283W        W33131   5.667   2.983   4.458 -0.1115 -0.1429  0.2224
16284W        W33132   4.584  10.712   3.841 -0.1027  0.3209  0.3021
16285W        W33133  15.196   8.841  12.308  0.2923  0.1964 -0.0665
16286W        W33134   6.590   0.185   4.017  0.1234 -0.1417  0.1110
16287W        W33135   9.467   6.379  13.702  0.0112  0.0855 -0.0981
16288W        W33136   1.368  17.789  14.757 -0.0826 -0.1763  0.2898
16289W        W33137   7.000  13.585   1.802 -0.1121 -0.4066 -0.0385
16290W        W33138  11.487  16.089  13.526  0.0492 -0.0813 -0.0626
16291W        W33139   9.148   0.972  11.302  0.1217 -0.1522 -0.3088
16292W        W33140   1.859   0.693   3.898 -0.1087  0.0873 -0.0736
16293W        W33141   2.644  16.636   3.522 -0.0126  0.1322 -0.1627
16294W        W33142   2.361  14.495   3.696  0.1026 -0.0078 -0.1009
16295W        W33143   2.983  16.510   1.387  0.0649  0.1724 -0.1227
16296W        W33144  16.154   6.239  15.583  0.0719  0.2937 -0.1068
16297W        W33145   5.116   4.439  12.748  0.2347  0.1200  0.0821
16298W        W33146   3.482   1.995  13.409  0.0305 -0.1337 -0.2807
16299W        W33147   5.919  15.926  16.629 -0.1434 -0.3785  0.2052
16300W        W33148  14.726   3.374  15.760  0.2686  0.1116 -0.0231
16301W        W33149  16.495  12.594  11.968 -0.3913 -0.7441  0.1831
16302W        W33150   8.934   4.144  16.610 -0.1284  0.4803  0.0749
16303W        W33151  13.111  13.657   1.411 -0.1637  0.1268 -0.2173
16304W        W33152   0.082   6.138  15.214  0.3389  0.1166  0.0916
16305W        W33153   5.449   2.103   4.618 -0.0181 -0.4014  0.0130
16306W        W33154  15.412  15.024   3.238 -0.3152  0.0418 -0.2878
16307W        W33155  13.100   2.290   3.907 -0.0092  0.0493  0.2740
16308W        W33156   8.405   0.337  12.001  0.2649  0.2292 -0.2670
16309W        W33157   4.461  16.262   3.012  0.0756 -0.2206  0.0140
16310W        W33158  14.488   7.393   1.198 -0.1020 -0.1518  0.0094
16311W        W33159   4.369   1.541  12.558 -0.0429 -0.0470  0.0684
16312W        W33160  12.515  11.038  11.291  0.0125  0.3435 -0.1875
16313W        W33161   4.229  15.620   1.843  0.3508 -0.0023 -0.3469
16314W        W33162   7.478   4.969   2.933  0.1294  0.2259 -0.1386
16315W        W33163   6.496   7.001   1.087 -0.0577 -0.1531 -0.4579
16316W        W33164   3.041   9.300   4.338 -0.1852  0.0496  0.0288
16317W        W33165   3.443  15.523   3.150 -0.3562 -0.2676  0.1910
16318W        W33166   5.384  12.029  12.183  0.0781  0.0600  0.0349
16319W        W33167   7.430   9.550   1.930  0.0037 -0.2497  0.1743
16320W        W33168   3.115   0.446   2.775 -0.0439  0.4448 -0.1536
16321W        W33169   4.516  13.829  14.442 -0.1008  0.3061 -0.1143
16322W        W33170  11.914  14.923  13.229 -0.0606 -0.1965  0.5568
16323W        W33171  14.029  10.947  12.496  0.2070  0.0235 -0.2640
16324W        W33172  10.233  10.849   4.273  0.0962  0.0833  0.2312
16325W        W33173  11.418   7.514   1.330 -0.4031 -0.2944  0.2687
16326W        W33174  14.409  13.320  14.772 -0.1022  0.1789  0.3279
16327W        W33175   6.835   7.290   1.412 -0.2387 -0.3350  0.1648
16328W        W33176   9.804   9.864  13.173 -0.1158 -0.0910 -0.0059
16329W        W33177  15.685  10.059   1.630  0.0646  0.1769 -0.0118
16330W        W33178  16.273   3.298  12.250 -0.1071  0.0024 -0.2676
16331W        W33179   5.817   7.391   5.377  0.5621  0.1189  0.2621
16332W        W33180  13.405   7.965   2.434 -0.1796 -0.3479 -0.1547
16333W        W33181   1.026   7.243  16.397  0.0214 -0.2617  0.2622
16334W        W33182   2.798  12.711  11.841  0.1462 -0.0716 -0.0583
16335W        W33183  17.652  16.038   0.300  0.0764  0.0054 -0.0715
16336W        W33184  11.163  13.315   4.063  0.3935  0.1031  0.1938
16337W        W33185  10.134   9.703  13.652  0.1706 -0.0831 -0.1212
16338W        W33186  16.653   0.990   2.812 -0.1669 -0.0734  0.1343
16339W        W33187   5.022   2.881  12.112  0.3912 -0.0458 -0.1301
16340W        W33188   8.498   6.718  13.622  0.0557  0.0989  0.1910
16341W        W33189  10.738   9.082  13.202  0.1208  0.4336 -0.1886
16342W        W33190  15.449  16.458   2.428  0.0515 -0.0584 -0.2589
16343W        W33191   8.086   7.440  12.376 -0.1543  0.1860 -0.4267
16344W        W33192  16.821   6.029  11.839  0.2901  0.4812  0.1611
16345W        W33193  11.934   2.884  13.414  0.0682  0.3403  0.0302
16346W        W33194   7.352   0.081  12.489  0.1695  0.0147 -0.2425
16347W        W33195   1.854   2.397   3.003  0.0642  0.1191 -0.1462
16348W        W33196   5.371  10.324   4.758 -0.0499 -0.3152 -0.0928
16349W        W33197  13.911   5.309   1.880  0.1239  0.1545 -0.1224
16350W        W33198   3.525  16.252   1.674 -0.2863 -0.2990 -0.0572
16351W        W33199  10.556  16.386  13.945  0.2073 -0.0063  0.1532
16352W        W33200   8.729  12.131   0.614  0.2279  0.1065  0.1506
16353W        W33201  14.712   0.255   2.456  0.0341  0.1357 -0.0270
16354W        W33202  14.840   7.548   0.806  0.2672 -0.1242 -0.1951
16355W        W33203  12.949  12.975  13.714  0.2344  0.1392 -0.0248
16356W        W33204  11.545   6.389   4.997  0.0115 -0.1430 -0.0142
16357W        W33205   4.037   5.516  15.545 -0.0128 -0.0639 -0.0494
16358W        W33206   4.670  14.887   3.243 -0.0025  0.0358 -0.1212
16359W        W33207  10.055   8.020  13.014 -0.3108  0.1719  0.1996
16360W        W33208   8.934   6.047   4.082  0.1419  0.3430  0.0255
16361W        W33209  17.721   0.094  13.998  0.2894  0.1256 -0.0262
16362W        W33210  13.008  13.931   4.850  0.0529 -0.0375  0.3201
16363W        W33211  14.208   7.610   2.621 -0.0147 -0.0023  0.1447
16364W        W33212   6.744   2.542  14.435 -0.1116 -0.1537 -0.0511
16365W        W33213   6.373  16.327   3.708  0.0282  0.3890  0.0062
16366W        W33214   3.074  11.814  12.694  0.1858 -0.1781 -0.1061
16367W        W33215  12.668  12.716   3.852  0.3494 -0.3455 -0.4092
16368W        W33216  12.780  15.809   0.277 -0.1954  0.1022  0.2990
16369W        W33217   7.865  15.874   0.982  0.0499  0.0260 -0.0594
16370W        W33218  12.361   5.220  14.293  0.1883 -0.1871  0.2460
16371W        W33219  17.365  15.807  15.745 -0.2277 -0.0202  0.2830
16372W        W33220   8.048   9.744  12.760  0.1125  0.0424  0.1415
16373W        W33221  11.129   5.772  11.979 -0.0054 -0.3030  0.2668
16374W        W33222   9.209  12.452  15.574  0.0943 -0.0062  0.0651
16375W        W33223  10.364  13.641  12.216  0.1195 -0.2963  0.3905
16376W        W33224  16.136  14.341  12.488 -0.2406 -0.1709 -0.1933
16377W        W33225   7.587   1.018   5.868  0.0786  0.0864 -0.0885
16378W        W33226  16.920   1.196  13.805 -0.0684 -0.1492 -0.0208
16379W        W33227   2.976   8.080   1.125  0.0479 -0.2048 -0.3494
16380W        W33228  17.725   9.414  15.126  0.0551 -0.1614 -0.1841
16381W        W33229   5.827   5.498  13.588  0.1253 -0.2184 -0.3225
16382W        W33230   6.353   2.866   5.212  0.1770 -0.0191  0.1318
16383W        W33231  12.733  12.170  12.448  0.0642  0.1661  0.1724
16384W        W33232   2.347  13.538  16.113  0.4557  0.0420  0.2065
16385W        W33233   0.418   6.281  12.627  0.0258 -0.1197  0.0947
16386W        W33234  13.235   6.771   3.682 -0.1700  0.1895  0.1328
16387W        W33235   4.680   2.268  12.093  0.1078  0.1688  0.2524
16388W        W33236   9.778  14.758   1.531  0.0784  0.1139  0.0066
16389W        W33237   5.547  17.617   1.225  0.2081  0.0125 -0.2868
16390W        W33238  12.123   6.522   2.037 -0.4950  0.0660 -0.2933
16391W        W33239   7.065  15.547  13.653 -0.0106  0.1410  0.1481
16392W        W33240   1.361  15.440   3.937 -0.0481 -0.0888 -0.0345
16393W        W33241  11.483   0.817   0.290 -0.3155 -0.1683  0.0894
16394W        W33242  10.382   1.439  15.284  0.3649 -0.0560  0.2134
16395W        W33243  14.561   4.696   6.074  0.0128 -0.3758  0.0456
16396W        W33244   9.620   6.565   3.651  0.0281  0.0615  0.1423
16397W        W33245  10.553  10.467  11.674 -0.0656  0.1321 -0.0936
16398W        W33246  15.565  12.881  15.764 -0.1555 -0.1608  0.0679
16399W        W33247   6.492   4.438   3.664 -0.0461 -0.0273 -0.1212
16400W        W33248   5.743   9.818   1.454  0.0592  0.0783  0.0378
16401W        W33249   4.786   6.992   1.753  0.0322  0.0021  0.1949
16402W        W33250   8.767   2.891   1.481  0.1594  0.0671  0.0836
16403W        W33251   3.942  13.384  12.817  0.2936  0.1187 -0.3222
16404W        W33252   7.886   3.091  16.406  0.1286 -0.1300  0.0767
16405W        W33253   7.228   6.166   1.271  0.3580  0.0727 -0.4341
16406W        W33254  12.507   9.656   4.085 -0.1231 -0.2787 -0.0021
16407W        W33255  15.149   6.846   3.711 -0.0570  0.3833  0.2586
16408W        W33256   3.468  11.398  12.071 -0.0602 -0.0282  0.2480
16409W        W33257   5.106  16.030  15.571  0.0352  0.1014  0.2384
16410W        W33258  16.721   0.259   3.827 -0.0950 -0.0553  0.1879
16411W        W33259  11.240   7.530   2.305  0.1431  0.0096  0.4110
16412W        W33260  13.203   9.686  15.124  0.0283 -0.0696 -0.1532
16413W        W33261   3.764  11.952  16.485  0.1043 -0.1966  0.0701
16414W        W33262  10.914   1.795  12.951  0.1357 -0.0068 -0.2381
16415W        W33263  12.409  16.469  12.480  0.0761 -0.1717  0.2598
16416W        W33264  14.055   9.746   1.194 -0.1091 -0.2286 -0.1450
16417W        W33265  10.700   5.416  15.395  0.0857  0.2883  0.2235
16418W        W33266   0.482   4.779   2.510 -0.0884 -0.0334  0.0125
16419W        W33267  11.334   3.862  14.738 -0.0726  0.1960  0.0639
16420W        W33268   7.927   7.435   4.302 -0.0623 -0.0116  0.0724
16421W        W33269  11.262  16.461   4.204  0.1541  0.2248 -0.2738
16422W        W33270  12.157   7.725   3.362 -0.0540 -0.1602 -0.2604
16423W        W33271  14.796  15.902  15.156  0.1389 -0.1867  0.3558
16424W        W33272  10.499  15.147  13.499  0.0387  0.0826  0.1567
16425W        W33273   1.227   4.010   1.960 -0.0710  0.1008  0.0168
16426W        W33274  11.662   9.701   5.017  0.0847  0.1790  0.5506
16427W        W33275   7.212   8.249   1.156 -0.0448 -0.0461 -0.0928
16428W        W33276  15.611   0.141   2.040  0.2909 -0.0224  0.0460
16429W        W33277  11.040   8.280  12.157 -0.1330  0.5316 -0.0553
16430W        W33278  15.648   0.724   1.917 -0.2776  0.0258  0.0194
16431W        W33279   9.378  16.624   3.406  0.2653 -0.0320  0.0708
16432W        W33280  16.653   5.027  15.975 -0.0671  0.2470  0.2287
16433W        W33281   7.297   3.874   2.662 -0.1776  0.0940  0.0289
16434W        W33282   9.268  11.942  15.946  0.0658  0.1443  0.3357
16435W        W33283  13.263   8.589   0.574  0.1505 -0.0302 -0.1004
16436W        W33284   6.962   7.848  12.137 -0.0192 -0.4130 -0.1648
16437W        W33285  17.696   3.053  14.296  0.0693 -0.2485  0.2473
16438W        W33286  11.451   8.576  11.080  0.2103  0.0160 -0.0108
16439W        W33287   7.766  14.936  12.148  0.0929  0.3362 -0.1234
16440W        W33288  16.503   7.886   0.551 -0.0706 -0.2518 -0.1197
16441W        W33289   1.379  17.331  11.918 -0.0095  0.0439  0.2366
16442W        W33290   2.545  15.514  15.811  0.0203  0.1130 -0.4217
16443W        W33291  13.396   6.298   0.391 -0.0143  0.0065 -0.1070
16444W        W33292   2.876   8.772  11.127 -0.4735 -0.0072 -0.1588
16445W        W33293   2.154  13.639  14.840 -0.4062  0.2740 -0.2017
16446W        W33294  11.220  17.500  14.651 -0.1540  0.0470 -0.0403
16447W        W33295   7.760  11.520  14.526 -0.4610  0.0678  0.0200
16448W        W33296   9.846  11.796   5.450  0.0935 -0.2096  0.0103
16449W        W33297  12.508  11.479   2.386 -0.1820  0.0661 -0.1264
16450W        W33298  16.699   6.429  15.855  0.2537  0.2553  0.2158
16451W        W33299  14.231   9.040  12.217 -0.0739 -0.1914 -0.0976
16452W        W33300  12.521   7.113   4.679 -0.2047 -0.0761 -0.2039
16453W        W33301   0.387  16.474  11.721  0.0164 -0.0659  0.1009
16454W        W33302  16.949   2.623   0.310 -0.0183  0.0012 -0.2731
16455W        W33303  13.183   1.839   2.472  0.2140 -0.3071 -0.1406
16456W        W33304  12.604  14.796   0.043  0.0625 -0.1545 -0.1242
16457W        W33305  13.400   7.621  15.723 -0.2139  0.1259 -0.2305
16458W        W33306   5.584   8.402  14.857 -0.0108 -0.1781  0.1544
16459W        W33307  14.320  14.682  15.406 -0.0188  0.1715  0.0695
16460W        W33308  15.929   0.514   0.120  0.4258 -0.1258 -0.0885
16461W        W33309  11.943  17.315  12.089 -0.4320 -0.3202  0.0070
16462W        W33310   5.792   9.796  12.739  0.2001 -0.2150  0.2801
16463W        W33311   1.029   1.591   4.989  0.0675 -0.0059  0.2968
16464W        W33312   7.703   0.426  13.210  0.0603  0.3802  0.0509
16465W        W33313   3.554   9.460  14.842 -0.2461  0.2688  0.4983
16466W        W33314  16.638  11.545  12.732  0.2228 -0.1859  0.0838
16467W        W33315  14.815   1.070   0.381  0.1148  0.2774  0.1435
16468W        W33316   9.501  14.629  16.259  0.0700 -0.0880  0.1745
16469W        W33317  14.027  13.548   2.021  0.3707 -0.0270 -0.2791
16470W        W33318   5.671  11.518   3.105 -0.1009 -0.0744  0.1980
16471W        W33319   1.274   2.122  14.261 -0.1717 -0.2410 -0.1715
16472W        W33320  16.952   8.759  12.193  0.0028  0.3304  0.1713
16473W        W33321  11.772   9.944   6.411 -0.0540  0.0876  0.2837
16474W        W33322   6.361  16.774  15.440  0.1537 -0.1852  0.2264
16475W        W33323  12.675   7.492  11.646  0.2140 -0.2603 -0.1966
16476W        W33324   5.235  12.829   1.514  0.0071  0.0866 -0.1844
16477W        W33325   1.998  15.860   2.638 -0.0683  0.3229 -0.1044
16478W        W33326  12.047   6.475  16.259  0.0362 -0.2851  0.1169
16479W        W33327  13.988   1.913  16.207  0.0576 -0.1522  0.0625
16480W        W33328   2.818  14.504  16.111  0.2446 -0.1014 -0.0101
16481W        W33329   7.160  11.122  12.795 -0.2211 -0.1778  0.0289
16482W        W33330   9.454   7.305  15.935 -0.2776 -0.3900 -0.2558
16483W        W33331   8.879  11.307  13.254 -0.1966 -0.2182 -0.1320
16484W        W33332   1.010   1.983   2.311  0.1375  0.0019 -0.2471
16485W        W33333   8.849  15.218  13.487  0.0622  0.0331 -0.0998
16486W        W33334  12.575   8.816  15.600 -0.0952 -0.2345 -0.2480
16487W        W33335  16.726   0.562  12.113 -0.1024  0.0470  0.3241
16488W        W33336  13.826   0.679   1.769 -0.1102 -0.1698 -0.2584
16489W        W33337  12.118   9.842  13.506  0.0361  0.2652  0.0346
16490W        W33338  17.083  10.336  13.819  0.0444 -0.0448  0.0488
16491W        W33339  12.197   6.362  13.956 -0.2229 -0.1962  0.1863
16492W        W33340  17.688   6.935   3.932 -0.0899  0.0856 -0.1211
16493W        W33341  12.641  11.607  13.773 -0.0060 -0.1383 -0.1931
16494W        W33342  17.615   2.464   4.121 -0.1643 -0.0811 -0.2895
16495W        W33343  17.230   0.537   1.071 -0.1684  0.0629  0.1928
16496W        W33344   0.801   2.897  15.877 -0.0008 -0.1337 -0.2206
16497W        W33345  10.202   3.708   1.022  0.1627 -0.0987  0.0396
16498W        W33346   7.963   8.641  13.781 -0.1402 -0.0132  0.2209
16499W        W33347  16.974  15.211   2.222  0.2386  0.1129 -0.0951
16500W        W33348   1.677   4.220  14.463  0.0839 -0.0057 -0.1826
16501W        W33349  16.136   4.051  11.602  0.1685 -0.0037  0.2231
16502W        W33350   8.784   3.387  14.257 -0.0475  0.1828  0.0611
16503W        W33351   1.434   3.513  14.974 -0.0405 -0.2293  0.2381
16504W        W33352  10.700   1.802  14.934  0.0748 -0.0469  0.2701
16505W        W33353   5.748   8.066  12.941 -0.2441  0.0477 -0.0473
16506W        W33354  12.789   9.580   2.717 -0.0669 -0.0404  0.3268
16507W        W33355  15.145   5.549   3.000  0.0411  0.3237  0.0259
16508W        W33356   0.903   8.366  13.716  0.0344 -0.4191  0.1041
16509W        W33357  10.092   2.001  11.728 -0.0843 -0.1057  0.2709
16510W        W33358  10.574  11.273  13.627 -0.0847  0.0109  0.0455
16511W        W33359   5.513   2.555   3.224  0.3510  0.0309 -0.4193
16512W        W33360   0.802   0.049   4.529 -0.1357 -0.2027 -0.0485
16513W        W33361  13.592  14.018   3.458  0.0421  0.0929 -0.2708
16514W        W33362  14.118   1.476   3.340  0.1957  0.1081 -0.1540
16515W        W33363  16.854  16.986   1.313  0.0279  0.0801  0.0343
16516W        W33364   4.981   9.343  14.524  0.1036 -0.2364  0.1386
16517W        W33365  14.884  11.701  13.893  0.1396  0.0499  0.1487
16518W        W33366   9.055   1.193   5.583  0.0862  0.1950 -0.2003
16519W        W33367  14.835   2.432   0.355 -0.0142  0.1197 -0.2102
16520W        W33368   8.629  16.830  16.467  0.4730  0.3632 -0.2416
16521W        W33369  17.653   2.887  11.793  0.1370 -0.0794 -0.1305
16522W        W33370  10.919   7.021  14.040  0.1823 -0.2572 -0.0998
16523W        W33371   6.046  15.291  11.570  0.1859 -0.0617  0.0916
16524W        W33372  15.747   0.634   3.799 -0.0827  0.2062 -0.4317
16525W        W33373   0.480  15.600   3.953  0.0948  0.0829 -0.0509
16526W        W33374  17.382   7.732   1.612  0.5434  0.0158 -0.0112
16527W        W33375   9.525  10.766  15.001 -0.2031  0.0599 -0.1964
16528W        W33376  17.539   3.217  11.455 -0.1087 -0.0838  0.1586
16529W        W33377   6.890  15.200   0.103  0.0990 -0.0809 -0.3459
16530W        W33378  13.810   5.900  16.373  0.2249 -0.1771  0.0754
16531W        W33379  12.708   3.761   0.519 -0.1436 -0.5355 -0.0470
16532W        W33380   1.793   7.972   4.271 -0.2552 -0.0750  0.2350
16533W        W33381   1.936   4.589   1.818  0.1211  0.0999 -0.0768
16534W        W33382   3.912   4.920  12.597 -0.2388  0.0411 -0.1068
16535W        W33383  16.641   1.328   6.646 -0.0177  0.0332  0.0517
16536W        W33384  11.389   4.333   4.247  0.0851 -0.1020  0.0797
16537W        W33385   8.970   7.460   4.501  0.0191 -0.0339  0.1225
16538W        W33386   0.353   2.062  15.296 -0.2132 -0.1060 -0.2697
16539W        W33387  15.206   0.677  14.947 -0.0127 -0.0638  0.2297
16540W        W33388   4.523   3.204  12.020  0.0182 -0.0959 -0.2617
16541W        W33389   6.588  13.117  15.774 -0.0708 -0.0613  0.1750
16542W        W33390  17.443   9.437   3.116 -0.3903 -0.1582 -0.2609
16543W        W33391  15.897   4.682   5.622  0.0807 -0.0615 -0.0759
16544W        W33392   3.712  12.079  10.857  0.3459  0.0287 -0.0511
16545W        W33393  17.544   6.506  15.287  0.0315  0.1642  0.0590
16546W        W33394   9.950   3.461   0.663  0.5301 -0.4159  0.1210
16547W        W33395  10.343  16.387   1.833 -0.0566  0.1350  0.1727
16548W        W33396   7.977  16.395   3.873 -0.1770 -0.1609 -0.1272
16549W        W33397   6.809   0.436   3.599 -0.0628 -0.2128 -0.2816
16550W        W33398   6.188   5.459  15.767 -0.0813  0.3420  0.3500
16551W        W33399  16.522   4.251   3.995 -0.0058 -0.1575 -0.0584
16552W        W33400  13.225  10.176   1.651  0.1488  0.3160  0.2140
16553W        W33401   5.515   8.879  15.225 -0.0987 -0.1063  0.0895
16554W        W33402   8.882  13.541   2.974  0.0950  0.0783 -0.0708
16555W        W33403  14.306   5.604   5.454  0.1751  0.0433 -0.0472
16556W        W33404  13.038   4.652  12.321 -0.0945 -0.2282 -0.0432
16557W        W33405  12.241   3.849  14.168 -0.0470 -0.0083  0.0537
16558W        W33406   6.633  11.511  14.562  0.4022 -0.1664 -0.0780
16559W        W33407  13.816   6.812   1.993  0.0928  0.2427 -0.0780
16560W        W33408  14.141   2.775  12.778 -0.1142  0.0372 -0.0199
16561W        W33409  12.724  16.860   5.774  0.0928 -0.0346  0.0209
16562W        W33410  15.055   5.158  15.114 -0.3376  0.2696 -0.1066
16563W        W33411  15.267  12.955  12.898  0.1042  0.0725  0.0156
16564W        W33412  16.962   5.308  16.528  0.2932  0.0972  0.1490
16565W        W33413   0.083   7.940  14.009 -0.2258 -0.4655  0.1390
16566W        W33414   9.766  12.009  12.446  0.4232 -0.0035  0.2307
16567W        W33415   2.407   9.392  11.961  0.0306  0.0286  0.2286
16568W        W33416   2.144   6.436  15.008  0.1869 -0.3226  0.1246
16569W        W33417  15.745  17.811   1.506 -0.0243  0.0858  0.0422
16570W        W33418   0.596   9.071  15.687 -0.0181  0.1270  0.0305
16571W        W33419   1.263   1.766  12.345 -0.3439  0.1122 -0.1793
16572W        W33420  16.063   7.592  14.691  0.0616  0.2571 -0.1021
16573W        W33421   5.717  16.268  14.908 -0.1835  0.0607 -0.3243
16574W        W33422  11.992   0.147  15.716 -0.2411  0.1155  0.0530
16575W        W33423  11.691  15.777  11.605 -0.0175  0.1730 -0.0392
16576W        W33424   3.286  12.113  14.589  0.1084  0.1324 -0.0443
16577W        W33425  10.472  11.570  12.602  0.0012  0.1526 -0.3092
16578W        W33426   0.758   7.665   1.365  0.2786 -0.3005 -0.3797
16579W        W33427   0.251  14.020   1.113 -0.1111 -0.2037 -0.2580
16580W        W33428   4.924  12.422  13.780 -0.2653 -0.0890  0.1250
16581W        W33429  14.013   2.824   0.929  0.0081 -0.2756  0.0203
16582W        W33430  13.950  16.999   1.228  0.1097 -0.0366 -0.3806
16583W        W33431   6.901  17.610  11.211  0.0025 -0.2639  0.0264
16584W        W33432   7.498   3.752  12.246  0.0927  0.2182  0.2416
16585W        W33433   9.634   1.887   3.593 -0.2552  0.2130  0.1494
16586W        W33434   0.362  14.085  14.666  0.0683  0.3104 -0.0533
16587W        W33435   7.243  15.279  13.086 -0.1379  0.3577 -0.0574
16588W        W33436  15.633   7.335   1.607  0.1705  0.1970  0.1120
16589W        W33437   2.788  17.510  15.017  0.1014 -0.1834  0.0383
16590W        W33438  13.737   4.584   5.637  0.6315  0.0397 -0.2163
16591W        W33439   5.753   4.832  14.312  0.1752  0.0348 -0.0232
16592W        W33440   3.864  13.656   0.620  0.2780  0.2144  0.2273
16593W        W33441  12.803   7.749   4.856 -0.0710  0.0565 -0.1518
16594W        W33442   7.607   0.366   4.046 -0.1244 -0.0505  0.1703
16595W        W33443   0.709   4.468   4.336 -0.1940  0.0481  0.1981
16596W        W33444   1.805   3.436   4.285 -0.0803  0.0437  0.2810
16597W        W33445   4.489  14.424  11.756  0.1754 -0.0460  0.0363
16598W        W33446   2.315   3.600  13.183 -0.1285  0.1786  0.1220
16599W        W33447   4.956   7.123  15.303  0.0524  0.0130  0.0521
16600W        W33448  15.193  11.503  13.039  0.2647 -0.1531  0.2452
16601W        W33449   4.885   6.478   2.147  0.1731  0.1358 -0.2595
16602W        W33450  15.312   2.601  15.999  0.0215 -0.1979  0.1217
16603W        W33451   8.042  10.650  13.247  0.0852 -0.1659 -0.0671
16604W        W33452   8.379  15.831  11.040  0.2100  0.2899 -0.1499
16605W        W33453  17.240  11.957  15.929 -0.0468 -0.1179  0.2684
16606W        W33454   9.837  15.985   2.916  0.3366  0.0666 -0.1906
16607W        W33455   4.216  13.795   0.085  0.1981 -0.1217  0.0028
16608W        W33456  10.313  11.936  11.769 -0.1494 -0.2467 -0.0901
16609W        W33457  17.813  13.700  12.305  0.0379  0.0337 -0.0910
16610W        W33458   5.418   8.233  14.455  0.2295  0.2818 -0.3460
16611W        W33459  14.223  10.703  16.297 -0.0145  0.0398 -0.1618
16612W        W33460  11.778  12.012   3.341 -0.2856 -0.0986  0.0041
16613W        W33461   2.987  15.136   2.139  0.1181 -0.2319 -0.2433
16614W        W33462   2.118  17.140   2.757  0.0533 -0.0058 -0.0574
16615W        W33463   7.534  14.101   3.780 -0.1716  0.0076 -0.0143
16616W        W33464   0.831  10.223   1.726 -0.1227 -0.2068  0.0267
16617W        W33465   0.715  16.023  11.852 -0.3786 -0.1613  0.1858
16618W        W33466   0.370  12.834  15.766  0.1500 -0.3660  0.0857
16619W        W33467   9.666   9.811   3.468 -0.1966 -0.0280  0.0871
16620W        W33468  10.025  13.367  12.701  0.0404 -0.0477 -0.0994
16621W        W33469  15.922  13.410   3.272  0.0080  0.1720  0.0954
16622W        W33470  12.207  10.485   5.022  0.1755  0.3791  0.3525
16623W        W33471   3.116   7.014  13.445 -0.2252 -0.2647  0.0940
16624W        W33472   4.129   7.042   0.120 -0.2034  0.0849  0.3127
16625W        W33473  14.638  12.693   2.161 -0.1796  0.1660  0.3218
16626W        W33474   4.710   2.646  15.877  0.2549 -0.1612 -0.0189
16627W        W33475  17.782   2.794   1.753  0.3161 -0.1642 -0.1002
16628W        W33476   7.197   4.489   2.312 -0.0296  0.1925 -0.1175
16629W        W33477  14.379  15.344  12.484  0.1691 -0.3369  0.0218
16630W        W33478   7.171  15.560   2.848 -0.1741 -0.2580 -0.3114
16631W        W33479   5.455   3.890  16.173 -0.0855 -0.1429  0.3051
16632W        W33480  15.152  14.552   4.270  0.1988  0.2439  0.0231
16633W        W33481  13.643   9.025  16.580 -0.0168  0.3675 -0.0196
16634W        W33482   9.820   4.313   5.343  0.1227 -0.0198 -0.1090
16635W        W33483  14.966   8.692  11.681 -0.0892 -0.0070 -0.1200
16636W        W33484   9.334  10.349  13.724  0.4811  0.0808  0.2605
16637W        W33485   2.823   2.046   1.951  0.1372  0.0424  0.2570
16638W        W33486   8.213   8.018   5.064 -0.0313  0.1262 -0.1684
16639W        W33487  13.782  10.278  13.366  0.0636 -0.0316 -0.0673
16640W        W33488  12.230   0.146   0.044 -0.1020 -0.0756 -0.1685
16641W        W33489   9.197   9.003  14.962  0.0971  0.0237  0.1242
16642W        W33490   9.347   7.436   2.727  0.0257  0.3661  0.4621
16643W        W33491  13.878  15.543  13.919 -0.1894  0.2123 -0.1640
16644W        W33492   9.266   6.116  15.247 -0.0518 -0.1861  0.0917
16645W        W33493  11.489   4.471  11.709  0.0075 -0.1997 -0.0777
16646W        W33494   4.504   7.210   1.330 -0.1068 -0.1012  0.0289
16647W        W33495   9.566   5.351   0.119 -0.2960  0.0107  0.1382
16648W        W33496   8.393   0.350   4.939  0.2505 -0.0340 -0.1212
16649W        W33497  12.824   0.373  16.511 -0.0750 -0.2141  0.0191
16650W        W33498   0.506  12.086  13.990  0.1307 -0.2137  0.2588
16651W        W33499   7.646  17.051  13.002  0.1505  0.1080 -0.3788
16652W        W33500  11.138   5.346   2.798 -0.1744  0.0104 -0.0433
16653W        W33501  14.621   2.724  13.375 -0.0153 -0.1438 -0.3480
16654W        W33502   9.237   3.864  12.526  0.2525 -0.2101  0.1169
16655W        W33503  15.469  17.830   2.783  0.0800  0.1810 -0.0491
16656W        W33504   7.094   1.101  13.019  0.0064  0.0777  0.1062
16657W        W33505   7.437  15.218   5.207 -0.2994 -0.4152 -0.1376
16658W        W33506   4.355   3.713  15.156  0.2499 -0.0935 -0.0317
16659W        W33507  16.774  11.967  15.666 -0.2140  0.2355  0.1711
16660W        W33508  16.917  11.302  11.684  0.0888 -0.2544 -0.2108
16661W        W33509   8.167   1.181   4.358 -0.2533  0.1139  0.0355
16662W        W33510   4.821   9.748  16.396 -0.1170 -0.1297  0.0035
16663W        W33511   8.963  12.195  13.844 -0.2123  0.0919 -0.1806
16664W        W33512   7.514  15.847   2.112 -0.1226  0.0800  0.0279
16665W        W33513   1.881   0.471  14.222  0.0212 -0.1968 -0.1115
16666W        W33514  17.073   3.539   5.126  0.1816  0.0158 -0.2276
16667W        W33515  12.928  17.851   3.167  0.1105  0.0356 -0.0149
16668W        W33516   1.234  17.774   1.848 -0.2199 -0.3591  0.3593
16669W        W33517   5.007   8.098   2.304  0.0092 -0.0988  0.2360
16670W        W33518  16.473  17.082   1.582  0.2548 -0.1107 -0.1150
16671W        W33519   7.530   1.606   3.741 -0.0104 -0.3882 -0.1480
16672W        W33520   0.670  14.460   1.015 -0.1579  0.1142 -0.2766
16673W        W33521   0.571  13.688   5.502 -0.2826 -0.0193  0.0448
16674W        W33522   7.727   2.464  13.035  0.0665  0.2541 -0.1445
16675W        W33523  11.241   4.585   1.222  0.0407 -0.1840 -0.2877
16676W        W33524  15.680   4.106  11.782 -0.0381 -0.0399 -0.0039
16677W        W33525  15.288   6.333  16.092 -0.1602  0.2207  0.0217
16678W        W33526   3.089   0.631  12.889 -0.0952  0.1750 -0.3574
16679W        W33527  16.357   1.422  13.057  0.0384  0.0441  0.2121
16680W        W33528   7.989   6.850  13.746  0.0452 -0.2372 -0.2175
16681W        W33529   4.227  15.864   5.767  0.2322 -0.2715 -0.1981
16682W        W33530  15.219   9.989   4.812  0.4471 -0.2003 -0.0993
16683W        W33531   1.073   6.901   0.555  0.0766 -0.1873  0.1910
16684W        W33532   9.465  13.335  16.197 -0.0260  0.0197  0.3322
16685W        W33533  14.619  14.098  12.003 -0.0234  0.1304 -0.2274
16686W        W33534   9.178   3.446  11.163 -0.1112  0.1894  0.1278
16687W        W33535   5.049  10.447  14.278  0.2811 -0.1433  0.1140
16688W        W33536   3.644  12.676   4.477 -0.0618 -0.0635  0.1718
16689W        W33537  16.530  16.774  15.768 -0.2050  0.0783 -0.3059
16690W        W33538   0.812   5.116  11.540  0.4229  0.3345  0.2359
16691W        W33539  17.216  15.702  11.847  0.2436  0.0306 -0.1536
16692W        W33540   9.833  17.439  13.040  0.0342  0.5002  0.1186
16693W        W33541  16.486   5.798   1.532  0.2809  0.3881 -0.0970
16694W        W33542   7.398   6.342  11.532 -0.1074 -0.0380 -0.3816
16695W        W33543   0.357   2.873  12.358 -0.2946  0.1461 -0.1634
16696W        W33544  10.254   7.608  15.718 -0.0486 -0.0397 -0.0091
16697W        W33545   7.018  13.650  11.531  0.4352  0.0197 -0.0841
16698W        W33546  16.716   9.916   4.567 -0.1778 -0.0461  0.1287
16699W        W33547   7.462   5.940   3.139 -0.2342  0.4091 -0.2248
16700W        W33548   9.927   1.349  12.803 -0.0415  0.2170 -0.2110
16701W        W33549   7.786  10.457   3.436  0.1725  0.2744  0.1549
16702W        W33550  12.015   6.227   4.907  0.2679  0.2428  0.0666
16703W        W33551  12.463   1.467  11.673 -0.2354 -0.1350  0.1013
16704W        W33552  12.894  13.339  14.999  0.0713  0.1746 -0.2121
16705W        W33553   7.909   6.018  14.193  0.1230 -0.4554  0.0732
16706W        W33554  16.428   4.947   0.930 -0.0868  0.1397  0.2431
16707W        W33555  15.437  11.077  12.400 -0.1408 -0.2591  0.0835
16708W        W33556  12.032   7.473   5.335  0.0676 -0.1512  0.2703
16709W        W33557  13.819  14.049   2.378  0.1868 -0.0259  0.1083
16710W        W33558  14.196  16.106   3.003  0.1796 -0.0022 -0.0283
16711W        W33559  14.914   5.485  11.783 -0.1244 -0.0174 -0.0888
16712W        W33560  15.734   8.022  11.784 -0.1556  0.1261 -0.0031
16713W        W33561   6.333  11.651  14.209  0.0112  0.1735  0.0744
16714W        W33562   6.834  13.506   4.249 -0.8042 -0.0308 -0.0511
16715W        W33563   3.772   3.096  14.458  0.0080  0.1080 -0.0625
16716W        W33564   1.747  10.626  15.900 -0.0918 -0.2847 -0.1482
16717W        W33565   3.214   9.053   0.776  0.0701  0.1022 -0.1412
16718W        W33566   9.221   7.336  12.818  0.1693  0.0346  0.1012
16719W        W33567   0.151  17.429   0.479 -0.2110  0.0497  0.0978
16720W        W33568   3.702   6.896   1.686 -0.1555  0.0663  0.2735
16721W        W33569  10.899   0.882   0.175  0.1517  0.1844  0.1638
16722W        W33570   0.092   8.498   1.079  0.0238 -0.1446 -0.2368
16723W        W33571   5.628  16.244  16.339  0.0603 -0.1024 -0.0360
16724W        W33572   7.796  15.095   1.074  0.1248  0.4649  0.1909
16725W        W33573   4.260  14.372   6.636 -0.1479 -0.1593 -0.2384
16726W        W33574   6.543   6.916  12.910 -0.3285 -0.2100  0.2937
16727W        W33575   1.066  14.116   0.734 -0.0484  0.2083 -0.1928
16728W        W33576  15.395   6.987  11.142  0.0490 -0.0030  0.0566
16729W        W33577   3.167  13.895  11.518  0.1930 -0.0908  0.0772
16730W        W33578   7.415   9.071  12.185  0.2079  0.0151 -0.0135
16731W        W33579   3.989  14.762   1.093 -0.2330 -0.0689  0.0036
16732W        W33580  10.815   6.082  12.827 -0.0789  0.1714 -0.2530
16733W        W33581  13.131  11.329  14.918  0.3237  0.0606 -0.1815
16734W        W33582  16.856   9.119  15.938 -0.0174  0.0174 -0.2173
16735W        W33583  12.921   1.921   4.517  0.1655 -0.1636 -0.0219
16736W        W33584   6.463  14.913   0.586 -0.1705 -0.1590 -0.1202
16737W        W33585   1.551  17.348   5.411  0.4021  0.1080 -0.0578
16738W        W33586   0.121  17.690   4.958  0.0257  0.1979  0.1285
16739W        W33587  16.464  12.322  15.877 -0.1168 -0.0428 -0.1836
16740W        W33588  16.721  10.387   3.362  0.0096 -0.1009  0.0888
16741W        W33589   8.919   9.454  14.170  0.1654 -0.1730 -0.1019
16742W        W33590  14.649   7.224   4.328  0.2186 -0.3454 -0.0424
16743W        W33591  16.375  12.160  11.792 -0.1765  0.0606  0.0332
16744W        W33592   3.044   3.859   2.197  0.2869  0.1030  0.3363
16745W        W33593   7.487  11.820   3.986  0.1293 -0.0441 -0.1652
16746W        W33594  14.646  15.621  14.294 -0.0906 -0.0525  0.1703
16747W        W33595   2.120  11.757   2.597 -0.1796 -0.2050  0.2278
16748W        W33596   3.892  15.553   2.236 -0.0934 -0.0714  0.3240
16749W        W33597  15.578   3.926  15.069  0.4818  0.0616  0.1022
16750W        W33598   8.722   1.842  14.831 -0.3945 -0.1886  0.2492
16751W        W33599  13.311  10.582  11.715 -0.2131 -0.2043 -0.2617
16752W        W33600   5.447  13.531   0.895  0.4983  0.1148 -0.2497
16753W        W33601   4.929  14.037  14.176  0.1282  0.0984  0.1091
16754W        W33602   3.541   7.225  11.994 -0.1195 -0.1430  0.2319
16755W        W33603  12.783  16.965  15.919 -0.1845  0.1137  0.1379
16756W        W33604  16.974   3.017  13.289  0.2595 -0.3055  0.1245
16757W        W33605   6.251   2.430   4.493  0.1843  0.5019  0.0672
16758W        W33606  12.597   6.137   1.760  0.0816  0.2248  0.1720
16759W        W33607   2.421  10.178   3.815 -0.2083  0.2977  0.0854
16760W        W33608  17.158   1.190   2.316  0.0718  0.1006  0.0987
16761W        W33609  15.329  13.072  13.815  0.2234 -0.1656  0.0114
16762W        W33610  15.677  15.398   2.690 -0.0666  0.1217 -0.0952
16763W        W33611   5.268  16.940  14.632 -0.0968  0.1537 -0.1117
16764W        W33612  10.933   2.536  12.561 -0.0026 -0.1098 -0.0285
16765W        W33613   0.944   3.225  14.847 -0.0703 -0.1495  0.1456
16766W        W33614  12.183  13.818   1.507 -0.0000  0.2668 -0.1617
16767W        W33615   3.557   6.317  16.390  0.0163  0.0505  0.2897
16768W        W33616  11.266   7.697  15.864 -0.0143 -0.3825  0.0277
16769W        W33617   9.447  14.216   4.672 -0.3000 -0.1836 -0.3518
16770W        W33618   9.585  12.481   0.670 -0.1269 -0.0393 -0.2986
16771W        W33619   6.405   7.303   3.461  0.1490 -0.2691  0.0952
16772W        W33620   7.516  17.806   4.283  0.5349  0.0504  0.6165
16773W        W33621  10.171  14.202  13.418  0.1569  0.1013  0.0364
16774W        W33622  15.060   6.375   3.956  0.2826  0.1516  0.0851
16775W        W33623  16.946  12.764  11.803 -0.0257  0.0968  0.2511
16776W        W33624   8.885   5.767  16.093  0.1840 -0.0886  0.0838
16777W        W33625  16.455  12.296  14.472 -0.1120 -0.1763 -0.2280
16778W        W33626  17.082  11.779  13.918  0.1124  0.1996  0.2028
16779W        W33627   8.645   4.898  13.417  0.1626  0.0828 -0.0201
16780W        W33628  12.225   3.908   2.861  0.0012  0.0978 -0.1206
16781W        W33629   3.440   6.695   0.761 -0.1315 -0.1822 -0.1993
16782W        W33630   3.188   5.133  13.126 -0.5398  0.1787 -0.0319
16783W        W33631  10.430   4.240   0.223 -0.0537  0.0866 -0.0280
16784W        W33632   9.378   6.999   2.375  0.0229 -0.1800 -0.1473
16785W        W33633   3.974   1.091   5.291  0.0958  0.4935 -0.3203
16786W        W33634  16.979  11.316   5.729  0.1964  0.2383 -0.0060
16787W        W33635   9.032   3.714   3.737  0.0431  0.3065  0.0813
16788W        W33636   2.203   1.736  13.217  0.0883  0.0896  0.0873
16789W        W33637   0.716   9.230  11.560 -0.0685  0.0448  0.0121
16790W        W33638   6.185   0.046   0.563  0.0392  0.2089 -0.0250
16791W        W33639   6.677  12.928  12.490 -0.2780  0.1785 -0.0634
16792W        W33640  17.044   3.463   2.056  0.1313 -0.2982  0.2922
16793W        W33641  17.473  14.584  15.211  0.2027 -0.1796  0.1082
16794W        W33642  11.562  11.110   2.054 -0.1803 -0.1671 -0.0953
16795W        W33643  17.118  16.481  13.648 -0.1092  0.0036 -0.1451
16796W        W33644  14.096   0.265   2.691 -0.0615  0.3350 -0.0042
16797W        W33645  13.721  15.509  12.084  0.1650 -0.0107 -0.0277
16798W        W33646   5.025  12.510   4.831  0.2013 -0.3110  0.0869
16799W        W33647   6.614   8.183  13.475 -0.2898  0.0277 -0.1162
16800W        W33648   6.056  12.662  14.365 -0.0355  0.0661 -0.0234
16801W        W33649   3.661   4.469  13.937  0.2515  0.1853  0.1017
16802W        W33650   1.828   3.655   0.661  0.0701 -0.0928  0.1162
16803W        W33651  13.363  11.962  14.626  0.0994  0.0927  0.1209
16804W        W33652  17.504  15.244   1.266 -0.2673  0.0401 -0.5162
16805W        W33653  17.590  17.811  12.023  0.2440  0.1359 -0.1002
16806W        W33654  11.224   1.861  15.732  0.2514  0.0176 -0.1078
16807W        W33655  16.465   5.880  11.048 -0.0559 -0.0441 -0.1428
16808W        W33656  16.418   3.682  10.834  0.0354  0.1129 -0.2442
16809W        W33657   1.709   2.505  14.968  0.1413 -0.2458 -0.1224
16810W        W33658   3.654  11.134  12.790 -0.2871 -0.0464 -0.3067
16811W        W33659   6.494   6.903   4.326  0.0633 -0.1300  0.3212
16812W        W33660   1.328   3.782  12.922  0.0180 -0.2545 -0.0217
16813W        W33661   4.944   4.191   0.372  0.0598 -0.3599 -0.0978
16814W        W33662   9.722  15.786  15.046 -0.0324  0.4615 -0.2408
16815W        W33663  11.288  14.597   2.148 -0.2326 -0.1225  0.3203
16816W        W33664  11.902  13.447  14.485  0.0059  0.1277 -0.2551
16817W        W33665   3.802   3.863   2.328  0.1475 -0.0243  0.2568
16818W        W33666   0.376   5.642   0.208  0.1085 -0.2838  0.1085
16819W        W33667   4.365  16.115   2.062 -0.2247  0.0896  0.0683
16820W        W33668   2.637  15.069   3.502  0.1936  0.0240 -0.2113
16821W        W33669   6.137   0.967  12.208 -0.1730 -0.0068 -0.0144
16822W        W33670  13.841   7.455  16.021  0.3600 -0.1249 -0.0849
16823W        W33671   6.757   8.434   2.588 -0.0642  0.1409  0.0294
16824W        W33672   0.581   1.156   0.168  0.2189 -0.0935 -0.0285
16825W        W33673  13.748  10.995   4.523 -0.2647 -0.2406 -0.3277
16826W        W33674  11.736   4.850  13.046 -0.3449 -0.0031  0.0112
16827W        W33675  11.694   9.291   4.277 -0.2891  0.1788 -0.0800
16828W        W33676   7.850  15.735   2.509 -0.3291 -0.2077 -0.0223
16829W        W33677  13.902  11.270   5.750  0.0951  0.0005 -0.0365
16830W        W33678   2.639  12.093  15.297 -0.2323 -0.0656  0.1888
16831W        W33679   4.295   4.993   1.505 -0.0044 -0.2455  0.0316
16832W        W33680   0.431  15.186   4.225 -0.2895 -0.1612  0.2251
16833W        W33681   9.738   3.529  13.783  0.0928  0.3660  0.2529
16834W        W33682  11.523   8.408  16.539 -0.4602 -0.0250 -0.0618
16835W        W33683   3.614   4.376   0.185  0.2820  0.1466 -0.0391
16836W        W33684  13.834  14.611   1.135  0.0525 -0.0224  0.0448
16837W        W33685   3.799   9.883   4.288 -0.4232  0.1664 -0.0163
16838W        W33686  10.314   7.684  14.970 -0.0898 -0.0538  0.1381
16839W        W33687   6.810   6.290   4.681 -0.0138  0.1696 -0.1061
16840W        W33688   3.254  10.485   4.268 -0.4061 -0.1658 -0.1562
16841W        W33689  17.781  10.434  15.248 -0.2120  0.0489  0.1185
16842W        W33690   3.321  17.333   3.992 -0.1345  0.2506  0.0256
16843W        W33691   8.014   4.409   0.494 -0.3495 -0.2596 -0.2124
16844W        W33692  12.408  17.386  11.786 -0.1926 -0.0068  0.1846
16845W        W33693   9.489   5.805   1.375 -0.0600 -0.1150  0.0267
16846W        W33694  10.280   5.583   3.635 -0.1353 -0.0374 -0.1016
16847W        W33695   6.862  14.225   4.730 -0.1630 -0.1006  0.3958
16848W        W33696  15.299   0.655  13.715  0.1269  0.1023  0.2323
16849W        W33697  15.082   4.962   4.658  0.3131  0.1692 -0.0907
16850W        W33698   3.101  16.397   2.778  0.1661  0.1365  0.2580
16851W        W33699   5.475  14.771   5.415 -0.2404 -0.1042  0.1691
16852W        W33700  14.274   4.696   1.287 -0.1652  0.2083 -0.4376
16853W        W33701   4.979   9.079   0.388 -0.1062 -0.3133  0.1636
16854W        W33702   5.666   9.398  15.882 -0.1557  0.4872  0.1499
16855W        W33703   1.489  11.502  15.557  0.0153  0.2296  0.2088
16856W        W33704   9.812   0.442  12.618  0.1983  0.0271 -0.1551
16857W        W33705   8.843  11.099   0.016 -0.1053  0.0014 -0.0058
16858W        W33706   0.238  11.435   1.283 -0.0104 -0.1203  0.0288
16859W        W33707  10.219  13.559  11.716 -0.0096 -0.0806 -0.1294
16860W        W33708   8.747  12.288  14.276  0.0156 -0.2250  0.1732
16861W        W33709   3.168  17.215  14.938  0.2632  0.0230  0.1832
16862W        W33710  13.607   9.071   3.928 -0.2376  0.2526  0.0587
16863W        W33711  13.396  16.956   3.171  0.1444 -0.0135 -0.0515
16864W        W33712  12.167  16.174   1.259  0.0991  0.4327 -0.0724
16865W        W33713  11.058  15.446  16.555  0.2552  0.2640  0.1392
16866W        W33714   8.801  14.709  15.119 -0.1620  0.2327  0.3085
16867W        W33715  15.976  12.402   6.059  0.1034  0.3083 -0.1552
16868W        W33716   4.748  16.444   2.150  0.4334  0.0241 -0.0928
16869W        W33717  13.652   0.649  12.759 -0.1190 -0.1468  0.1032
16870W        W33718  15.592  16.185  13.924 -0.0800 -0.1616 -0.1139
16871W        W33719   8.087  11.267   1.957 -0.2252 -0.1246 -0.1638
16872W        W33720   0.768   6.140  13.103 -0.0679 -0.4602 -0.0566
16873W        W33721   8.676   8.538  16.258 -0.0862  0.0811 -0.0290
16874W        W33722   1.864  14.256  12.546 -0.0247 -0.2403  0.2997
16875W        W33723   0.006  12.777   4.625 -0.1098 -0.2558  0.2596
16876W        W33724   1.540   3.533  15.656  0.0765  0.1068 -0.1461
16877W        W33725   8.704   6.466   2.113  0.3133  0.0678 -0.0953
16878W        W33726   1.019  10.354  12.440 -0.1646 -0.0700 -0.3519
16879W        W33727   6.035   5.170  13.964 -0.3782  0.3007 -0.3246
16880W        W33728  11.617  17.784  11.887 -0.2157  0.1398 -0.2568
16881W        W33729  13.271  15.570   2.448 -0.1357 -0.0416 -0.0448
16882W        W33730  10.132   7.726   3.829 -0.0023 -0.3776  0.3027
16883W        W33731  17.201  14.156  11.766 -0.1229  0.0504  0.1063
16884W        W33732   1.984   5.251   4.266 -0.0637  0.0166  0.0052
16885W        W33733   8.274  16.644   4.860  0.2609 -0.2172  0.0847
16886W        W33734   0.128   4.019   2.413 -0.1169 -0.3120 -0.0629
16887W        W33735   9.592   9.461   0.421  0.0123 -0.2150 -0.1396
16888W        W33736   8.455   7.226   0.028 -0.0301 -0.1534 -0.0741
16889W        W33737  15.330  13.341   1.525  0.1771  0.0999 -0.1219
16890W        W33738  16.169   9.566  14.143 -0.3863 -0.0861  0.0436
16891W        W33739  13.199   5.897  12.462  0.1387 -0.0126  0.0604
16892W        W33740  10.127  16.773   2.260 -0.1088  0.1501 -0.0748
16893W        W33741   0.111   6.111   3.191  0.0632  0.2072  0.2329
16894W        W33742  13.496   0.613   2.183  0.0451  0.0437 -0.2001
16895W        W33743   4.106  15.078   1.514 -0.1102 -0.0055 -0.1557
16896W        W33744  11.026   6.789  12.057  0.1476  0.0666  0.1673
16897W        W33745   8.837   7.087  13.557 -0.1928 -0.1173  0.1783
16898W        W33746  11.839   5.596  14.893 -0.2504  0.0476  0.1738
16899W        W33747   0.588   7.510  10.294  0.1650 -0.1899  0.0020
16900W        W33748   8.986  15.678  13.256 -0.1469  0.1226  0.0328
16901W        W33749   8.559  12.442  13.846  0.2828  0.0105  0.1072
16902W        W33750   5.017   5.354  13.077  0.1778 -0.0863 -0.0057
16903W        W33751  16.152   8.540  16.087 -0.0925 -0.0039 -0.0683
16904W        W33752   3.793  16.631   4.163 -0.0536  0.0158 -0.0815
16905W        W33753   2.742   3.904  11.775  0.4985 -0.1319 -0.0177
16906W        W33754   8.891  14.585  13.832 -0.0120 -0.2148 -0.1312
16907W        W33755  13.435   5.297   0.739  0.0542 -0.1374  0.0112
16908W        W33756  13.811  15.961  14.208  0.0360  0.0565  0.1254
16909W        W33757   2.612  13.563   3.574 -0.0569  0.3312  0.3048
16910W        W33758   1.114   7.124  13.217  0.1028  0.2572  0.1479
16911W        W33759  10.991  14.054  16.625 -0.0280  0.0665 -0.4074
16912W        W33760  14.471   3.474   2.969  0.1677 -0.4038  0.0125
16913W        W33761   3.198   3.509  11.968  0.0647 -0.3558  0.3320
16914W        W33762   5.330   5.385  14.581  0.1435  0.0909 -0.0984
16915W        W33763   9.971   2.152  13.793 -0.0060  0.1060 -0.2711
16916W        W33764  11.462  16.655  14.580 -0.0645 -0.0971 -0.0063
16917W        W33765  10.905   9.542   0.772  0.1940 -0.2059  0.0336
16918W        W33766   6.797  14.871  14.326  0.1327  0.1324  0.0378
16919W        W33767  11.549   5.379  12.237 -0.3140 -0.0507  0.0929
16920W        W33768   1.326  12.729   1.854  0.1310 -0.0645 -0.2759
16921W        W33769   9.071  10.109  12.271 -0.0030 -0.2337  0.1719
16922W        W33770  14.943  12.769  14.784  0.3517 -0.0437  0.2061
16923W        W33771   7.410  11.682  13.486 -0.2550  0.0774 -0.1877
16924W        W33772   5.710  11.773   6.207  0.1541 -0.2120 -0.1926
16925W        W33773   9.766  14.222  16.373 -0.0183 -0.0395 -0.3797
16926W        W33774   5.839   2.487  10.452 -0.2616  0.1624  0.2543
16927W        W33775   6.262  11.290   2.348 -0.3303  0.1690 -0.0652
16928W        W33776  15.162   3.872   1.113 -0.1047  0.0601 -0.1091
16929W        W33777  14.899   6.592  13.632  0.0690  0.1898  0.1206
16930W        W33778   1.355  15.947  13.683 -0.2636  0.1696 -0.1831
16931W        W33779   7.442  15.947   2.728 -0.2276 -0.2060  0.0906
16932W        W33780   2.483  17.727   4.965  0.2120  0.1217  0.3031
16933W        W33781   6.989  11.055  12.273 -0.0417 -0.1856 -0.0691
16934W        W33782  17.434   2.745   0.977  0.0979 -0.0034 -0.0389
16935W        W33783   3.583  11.707  12.594 -0.0004 -0.0367  0.0990
16936W        W33784  11.140   2.569  14.676 -0.2923  0.1115  0.0793
16937W        W33785   8.541  12.659   5.004  0.0648  0.2011  0.4561
16938W        W33786  14.151  10.043   1.585 -0.2304 -0.0264  0.1340
16939W        W33787   3.472   1.178   2.799  0.2830 -0.1159  0.0829
16940W        W33788   6.013  11.984   0.833 -0.1888 -0.1205  0.0144
16941W        W33789   9.485  15.765  15.606 -0.1182  0.0801 -0.0558
16942W        W33790  15.679   6.401   3.157  0.1739 -0.1208  0.1258
16943W        W33791   0.403   1.703  13.569 -0.0905 -0.1175 -0.1203
16944W        W33792  12.702   8.424   1.382 -0.1439 -0.1446 -0.0202
16945W        W33793   2.415   5.795  13.951  0.1083 -0.0466 -0.1523
16946W        W33794   7.419   1.375  12.462 -0.1180 -0.0105 -0.0014
16947W        W33795  15.030  17.100   0.692  0.0975 -0.1613  0.1798
16948W        W33796  12.030   8.305   0.120 -0.3617 -0.0503  0.1513
16949W        W33797   8.720   3.829  14.670  0.2284  0.2383  0.3101
16950W        W33798   5.877  11.456   0.814 -0.0906  0.3216  0.0294
16951W        W33799   8.128   5.359   3.357  0.1162  0.0767 -0.2147
16952W        W33800  13.735  11.318  13.082 -0.1884  0.1462 -0.0237
16953W        W33801   9.801   1.992   1.054 -0.0185  0.2182 -0.0521
16954W        W33802  14.150  10.800   2.682  0.4884 -0.1395  0.0043
16955W        W33803   6.470   3.782  10.934 -0.0686  0.0985 -0.1686
16956W        W33804   0.764   9.759  15.052  0.1777  0.3672 -0.3250
16957W        W33805   7.077  11.087  14.103 -0.1185 -0.0545  0.0081
16958W        W33806  10.413  11.128  14.120 -0.0830 -0.1008 -0.1712
16959W        W33807   3.676  12.851   0.934  0.3220  0.1663  0.1778
16960W        W33808  15.230   5.989  16.607  0.1122 -0.0308 -0.0374
16961W        W33809   3.920   8.421   0.178 -0.0831 -0.0388 -0.0732
16962W        W33810  15.211   7.762  16.582  0.0085  0.1529 -0.1354
16963W        W33811  11.786  13.367   0.857  0.0105 -0.0945  0.2143
16964W        W33812   0.179   1.422   0.981 -0.2018 -0.3137 -0.0667
16965W        W33813  14.213   5.516  11.631  0.1235 -0.0841  0.1970
16966W        W33814  14.709  17.607  13.095 -0.2021  0.0860  0.0541
16967W        W33815   9.081  14.711  14.348  0.0584 -0.2751 -0.1960
16968W        W33816   6.128  12.738   0.619  0.1362  0.1221  0.0893
16969W        W33817   3.751  12.860  13.549 -0.1232  0.1631 -0.7155
16970W        W33818   5.731  10.188  13.744  0.2890 -0.3351 -0.1185
16971W        W33819   6.826  14.386  14.433 -0.1027 -0.0764 -0.1416
16972W        W33820   0.253  10.274   5.728  0.3625  0.1832  0.2656
16973W        W33821  11.830  16.796  14.919  0.2126 -0.1654  0.1616
16974W        W33822   3.272   0.062   1.764 -0.0361 -0.2419  0.0178
16975W        W33823   1.053  11.258  15.370  0.1309 -0.0848  0.1979
16976W        W33824   9.050   5.816  11.945  0.1036  0.0896  0.2266
16977W        W33825   4.557   9.162  10.370 -0.0415  0.2495 -0.0559
16978W        W33826  15.971  16.065   0.704  0.1072  0.0769 -0.0154
16979W        W33827   2.738  13.427  14.045  0.0352 -0.1183 -0.2409
16980W        W33828  15.540  11.100   0.716 -0.0331  0.0596  0.0280
16981W        W33829   0.219  11.996   1.073  0.0182 -0.0170  0.2155
16982W        W33830  10.584  16.520  12.258 -0.1378 -0.0121  0.2539
16983W        W33831   0.726   6.867  11.931  0.2172  0.0559 -0.5596
16984W        W33832   6.708  13.083   3.252 -0.0872  0.1544 -0.1988
16985W        W33833   3.877   5.906   1.750 -0.0530 -0.0964  0.1867
16986W        W33834   1.790  16.370   5.524 -0.0377 -0.1300  0.0869
16987W        W33835   8.964   9.750  12.596  0.1102  0.0143 -0.2041
16988W        W33836   6.635   2.450  12.060 -0.0009 -0.2620  0.0010
16989W        W33837   8.366  13.096   5.577  0.2719 -0.0680 -0.2748
16990W        W33838   4.288   2.441  12.970 -0.1884 -0.0892 -0.0012
16991W        W33839   2.120   6.028  15.383  0.3967 -0.1226 -0.3875
16992W        W33840   9.398  16.154   0.236 -0.0493 -0.3909 -0.3559
16993W        W33841  10.548   5.225   2.405 -0.1255  0.0584 -0.5616
16994W        W33842   2.124   6.166   1.702  0.2935  0.1072 -0.1913
16995W        W33843   4.418  17.568   5.155  0.5002  0.0663  0.0366
16996W        W33844  12.105  11.905   0.407 -0.0703  0.0818  0.2124
16997W        W33845   3.767   5.872  14.447  0.0096 -0.0573  0.0935
16998W        W33846  12.618   6.555   2.179 -0.0591  0.1064 -0.3019
16999W        W33847   8.574   4.371  13.355 -0.2666 -0.2685 -0.0834
17000W        W33848   0.042  17.227   1.606 -0.2817  0.0393 -0.1116
17001W        W33849   0.382   7.402  14.270 -0.0616 -0.1014  0.1642
17002W        W33850  14.788   5.802  15.410 -0.0221 -0.1210 -0.0192
17003W        W33851  16.823   4.275  13.864 -0.1500  0.2397  0.4415
17004W        W33852   2.273   6.362  13.700 -0.3552  0.2199 -0.2196
17005W        W33853   0.412  13.452   4.125 -0.2067  0.0251  0.0367
17006W        W33854  13.373  13.224   5.045 -0.2791  0.1023 -0.1672
17007W        W33855  12.027  12.345  11.400  0.4369  0.3348 -0.0263
17008W        W33856   0.032  15.907  16.512  0.1243 -0.4812 -0.0596
17009W        W33857   7.292   5.969   5.216 -0.2008 -0.0738  0.0301
17010W        W33858   7.212   0.126   1.543 -0.0974 -0.0408  0.3065
17011W        W33859   2.586   2.287   4.085  0.0121 -0.1791  0.0075
17012W        W33860   7.926  11.092   1.542 -0.1324 -0.1436 -0.1295
17013W        W33861  14.191   4.301  12.419 -0.0379 -0.0649 -0.0140
17014W        W33862   0.393  10.892  13.549  0.3178  0.0078 -0.1200
17015W        W33863  17.754  15.289   1.706  0.0155 -0.0393  0.1883
17016W        W33864   3.057  11.160  14.307 -0.4113  0.0302 -0.0618
17017W        W33865   5.628   2.124   0.162 -0.1146  0.0591  0.1224
17018W        W33866  13.827  17.330  14.871  0.0228 -0.0048 -0.2981
17019W        W33867   2.353   9.648  16.376 -0.2933 -0.0065 -0.1851
17020W        W33868   5.904   1.691   5.470 -0.0767  0.2606 -0.2303
17021W        W33869   8.805   8.372   2.772  0.0814  0.1066  0.2009
17022W        W33870  12.988   0.995  14.512 -0.1847 -0.0264  0.3245
17023W        W33871   8.414   5.772   1.176 -0.2045  0.0229 -0.0051
17024W        W33872   6.178  11.154   1.270  0.0583 -0.3140  0.0072
17025W        W33873  10.768  10.486   2.837 -0.1533 -0.0768 -0.0112
17026W        W33874  14.750  14.058  15.809  0.1761 -0.1847 -0.0477
17027W        W33875  16.346   4.718  15.000  0.2779 -0.0263  0.0665
17028W        W33876  15.360  13.296   2.576 -0.1125  0.2807  0.2122
17029W        W33877   3.834  10.608  11.253 -0.0265  0.1398  0.1137
17030W        W33878   5.337  11.233   4.494 -0.1247  0.0304  0.1240
17031W        W33879   4.802   4.427   3.826 -0.1197  0.2905 -0.1904
17032W        W33880  11.396  10.696   5.014 -0.2247  0.0174  0.0631
17033W        W33881   3.466   7.749   0.360 -0.2698 -0.1298 -0.1016
17034W        W33882  10.992  17.086  14.443 -0.4830  0.2284  0.0336
17035W        W33883   3.424  16.841   2.736  0.2152 -0.2021  0.0253
17036W        W33884   1.330  15.674   4.486  0.2275  0.0497  0.1481
17037W        W33885  11.516  16.696   4.573  0.0078 -0.1892 -0.0494
17038W        W33886  16.004   0.013   1.027  0.0296 -0.2182  0.0988
17039W        W33887  10.880   0.775  12.037  0.0284  0.0192 -0.0192
17040W        W33888  16.364  10.754   4.936  0.0248 -0.0884  0.3345
17041W        W33889   0.385  12.673  16.275  0.0272 -0.0740 -0.2687
17042W        W33890   6.999   5.571  12.088 -0.0470 -0.1129  0.1796
17043W        W33891  16.482  14.818   0.179 -0.2233 -0.2579 -0.1364
17044W        W33892  17.857   3.375  15.530 -0.1771  0.1833  0.0047
17045W        W33893  13.932  16.383  14.864  0.3469 -0.1427  0.1701
17046W        W33894  10.441   3.222  15.455  0.2493  0.0679 -0.2135
17047W        W33895  13.934   5.002   0.994  0.2200 -0.1371  0.0932
17048W        W33896  16.779   6.867  14.745  0.2897  0.0043 -0.0295
17049W        W33897  17.105  10.588   2.826 -0.1541  0.1309 -0.1189
17050W        W33898   7.173   7.445   3.894 -0.1836  0.0903  0.1798
17051W        W33899  12.652   6.587  15.517  0.0337  0.1408 -0.0885
17052W        W33900  15.925  10.454  15.013 -0.1154 -0.0129 -0.1085
17053W        W33901   4.185   7.781   2.011  0.1073 -0.0775 -0.0475
17054W        W33902  15.766  14.913   2.799 -0.0273  0.0773  0.0979
17055W        W33903   2.499   9.912  15.941  0.1404  0.1537  0.0786
17056W        W33904  14.990   6.268   5.582  0.0620 -0.0844  0.1218
17057W        W33905   9.453   8.932   4.754 -0.0671  0.0975 -0.3061
17058W        W33906  16.054  15.330   3.066  0.2856  0.0772 -0.1885
17059W        W33907  10.219  16.380   0.093 -0.0110  0.1245  0.1888
17060W        W33908  11.804  14.883   2.127  0.0732  0.2479 -0.1951
17061W        W33909   9.540  17.133  14.426 -0.1690  0.3436  0.3672
17062W        W33910   3.990   3.295  14.848  0.2197  0.3086  0.2086
17063W        W33911   6.466   6.844   3.650 -0.2535  0.1521  0.1675
17064W        W33912  11.279  15.918  14.220 -0.1654 -0.2052  0.0563
17065W        W33913  13.056  16.602   1.571  0.1812  0.0524 -0.2451
17066W        W33914  15.389   9.619   1.634 -0.2277 -0.1742  0.0191
17067W        W33915  17.855  15.094   0.731 -0.0426  0.0599 -0.0597
17068W        W33916   5.681  14.863   4.385  0.0101 -0.0118 -0.2138
17069W        W33917   8.908   0.327  15.828  0.1176 -0.1134  0.0342
17070W        W33918   1.936   0.601  11.764 -0.1146 -0.1138  0.0231
17071W        W33919  13.205   7.187  11.816 -0.2451  0.0805 -0.1243
17072W        W33920  17.288  17.811  11.554  0.0794  0.1584 -0.0387
17073W        W33921   1.581  14.132   0.955 -0.0918 -0.1632  0.0163
17074W        W33922  10.035   5.217   4.244  0.0582 -0.0663  0.2036
17075W        W33923   6.049  14.951   2.977  0.0307  0.0530  0.0758
17076W        W33924   7.214  17.722  10.859 -0.1620  0.1130 -0.1729
17077W        W33925   2.733   1.089  12.794  0.1779  0.0286  0.1491
17078W        W33926  13.479  13.002  13.893 -0.2313  0.0170 -0.2113
17079W        W33927   0.808  15.485   4.319  0.1953 -0.1203  0.0333
17080W        W33928  10.260  17.703  14.567 -0.3647 -0.0719 -0.0433
17081W        W33929   5.037  15.487  16.532  0.2720  0.2024  0.0040
17082W        W33930  13.687  17.742   5.881  0.2816  0.0085 -0.1920
17083W        W33931  10.731  10.855   1.746  0.1273  0.2170 -0.0374
17084W        W33932   0.692   4.490  12.971  0.1841  0.0359 -0.0333
17085W        W33933  11.301   5.305  12.639 -0.2076 -0.1200 -0.1189
17086W        W33934  16.372  16.155   0.964  0.2540 -0.3943 -0.1350
17087W        W33935   7.548  10.985   4.330 -0.0048  0.2815  0.0626
17088W        W33936  15.827  13.413  16.443  0.0522 -0.0531  0.1745
17089W        W33937   7.936  13.431  14.943 -0.3246 -0.0934  0.2894
17090W        W33938   8.907  12.129  12.991  0.0038  0.1854  0.2796
17091W        W33939  11.473   6.985   1.535  0.2579  0.0974 -0.0949
17092W        W33940  16.257   0.063   1.464 -0.0712 -0.1793  0.1649
17093W        W33941  16.935   9.808   0.947  0.2757  0.1078  0.2806
17094W        W33942  14.509   0.659  16.475 -0.1530 -0.2741 -0.0978
17095W        W33943  14.119   4.810   2.528  0.1103  0.1380  0.2380
17096W        W33944  10.573   6.768  15.159 -0.0089  0.2313 -0.1250
17097W        W33945  12.945   1.083   5.415 -0.1094  0.1469 -0.1313
17098W        W33946  16.444   1.932  12.784  0.1287  0.1500  0.0773
17099W        W33947  16.648   1.417   4.556 -0.1235  0.0890  0.0012
17100W        W33948  16.178   0.098  13.723 -0.0636  0.0979  0.1845
17101W        W33949  12.071   6.295   2.584  0.0153  0.1719  0.0405
17102W        W33950  15.873   5.582   0.273  0.1618  0.1777 -0.1577
17103W        W33951   6.308   0.258   1.330  0.2266  0.2638 -0.1271
17104W        W33952  13.907  12.321  13.980 -0.0106 -0.1441 -0.0907
17105W        W33953   4.780   4.416  13.089 -0.2653  0.0757  0.1750
17106W        W33954   5.832   8.553  14.482 -0.0330 -0.4006 -0.0996
17107W        W33955   8.657   6.406  16.574 -0.4166  0.2066 -0.0401
17108W        W33956   3.992  15.586  13.131  0.1122  0.1669  0.0556
17109W        W33957   8.622   2.909   3.330 -0.0754 -0.0053  0.1415
17110W        W33958  15.978   6.918  15.876 -0.1524  0.3666 -0.0432
17111W        W33959  16.656   4.960   4.330 -0.0789  0.1578  0.0636
17112W        W33960  17.681  10.885   3.369 -0.0199 -0.0605 -0.2585
17113W        W33961  12.336  17.485  16.436  0.0123  0.2606  0.2092
17114W        W33962  17.742  14.795   2.568  0.1546  0.0518 -0.0152
17115W        W33963   6.013   6.569  15.905 -0.0639  0.1501  0.0960
17116W        W33964   6.276   8.069  13.093 -0.0451  0.0683  0.2933
17117W        W33965  10.711   3.882   0.975  0.1706 -0.0584 -0.1334
17118W        W33966  16.066   8.026   2.054 -0.1253  0.1040  0.0058
17119W        W33967   9.775  11.747   0.938  0.0486  0.3617  0.0459
17120W        W33968   1.979   6.262   3.452 -0.0834 -0.3476 -0.1690
17121W        W33969   3.355  14.047  14.193  0.2345  0.1945 -0.1353
17122W        W33970   0.389   5.338  10.531 -0.3592  0.1755  0.0967
17123W        W33971   5.965   4.497  16.447 -0.2831  0.1502 -0.1284
17124W        W33972   0.883   6.381   1.695 -0.2894 -0.0990 -0.1458
17125W        W33973   5.642  17.111  13.739 -0.2461  0.2447  0.0872
17126W        W33974   2.254   2.037  14.596 -0.0022  0.2465 -0.3800
17127W        W33975   3.895   2.863   0.444 -0.1298  0.0089  0.2686
17128W        W33976   8.939  16.841  12.793 -0.0049 -0.0427 -0.3543
17129W        W33977   8.014   9.660   4.506  0.0699 -0.0924 -0.1314
17130W        W33978  14.272  12.925   1.145  0.0588 -0.1126  0.1450
17131W        W33979   9.967  13.467  14.456  0.0757 -0.0662 -0.1211
17132W        W33980  14.836  14.250  11.589  0.2649  0.0042  0.0733
17133W        W33981   8.943   6.429   0.749 -0.0158 -0.1854 -0.2300
17134W        W33982  17.745   0.732  11.593  0.2497  0.0688 -0.1600
17135W        W33983   4.472  13.672   1.543 -0.2573 -0.0520 -0.0605
17136W        W33984   4.332   8.021   4.696 -0.0774  0.0423 -0.2420
17137W        W33985   4.209  17.162   5.322  0.0669  0.3155 -0.0794
17138W        W33986  16.796   0.936  15.010  0.1253  0.1000  0.0991
17139W        W33987   3.927   8.895   4.732 -0.1078 -0.2855 -0.4394
17140W        W33988  10.071   9.358   2.544 -0.2008 -0.4146 -0.0281
17141W        W33989  16.745  15.628   4.244  0.1939 -0.1415  0.2743
17142W        W33990  12.963   3.980   0.900  0.0163 -0.1054  0.0278
17143W        W33991   5.588   5.332  13.117  0.3008  0.3401 -0.1606
17144W        W33992  10.880  16.111  12.617 -0.2032  0.3287  0.1172
17145W        W33993  13.340   2.873   3.915 -0.2742  0.3627  0.1158
17146W        W33994   0.199  13.067  13.020 -0.1380 -0.1902  0.1478
17147W        W33995   7.853   5.199   3.824 -0.0154  0.0792  0.0326
17148W        W33996   3.441  13.993  13.160 -0.0948  0.1941 -0.2438
17149W        W33997   2.602   4.629  12.984  0.1543 -0.1824  0.2294
17150W        W33998   4.786  14.192  11.397  0.3019  0.0343  0.1948
17151W        W33999   4.465  10.107  12.980  0.3547 -0.0392  0.3151
17152W        W34000   4.668   1.516  12.060 -0.1003  0.3307 -0.0108
17153W        W34001   8.212  12.415   1.920 -0.3158  0.1574  0.2224
17154W        W34002   4.114   9.433   2.458  0.1041 -0.1169  0.0066
17155W        W34003   0.183   9.953  11.735  0.0463  0.1445  0.0796
17156W        W34004   9.329  13.889  16.424 -0.0096 -0.5450  0.3560
17157W        W34005  10.842   0.069  14.473 -0.1794 -0.2366  0.1606
17158W        W34006   8.887   9.151  12.905  0.0519 -0.1594  0.0006
17159W        W34007   2.769   1.448   4.401  0.1102  0.1888 -0.0472
17160W        W34008   8.633   5.019  11.826  0.0707 -0.0138  0.1269
17161W        W34009  15.879  15.893  14.261 -0.0432 -0.0605 -0.0477
17162W        W34010   2.087   1.379   2.123  0.3767  0.1515  0.0989
17163W        W34011   8.568   2.546  15.751  0.0760 -0.2472 -0.0811
17164W        W34012  15.233  15.099  16.222 -0.0177 -0.1137 -0.0920
17165W        W34013   3.999  17.420   0.997  0.1647  0.2085  0.2619
17166W        W34014  14.468  14.345  14.780 -0.1905  0.0038 -0.1411
17167W        W34015  17.006   8.121   3.257 -0.2298 -0.2052 -0.0498
17168W        W34016   2.835  12.318  14.721  0.0725  0.3278 -0.2621
17169W        W34017  15.802   9.042  14.794  0.1679 -0.0000  0.4604
17170W        W34018  15.635  16.748  15.180 -0.0515 -0.0192  0.1496
17171W        W34019  14.513   9.884  12.050  0.2474 -0.2732  0.0304
17172W        W34020  16.529   5.711  12.900  0.2772  0.1478 -0.0231
17173W        W34021  13.309   7.722   4.124  0.2860 -0.2359  0.0866
17174W        W34022   4.756   6.710  15.058  0.4120 -0.0866  0.1706
17175W        W34023  16.487  17.857  15.027  0.1563 -0.0039  0.0437
17176W        W34024  12.453  16.782  13.282  0.1040  0.1683  0.3486
17177W        W34025  16.744   4.321  16.326 -0.2982 -0.0340  0.3186
17178W        W34026   5.891   2.761   4.010 -0.1380  0.0731  0.1064
17179W        W34027   1.745  12.209   2.089 -0.0349 -0.1272 -0.1365
17180W        W34028   3.532   6.466   3.695 -0.0362 -0.1002  0.1894
17181W        W34029   6.404  13.471  14.878 -0.3600  0.0692 -0.0870
17182W        W34030   5.373  10.961   1.377  0.0723  0.0805  0.2805
17183W        W34031   4.723   3.469  14.819  0.2242 -0.2259 -0.1682
17184W        W34032   2.421   2.583   3.107  0.0420  0.0796 -0.1841
17185W        W34033   1.784  11.982  13.366  0.1288 -0.1190 -0.2299
17186W        W34034  15.333  17.822  14.007 -0.1795 -0.1472 -0.0355
17187W        W34035   5.833   4.070  14.970 -0.0460  0.1953  0.1904
17188W        W34036   6.640   8.740   3.565  0.1517 -0.1011  0.2537
17189W        W34037  16.345  16.299  15.647  0.0547 -0.2589 -0.1943
17190W        W34038   1.093  15.974  14.525  0.0645  0.0925  0.1286
17191W        W34039  13.651  10.161   4.684  0.2210  0.1421 -0.0018
17192W        W34040   2.638   9.194  16.545  0.2927  0.0417 -0.2134
17193W        W34041  15.879   4.324   3.138 -0.1407  0.0491 -0.0983
17194W        W34042  15.025  15.077   4.247  0.0236 -0.1681  0.2868
17195W        W34043  13.815  15.005  15.306  0.1005  0.0393 -0.1054
17196W        W34044  11.214   3.955   3.155 -0.2199 -0.2189  0.0087
17197W        W34045  11.373  14.639   3.636  0.0434 -0.1993 -0.2886
17198W        W34046   5.180  12.857   0.275  0.1179 -0.0572 -0.2153
17199W        W34047  16.997  14.302   2.100  0.0467 -0.0975 -0.2196
17200W        W34048   4.914  11.161   2.321  0.1706  0.3139 -0.0415
17201W        W34049  10.084   3.968  14.784 -0.0434 -0.0760 -0.0395
17202W        W34050   5.495  13.450  12.805 -0.1176  0.1170 -0.0028
17203W        W34051  10.277  10.211   4.663 -0.2328 -0.0613 -0.3552
17204W        W34052   7.843   5.200  10.152 -0.0808 -0.0724  0.1053
17205W        W34053  16.218  15.916  12.184  0.1910  0.0801  0.3317
17206W        W34054  15.486   3.784   1.950 -0.0254  0.3695 -0.0934
17207W        W34055  17.175  10.003   5.434 -0.0841 -0.1135  0.0999
17208W        W34056   9.173   9.657   3.248  0.0776 -0.1136  0.0801
17209W        W34057   1.476   3.407   2.582  0.0168 -0.2953  0.0456
17210W        W34058  16.083   1.260   3.084  0.0169  0.0033 -0.2416
17211W        W34059   7.402   1.508  15.747 -0.1405  0.2074 -0.1249
17212W        W34060   6.731  10.560   4.797 -0.2191 -0.0285 -0.2661
17213W        W34061  11.980  12.516   3.489  0.2269 -0.0369  0.0337
17214W        W34062  14.086  15.921   1.388  0.0572  0.2235  0.0897
17215W        W34063   7.639  13.320  11.992 -0.1239  0.0987 -0.0017
17216W        W34064  15.825  14.169   0.422 -0.1440 -0.2032 -0.0758
17217W        W34065  12.044   0.115  16.176  0.2411 -0.0058  0.1079
17218W        W34066  12.209  13.186   2.562  0.0579 -0.0285  0.0854
17219W        W34067   5.683  11.007  15.779 -0.1607  0.0802  0.0206
17220W        W34068   4.903   6.312  12.650  0.0210 -0.1926  0.0614
17221W        W34069   7.906  14.157  10.962  0.1879  0.1609  0.1623
17222W        W34070  16.787  13.061   3.770 -0.0859  0.1636 -0.0456
17223W        W34071  13.938   5.113  14.847  0.0217 -0.2015  0.0604
17224W        W34072  10.495   6.987  11.748 -0.1561 -0.4459 -0.0569
17225W        W34073  13.540   5.736   0.486  0.2672 -0.1307  0.1737
17226W        W34074  13.843   1.334  14.992  0.3329  0.0269 -0.1641
17227W        W34075  14.231  10.461  12.451  0.0549 -0.0224  0.3056
17228W        W34076   1.926   9.135  12.247 -0.1834  0.0814 -0.0129
17229W        W34077  10.340  10.615  14.018 -0.0583 -0.1439  0.2787
17230W        W34078   4.115   7.940  12.527  0.2951 -0.2123 -0.0081
17231W        W34079   1.928   2.813  13.922  0.0481  0.0080 -0.0545
17232W        W34080  12.502   9.596  13.824 -0.0423 -0.2267 -0.0396
17233W        W34081   6.695  14.198   0.069 -0.0152 -0.0321 -0.2270
17234W        W34082  17.372   3.632   1.164 -0.3227 -0.0233 -0.0158
17235W        W34083   8.568   3.083  15.973 -0.1658 -0.0280 -0.0384
17236W        W34084  13.514  12.612  14.225 -0.2488 -0.1497 -0.1529
17237W        W34085  17.772  15.599   3.486 -0.3062  0.0143  0.0942
17238W        W34086   4.927  16.665  15.341 -0.2413 -0.0523  0.0116
17239W        W34087   3.611  11.567   1.401 -0.0229 -0.2656 -0.2686
17240W        W34088  17.130  14.663   0.077  0.0628 -0.0906 -0.0642
17241W        W34089   0.447   8.111  12.943  0.1858  0.1180 -0.0173
17242W        W34090  12.447  11.990   4.242  0.2951 -0.3887  0.1922
17243W        W34091   9.179  13.184   4.928  0.1892  0.0403 -0.0621
17244W        W34092   6.006   7.455  14.743 -0.0176  0.0454 -0.0469
17245W        W34093   9.284  13.576   2.578 -0.0374  0.3099  0.3494
17246W        W34094   7.692   9.625  15.857 -0.0753  0.0703 -0.0484
17247W        W34095   9.878   0.689  14.038 -0.1433  0.0403 -0.1281
17248W        W34096   9.141   9.876   4.404 -0.1309  0.0670  0.1235
17249W        W34097  10.978   0.680   0.627  0.2238  0.1175 -0.2113
17250W        W34098   2.578   3.129   1.068  0.0150 -0.0682  0.0531
17251W        W34099   4.663  11.537  13.709 -0.0437 -0.1082  0.1805
17252W        W34100   9.178   7.921   0.587  0.0800  0.0377  0.1510
17253W        W34101  12.518   9.221  11.821  0.0360 -0.0803 -0.0054
17254W        W34102  13.887  17.609   5.338  0.1660  0.0171 -0.0674
17255W        W34103  10.169   7.197   3.713 -0.0685  0.0563 -0.0152
17256W        W34104   0.359  10.029   1.097  0.1281 -0.2545 -0.0211
17257W        W34105   7.159  14.666  11.610  0.0596 -0.1059 -0.1957
17258W        W34106   2.233  14.446  12.837 -0.2710  0.1719 -0.0753
17259W        W34107  15.134   6.457  14.239  0.2102  0.0695 -0.0513
17260W        W34108  16.524   7.288  13.020  0.0371  0.0068  0.3686
17261W        W34109   3.957  14.282   3.662 -0.1545 -0.2281  0.2140
17262W        W34110  16.037  11.418  15.042  0.2559  0.0749  0.1856
17263W        W34111   7.310   1.648  12.947  0.0939 -0.3665 -0.0734
17264W        W34112  12.235  15.946  13.709  0.3357 -0.0655  0.0349
17265W        W34113  15.156   8.836   1.051 -0.0321 -0.1203  0.1394
17266W        W34114   6.866   6.743  13.829  0.3099 -0.0171 -0.1581
17267W        W34115   3.993   6.466   3.626  0.2102  0.1809 -0.2859
17268W        W34116   6.918   2.144   4.722 -0.1258 -0.3500  0.2629
17269W        W34117  14.026   5.667   6.380  0.1391 -0.2331  0.0390
17270W        W34118   1.676   1.036  13.042  0.2625 -0.2388  0.0097
17271W        W34119   5.681   7.889   2.795  0.0143  0.3961  0.0334
17272W        W34120  14.495  10.464   2.272 -0.1483  0.1792  0.1680
17273W        W34121  15.476   9.894  11.170 -0.4193  0.0028 -0.1654
17274W        W34122   7.893   3.303   5.168 -0.2783  0.0911 -0.0590
17275W        W34123  16.196  16.501  11.471 -0.1348  0.0552  0.0166
17276W        W34124  13.105   8.480   3.294  0.2296 -0.0567 -0.1912
17277W        W34125   8.512   4.304  14.210 -0.0492 -0.1969  0.2544
17278W        W34126  14.548  14.396   1.723  0.1256  0.2587  0.0196
17279W        W34127  11.376   9.795   3.316  0.0921 -0.2310  0.0338
17280W        W34128  11.983   4.227   0.938 -0.1526 -0.4382 -0.1039
17281W        W34129  10.503   3.435  13.321 -0.2116 -0.0570 -0.0311
17282W        W34130   0.443  13.861  14.187  0.3046 -0.0731 -0.2522
17283W        W34131  14.125  12.365  11.663 -0.3518  0.0321  0.0867
17284W        W34132  11.272  14.379   1.643 -0.1958  0.4064  0.4089
17285W        W34133   0.128  17.782  11.719  0.2781  0.1136  0.0329
17286W        W34134  11.102   3.184   2.169  0.1646  0.1021 -0.2023
17287W        W34135  13.343   4.782   2.237  0.2551 -0.3201 -0.1475
17288W        W34136  16.728  17.442  12.357  0.0987 -0.0044  0.2559
17289W        W34137   3.180   0.135   2.259  0.1905 -0.0913 -0.0647
17290W        W34138   9.927  15.050   2.675  0.3290 -0.2483 -0.0316
17291W        W34139  12.346  15.396  13.674  0.5893 -0.0434 -0.0519
17292W        W34140   0.481  11.625  11.821 -0.0684 -0.4181  0.0131
17293W        W34141   5.133  12.000  11.698 -0.0768  0.2498  0.0451
17294W        W34142  16.236  12.048   3.511 -0.1815 -0.0536  0.0651
17295W        W34143  10.733   1.252   4.613 -0.1644  0.0113  0.1587
17296W        W34144   6.031   2.787   4.763 -0.0425 -0.1216 -0.2075
17297W        W34145   0.335   9.477   1.880  0.0644  0.2432  0.0308
17298W        W34146  16.767   7.140  11.439 -0.2933  0.2484  0.0747
17299W        W34147   5.532   3.434   0.405  0.1461  0.2908 -0.1100
17300W        W34148   0.127   9.237   5.273 -0.3207  0.1107  0.0414
17301W        W34149  10.000   6.789  12.538 -0.0053 -0.0789  0.0633
17302W        W34150   7.386  14.678   1.199  0.1670  0.2201  0.1966
17303W        W34151   6.551   3.197  15.700 -0.0428 -0.4238  0.0252
17304W        W34152  17.518  16.279   0.769 -0.0477  0.5907  0.1105
17305W        W34153  10.673  17.748   0.506 -0.1726 -0.0840 -0.1916
17306W        W34154   4.285   4.208  11.200 -0.0260  0.1532 -0.4013
17307W        W34155   5.305   0.390  11.644 -0.1005 -0.1349 -0.0189
17308W        W34156   4.778   5.737  13.424  0.2221 -0.1122  0.2159
17309W        W34157   7.208   0.198  11.212  0.0473 -0.0353  0.0986
17310W        W34158   0.760   3.251  12.491 -0.2531 -0.0149  0.0879
17311W        W34159   1.525   1.509  14.968  0.0838  0.0551 -0.0786
17312W        W34160   5.718   5.024  11.189 -0.3806  0.1907  0.1052
17313W        W34161  15.567   1.514  14.988  0.1540 -0.0952 -0.2219
17314W        W34162   0.783   1.215  13.075  0.0383  0.0403  0.0828
17315W        W34163   3.462   0.783  16.351 -0.0074  0.0150 -0.2888
17316W        W34164  15.578  13.082   0.071 -0.0951  0.1017  0.0093
17317W        W34165  14.925   6.436  16.478 -0.0508 -0.0608  0.2640
17318W        W34166  14.651  16.560   1.253 -0.1733  0.3220  0.1936
17319W        W34167   5.232   7.831   1.416  0.2167  0.3511  0.2624
17320W        W34168  17.116  10.877   0.945  0.2057 -0.3297  0.0929
17321W        W34169   3.645  14.626  14.168  0.1120  0.0971 -0.0515
17322W        W34170   8.103  11.060  14.505 -0.0669  0.1661 -0.1710
17323W        W34171  14.680  10.897   6.007 -0.1596 -0.1956 -0.0571
17324W        W34172   6.352   6.528   0.830 -0.1411  0.0005  0.0922
17325W        W34173   0.006   1.054   3.406 -0.0778  0.0245  0.0469
17326W        W34174  11.257   6.557   3.181 -0.1896  0.0180  0.0273
17327W        W34175   6.412  12.884   5.461  0.1110 -0.2510 -0.1029
17328W        W34176   9.067   0.963  12.050 -0.1805 -0.1599 -0.1712
17329W        W34177   8.525   5.329  12.643 -0.2876 -0.0062 -0.0532
17330W        W34178   3.365   1.134  16.012  0.1251 -0.0214  0.0524
17331W        W34179   5.271  10.414  16.397 -0.0851  0.0229 -0.0948
17332W        W34180  17.324   6.042   4.352  0.0311  0.0109  0.0029
17333W        W34181   5.520  12.565  13.482  0.3215  0.2811  0.0800
17334W        W34182   9.943   0.336   0.664  0.0217  0.0226  0.2033
17335W        W34183  12.171   2.513   0.149  0.0549 -0.1170 -0.0886
17336W        W34184   0.964  10.042   2.667  0.1687  0.0948  0.0910
17337W        W34185  11.976  14.650   4.973  0.1325  0.1843 -0.0457
17338W        W34186  13.916   2.970  15.828  0.1641  0.0416  0.0152
17339W        W34187  10.497  17.349   4.323  0.0324  0.5446  0.2125
17340W        W34188   9.463  12.092   1.985  0.0243 -0.0038 -0.3515
17341W        W34189   5.767  12.950  13.736 -0.0259  0.2052  0.1245
17342W        W34190   7.250  10.287   3.299  0.0232 -0.2076 -0.3186
17343W        W34191   0.618   7.742  15.100  0.1054 -0.0608 -0.2676
17344W        W34192   8.011   0.594  16.417 -0.0339 -0.1746  0.0760
17345W        W34193   1.514   6.924   2.897 -0.0139 -0.0120 -0.0596
17346W        W34194  15.912   0.130  14.703 -0.0396 -0.3552  0.1557
17347W        W34195  14.087  11.954   3.341  0.0667 -0.0760  0.0995
17348W        W34196   0.544   2.461  10.842  0.0272  0.2172 -0.4137
17349W        W34197  15.024  12.458   0.338 -0.0454 -0.2888 -0.4093
17350W        W34198  15.241  16.331  15.376 -0.0487  0.0877 -0.0110
17351W        W34199  10.130   1.308   3.098  0.2344 -0.1205 -0.0277
17352W        W34200  16.292  12.514  15.452  0.1584 -0.1881 -0.0785
17353W        W34201   8.536   6.733   0.404 -0.3614 -0.1836 -0.1339
17354W        W34202   0.920  17.095  15.744  0.0977  0.1589 -0.0465
17355W        W34203  14.876   9.279   1.589 -0.0494  0.2169  0.0263
17356W        W34204   9.576   9.390   2.344 -0.1207 -0.1967  0.0107
17357W        W34205  10.515   0.939   2.583 -0.1659  0.0212  0.3873
17358W        W34206   3.196   5.345   0.580 -0.2242  0.0673 -0.1089
17359W        W34207   0.691  15.277  15.295  0.0785 -0.0851  0.2705
17360W        W34208  13.214  14.312   3.451 -0.4569 -0.1091  0.3409
17361W        W34209   0.789  14.343   5.730 -0.2246  0.0616  0.2756
17362W        W34210  12.485   9.765  12.726 -0.3600  0.2764 -0.0927
17363W        W34211   3.690   2.811  12.449  0.1375 -0.0286  0.1002
17364W        W34212   3.466  12.133  12.899 -0.1026  0.1773 -0.1541
17365W        W34213   0.119   6.228  14.743 -0.0931  0.0647  0.1156
17366W        W34214  16.405   7.330   1.196  0.0963  0.2257 -0.0610
17367W        W34215   8.922   3.922  15.412 -0.0737 -0.2727 -0.2835
17368W        W34216  16.331  13.439   2.080 -0.1630 -0.0129 -0.1087
17369W        W34217  11.338   5.076   0.437  0.3369 -0.1185 -0.1550
17370W        W34218  12.415   4.001   2.350 -0.1928 -0.0952  0.1956
17371W        W34219  16.088  16.996  11.382  0.1210  0.2190  0.1782
17372W        W34220   0.837   9.468   5.821 -0.0397 -0.2654 -0.3315
17373W        W34221   9.060  15.867  14.290  0.2806 -0.1456 -0.1104
17374W        W34222   1.669   6.135   1.992  0.0086 -0.0806 -0.0970
17375W        W34223   7.013   6.254  14.701  0.1502 -0.0211 -0.2997
17376W        W34224  11.096   8.497   2.290 -0.0652 -0.2116  0.0744
17377W        W34225  13.576  13.147   4.045  0.2476  0.1418 -0.3821
17378W        W34226   2.453   8.198   1.291 -0.1584  0.0499 -0.2513
17379W        W34227  11.729   1.384   1.454  0.1877 -0.0629 -0.1635
17380W        W34228   6.794   7.226   5.092 -0.0656 -0.0967 -0.2468
17381W        W34229  10.171  12.577  16.205 -0.1643 -0.0273 -0.0828
17382W        W34230  11.818  12.162   2.506  0.0551 -0.0005 -0.0142
17383W        W34231  12.564  13.604   4.069  0.1023  0.0422  0.2263
17384W        W34232   2.524   8.620   4.783  0.0913 -0.3684 -0.0044
17385W        W34233  16.365  14.618   2.609  0.1255 -0.0066 -0.1193
17386W        W34234  15.059   4.960  12.583 -0.1059  0.0739  0.1402
17387W        W34235   7.491  12.498   0.575 -0.2415  0.2328 -0.0425
17388W        W34236   5.863   1.922  11.878 -0.0846  0.0437 -0.1251
17389W        W34237   7.917   5.496  14.984  0.2525  0.4693 -0.3490
17390W        W34238  17.436  10.927   2.672  0.0540  0.1908 -0.0898
17391W        W34239  13.521   4.512   5.172  0.0619  0.1890  0.0439
17392W        W34240  11.021   0.144   0.774  0.1912  0.1261 -0.0360
17393W        W34241  13.547   7.762   5.564 -0.1086  0.1846  0.0204
17394W        W34242   8.303  15.091   1.556 -0.0241 -0.1444  0.1992
17395W        W34243   7.407  10.667  13.522  0.1155 -0.0977 -0.1170
17396W        W34244   9.966   2.871   1.472  0.0016  0.1475 -0.1224
17397W        W34245   7.936  14.899  12.605  0.3039  0.0342  0.0655
17398W        W34246   0.387  10.128  16.261 -0.0606 -0.1117  0.1006
17399W        W34247  10.164   1.303  16.106 -0.1129  0.1216 -0.0187
17400W        W34248   8.799  15.715   4.917  0.1776  0.0379  0.1377
17401W        W34249  12.268   0.725  15.051  0.0308  0.1634 -0.0172
17402W        W34250  13.304  15.307  16.314  0.2030 -0.0089 -0.3523
17403W        W34251   2.006  10.208   6.440 -0.1198  0.1755  0.2724
17404W        W34252  16.624   0.172  12.411 -0.1588  0.0322  0.1859
17405W        W34253  14.388   3.790   3.933 -0.2031  0.0296  0.1225
17406W        W34254   7.562   9.472   3.517 -0.0983  0.0573  0.0358
17407W        W34255  10.498  17.330  13.795  0.1615 -0.0193 -0.0009
17408W        W34256  12.303   9.687   1.828 -0.0506  0.0775 -0.3427
17409W        W34257   4.801   5.845   1.273 -0.1097  0.1718  0.0138
17410W        W34258   3.031   2.122   4.188  0.0891  0.1504 -0.2278
17411W        W34259   5.564   0.786   2.957  0.4696 -0.0559  0.3170
17412W        W34260   9.782   5.399   4.827  0.1520  0.2291  0.1141
17413W        W34261  13.240   3.973  11.304 -0.1339  0.1504  0.0823
17414W        W34262  15.194   1.048   0.696  0.1396 -0.2319  0.1442
17415W        W34263   1.792   5.437   4.643  0.1068 -0.1554 -0.3040
17416W        W34264  12.760  14.237  14.626 -0.1330 -0.0684  0.0843
17417W        W34265  10.882   8.105   4.279  0.0775 -0.0448 -0.2564
17418W        W34266  16.357   1.428  12.519 -0.1242 -0.3258  0.0725
17419W        W34267  10.347  13.103  12.073 -0.0691 -0.1928  0.1356
17420W        W34268   7.446   0.071   1.008 -0.3662 -0.2300  0.1835
17421W        W34269  13.405   2.097  12.804 -0.0822 -0.0622  0.3061
17422W        W34270   0.898  15.922   0.173 -0.0192 -0.1242  0.0037
17423W        W34271   9.443  10.747   4.570 -0.1469 -0.2454 -0.0253
17424W        W34272   9.184  16.535   5.030 -0.2983 -0.2031 -0.1042
17425W        W34273  16.559  17.455  15.779 -0.2037  0.1498  0.1874
17426W        W34274  15.072   8.968  12.880 -0.0610  0.1231  0.0419
17427W        W34275   0.619   2.213   2.524  0.1889  0.2748 -0.0321
17428W        W34276  12.481  11.230   1.641 -0.1732 -0.0376 -0.3002
17429W        W34277   5.471   6.103   1.659  0.2302  0.1789  0.0614
17430W        W34278  16.377  14.147  12.015  0.0247 -0.1232  0.2055
17431W        W34279  17.237  17.310  15.256  0.1738  0.0472 -0.1279
17432W        W34280   1.643  17.224   0.017  0.0687 -0.0567  0.3068
17433W        W34281   0.643  10.162  10.376  0.3999  0.0767  0.0760
17434W        W34282  10.820   2.330  14.975  0.1394 -0.1745  0.0208
17435W        W34283   1.163   0.791  16.227 -0.2910 -0.1491 -0.0107
17436W        W34284   3.688   7.968   1.947 -0.0741  0.0469 -0.3875
17437W        W34285  13.951   0.499  15.584 -0.2240  0.0979 -0.1500
17438W        W34286   5.038  16.270   4.685  0.0527 -0.0286 -0.2799
17439W        W34287  17.610  14.145  13.066 -0.0620  0.0525 -0.2031
17440W        W34288   6.716   5.831   2.321  0.0088  0.0760 -0.0667
17441W        W34289  11.160   0.513   4.995  0.1263  0.1597  0.0615
17442W        W34290  11.708   3.794   1.804  0.0164 -0.1405 -0.0178
17443W        W34291   6.966   3.421  13.333  0.2056 -0.1957  0.1790
17444W        W34292  12.819   3.786  13.603  0.0532  0.0062  0.3256
17445W        W34293   7.786  13.151   4.317 -0.3992  0.2396  0.0353
17446W        W34294   3.091   5.582   1.450  0.0962  0.0645  0.1280
17447W        W34295   5.245   8.485  16.195  0.0692  0.3115 -0.1823
17448W        W34296   0.432   1.862  14.115 -0.2905  0.2192 -0.0660
17449W        W34297   3.131  14.041  14.748  0.2166 -0.0116  0.0777
17450W        W34298   9.567   6.299   1.389  0.0061  0.0860 -0.1206
17451W        W34299   6.575   0.710   3.987 -0.1510  0.1033  0.0971
17452W        W34300  11.359   9.908  12.054  0.1330  0.1599  0.0544
17453W        W34301   8.951   4.197  11.735 -0.1393 -0.1923 -0.0018
17454W        W34302   4.443  10.951  14.549 -0.1021  0.4144  0.0738
17455W        W34303   8.113   9.883   2.431  0.0765  0.0578  0.0896
17456W        W34304   3.013   5.039  15.842 -0.2817  0.3238  0.1680
17457W        W34305   4.594  13.460  13.741  0.2564 -0.0739  0.0106
17458W        W34306   2.299  16.917   3.798 -0.0272 -0.0934  0.0454
17459W        W34307   4.861   9.570  14.105  0.2082  0.0973 -0.0954
17460W        W34308   6.875   5.099   3.717  0.0700 -0.0666  0.2913
17461W        W34309   6.810   6.754   2.692  0.0553 -0.2962  0.1480
17462W        W34310  13.021  14.858  13.930 -0.1046 -0.0688 -0.2209
17463W        W34311   3.957   0.770  14.129  0.0385  0.0963  0.1340
17464W        W34312   6.532   1.877  12.483 -0.2057  0.0493  0.1552
17465W        W34313   0.361  16.177   2.216 -0.1906  0.0892 -0.1651
17466W        W34314  16.505  12.839  15.919  0.0183 -0.1500  0.2203
17467W        W34315  10.147  17.399  11.691 -0.2548 -0.0574 -0.2557
17468W        W34316  16.153   6.780  10.723  0.0366  0.0161 -0.1840
17469W        W34317  14.101  11.938  16.289 -0.6192  0.0788  0.0959
17470W        W34318   7.944   8.444   1.135  0.0163  0.2804  0.0513
17471W        W34319   7.657   8.543  14.226 -0.2914 -0.0897  0.0916
17472W        W34320   3.903   9.315  14.438  0.0119  0.1341 -0.1128
17473W        W34321   6.926   4.491  13.127 -0.1164 -0.1795 -0.5344
17474W        W34322   4.596  14.213  13.150 -0.4301 -0.0021  0.0459
17475W        W34323  10.844  11.829   4.451  0.0872 -0.0554  0.0939
17476W        W34324  13.484  10.832  16.572  0.0491  0.0262  0.2242
17477W        W34325  15.480   5.346   2.605  0.0949  0.2749  0.1060
17478W        W34326  10.569   7.100   0.169  0.3354 -0.1843  0.3193
17479W        W34327  16.108  13.885   2.860  0.0693 -0.4439 -0.1550
17480W        W34328   2.961   5.553   5.626 -0.1483  0.4176  0.0897
17481W        W34329  15.263   9.689   0.415 -0.0983  0.0549  0.0862
17482W        W34330   6.744   0.213  11.418 -0.0339 -0.2320 -0.0878
17483W        W34331   2.625   0.185   3.550  0.1062 -0.0840 -0.3167
17484W        W34332   1.115  11.382   2.483  0.0011 -0.0152 -0.0675
17485W        W34333   1.638  13.481  12.233 -0.0180  0.1867  0.4159
17486W        W34334   1.805   5.752   4.277  0.1574  0.1370  0.1739
17487W        W34335   2.258  11.727   0.917 -0.0264 -0.3791  0.1152
17488W        W34336   6.150   2.420  11.748 -0.1044 -0.0225 -0.2850
17489W        W34337  13.403   0.200   1.847  0.1952  0.0353 -0.0297
17490W        W34338  12.873   8.495   0.860  0.2512 -0.0656 -0.0677
17491W        W34339   7.448   7.266  11.742  0.3823 -0.1117  0.2664
17492W        W34340  10.790   7.633   1.302 -0.0178 -0.2807  0.0905
17493W        W34341   5.761   7.144   1.770  0.0313 -0.0422 -0.3211
17494W        W34342  12.431   3.697  12.188  0.0078  0.1627  0.0390
17495W        W34343   9.587   9.064  12.186  0.1940 -0.2471 -0.2325
17496W        W34344   8.273  17.727  12.225  0.1771 -0.1460  0.0552
17497W        W34345   4.521   9.462   4.362 -0.3090  0.1197  0.1009
17498W        W34346   4.699   1.729  14.537  0.0229  0.1771  0.3227
17499W        W34347   2.683   3.371  11.829  0.0991 -0.0722  0.1312
17500W        W34348  13.858  14.760   6.024 -0.0677  0.1699 -0.0426
17501W        W34349   9.899   3.174  15.579 -0.0861  0.2070 -0.1980
17502W        W34350  17.467   3.818  12.653 -0.1400  0.1856  0.0939
17503W        W34351   5.187  10.352  15.621 -0.0334 -0.1275  0.0441
17504W        W34352   7.125   1.882  13.843 -0.1214  0.1470  0.2389
17505W        W34353   9.907   6.532   2.816 -0.0816 -0.0548  0.0237
17506W        W34354   2.789   4.251  15.021 -0.0384  0.0341 -0.0256
17507W        W34355   3.660   0.757  12.806  0.0286  0.2938  0.0149
17508W        W34356  16.935  12.708   4.505  0.2907  0.2996  0.2788
17509W        W34357   5.433   3.341  16.535 -0.1216 -0.0151 -0.0483
17510W        W34358  12.816  17.328  16.559 -0.1408  0.2124 -0.2433
17511W        W34359   7.128   7.773   1.242  0.0589  0.2319 -0.1222
17512W        W34360  17.699   2.035  16.615  0.2987 -0.0406  0.0275
17513W        W34361   3.230   8.865   1.282 -0.3076 -0.0157 -0.0342
17514W        W34362   6.125   3.925  13.102  0.1949  0.3054 -0.0876
17515W        W34363  17.217  16.638   3.767 -0.0295  0.0391  0.0080
17516W        W34364  13.077  10.652   3.423 -0.3078  0.1225 -0.1584
17517W        W34365   5.212   4.954  11.077  0.1722 -0.4816 -0.0696
17518W        W34366   4.964  14.568   4.670 -0.1082  0.1861  0.5232
17519W        W34367   4.078   0.185   5.020 -0.0855 -0.1289 -0.0888
17520W        W34368  16.815   5.035   1.284 -0.3652 -0.1290  0.1739
17521W        W34369   1.932  15.935   4.782 -0.1807 -0.2422 -0.0628
17522W        W34370  16.088  15.523  14.582  0.1248  0.1152  0.1281
17523W        W34371  15.825  13.264   4.753 -0.0056  0.2443  0.0328
17524W        W34372   6.197   2.715   3.640 -0.0161  0.0779 -0.0338
17525W        W34373  14.317  10.725  12.030  0.2621  0.0611 -0.1802
17526W        W34374  17.452   7.734   3.951 -0.4066 -0.0070 -0.0807
17527W        W34375   0.229  11.490   2.238 -0.1718 -0.0911 -0.0133
17528W        W34376   1.156   3.066  11.508  0.0513 -0.1880 -0.2203
17529W        W34377  13.095   9.835   1.176  0.0770  0.2123 -0.0093
17530W        W34378   3.830  17.345  13.002  0.1101  0.0757 -0.0119
17531W        W34379   9.119   8.796  16.451 -0.1623 -0.2473 -0.3493
17532W        W34380   3.009  12.118   0.490 -0.2066  0.2404 -0.2947
17533W        W34381  11.344   1.789  13.766 -0.1695  0.1805  0.2517
17534W        W34382  10.456   4.829  14.781 -0.0922 -0.4382 -0.3539
17535W        W34383  17.284   1.389  12.721 -0.0613  0.1037  0.1874
17536W        W34384  15.682   9.431   2.502 -0.4608  0.3881 -0.0132
17537W        W34385   4.559   5.267  13.426  0.0892 -0.1780  0.4775
17538W        W34386  13.781  15.866   5.049  0.2166 -0.0681  0.1228
17539W        W34387   6.494  17.230   0.273  0.0036 -0.1455  0.2695
17540W        W34388  10.329  16.765   3.207  0.4053 -0.0278  0.2144
17541W        W34389  16.802   0.148   5.009  0.0790 -0.0890 -0.0212
17542W        W34390  14.868  17.063   3.645  0.0084 -0.0322  0.1523
17543W        W34391   8.826  14.265   3.736 -0.0225  0.0290 -0.1838
17544W        W34392  11.556  16.792  14.088  0.0543 -0.2274 -0.2680
17545W        W34393   9.127  12.179   2.345 -0.2250 -0.1066 -0.1227
17546W        W34394   7.710   4.048   4.574 -0.1672 -0.0089 -0.0906
17547W        W34395   9.594  14.421   0.606  0.2707  0.0208  0.2719
17548W        W34396  14.617   9.991   0.350  0.4632 -0.1328 -0.1109
17549W        W34397  11.383  12.601   1.189 -0.0625 -0.3161 -0.0827
17550W        W34398   1.664   0.890  15.106  0.0491  0.1933  0.2496
17551W        W34399   8.488   8.962  11.087  0.1656  0.0444  0.0287
17552W        W34400   7.175   9.707   4.438  0.0159  0.0277 -0.1100
17553W        W34401   6.360   6.073  13.981 -0.1762 -0.0576  0.1347
17554W        W34402  14.218   1.864   1.321 -0.1633  0.1221  0.3922
17555W        W34403   6.963   8.692   1.125  0.1241  0.1745 -0.1903
17556W        W34404   4.904  15.318  14.196 -0.0006  0.0851  0.2051
17557W        W34405  14.905   8.370  16.363 -0.1725 -0.1680 -0.0404
17558W        W34406   4.141   1.249  14.459 -0.0208  0.0667 -0.0757
17559W        W34407  12.174   9.624  11.879 -0.2140 -0.2176  0.3155
17560W        W34408   4.821   8.707   2.112  0.2727  0.0450 -0.3248
17561W        W34409   6.457   4.317  13.342 -0.3222  0.0833  0.1473
17562W        W34410   2.386  13.508  15.226  0.1708  0.0223 -0.2087
17563W        W34411   9.689   2.925   6.148  0.0309  0.2176  0.3576
17564W        W34412  12.285   1.837  13.611 -0.3756  0.0353 -0.1514
17565W        W34413  17.717  12.149  15.383 -0.1429 -0.0605  0.1105
17566W        W34414   8.702  16.429  13.566  0.1116  0.0324  0.2137
17567W        W34415   8.691  12.540   5.494  0.1515  0.0605  0.2595
17568W        W34416   0.137   4.333  14.307 -0.1868 -0.2470 -0.0127
17569W        W34417  15.675  14.619  16.146  0.0515  0.0847 -0.1796
17570W        W34418  13.244  13.913  11.555  0.1768 -0.0290 -0.2010
17571W        W34419  16.648   3.766   3.899  0.2490  0.0332  0.2061
17572W        W34420  13.609   6.399  15.804  0.1011 -0.1857 -0.1520
17573W        W34421   6.823  13.863   3.549 -0.0680 -0.2427  0.0561
17574W        W34422   1.149  10.642   0.345  0.0580  0.1257 -0.3783
17575W        W34423  14.131  16.588   2.854 -0.1627  0.0406  0.2408
17576W        W34424   0.086   8.987   0.356 -0.0826  0.5250  0.2586
17577W        W34425   0.989  17.422  10.782 -0.2487 -0.1602  0.1378
17578W        W34426   4.187   2.067  14.096  0.3087 -0.1406  0.0247
17579W        W34427   6.847  15.509  13.216  0.1702 -0.2871 -0.3492
17580W        W34428  12.390   6.170  16.369  0.3126  0.0764 -0.1112
17581W        W34429   5.768   6.508  10.855  0.0726  0.1631  0.0385
17582W        W34430  14.486  13.467  16.576 -0.1968 -0.4197 -0.1022
17583W        W34431  15.838   4.034   2.167  0.1937  0.2535  0.1213
17584W        W34432  16.150  15.611   4.054 -0.0546 -0.2786 -0.1926
17585W        W34433  16.717   8.345  16.288  0.0439  0.0424 -0.0896
17586W        W34434  12.946  10.073   5.113 -0.0790 -0.0230  0.0795
17587W        W34435  14.680   6.476   3.539  0.1013  0.0381  0.0716
17588W        W34436   6.624  15.871  11.811  0.1326  0.2522  0.0599
17589W        W34437   9.865   0.725  15.973 -0.2686 -0.0072  0.1627
17590W        W34438  17.622   0.981   2.923  0.2289  0.0851  0.0444
17591W        W34439   3.495  13.207   3.595  0.1784 -0.1181 -0.1118
17592W        W34440   7.978  17.753  15.696  0.0111 -0.1016 -0.1333
17593W        W34441  14.069  11.945  12.437 -0.0398  0.4084 -0.0631
17594W        W34442  15.889  17.757  11.131  0.2794  0.1250 -0.0529
17595W        W34443  15.094  11.238   1.938 -0.2565  0.0076  0.2026
17596W        W34444   4.694  13.702  12.298 -0.1356  0.1285 -0.0097
17597W        W34445   6.330   9.868   2.241 -0.1096 -0.2283  0.0310
17598W        W34446  12.257  11.200  15.986 -0.0278  0.0848 -0.1376
17599W        W34447  15.130  14.533  13.562 -0.1991 -0.2096 -0.1837
17600W        W34448  10.035  12.484   2.895  0.1037 -0.1567  0.1335
17601W        W34449  11.216   9.398  13.585 -0.1087  0.0519  0.0839
17602W        W34450   8.919   0.655   2.291  0.0925 -0.3822 -0.2170
17603W        W34451   0.646  17.605   4.942 -0.0399  0.1420 -0.0391
17604W        W34452   0.607   7.828   3.092  0.1108 -0.2821  0.1983
17605W        W34453   3.817  14.104  16.528  0.2455 -0.1696 -0.0665
17606W        W34454  15.820   4.692   4.668  0.2341 -0.2012  0.0330
17607W        W34455  14.706   0.891   2.079  0.0832  0.2888  0.2854
17608W        W34456  13.221   1.033  12.780 -0.1006  0.3837  0.2648
17609W        W34457  17.298  15.175   3.277  0.0927  0.2768 -0.0007
17610W        W34458   3.910   9.905   5.455  0.1532 -0.0161  0.1098
17611W        W34459  17.751   0.720  12.882 -0.0736 -0.0760 -0.5437
17612W        W34460   5.789  11.123  12.331  0.2993  0.0766 -0.2054
17613W        W34461   1.359   0.404  15.014  0.2005 -0.1197 -0.2451
17614W        W34462   2.069   6.285  16.351  0.1719 -0.2802  0.2024
17615W        W34463  12.083   5.981   3.933 -0.0149  0.1260 -0.0030
17616W        W34464  15.359  12.903   3.788 -0.0103 -0.2067  0.1077
17617W        W34465  13.807  11.876   2.262 -0.1346 -0.0703 -0.3700
17618W        W34466  14.583   2.525  12.851 -0.3713  0.1737  0.1648
17619W        W34467  14.074   1.968   5.922 -0.0046 -0.2220  0.3292
17620W        W34468   5.643  11.772   3.628  0.1113 -0.2452  0.0529
17621W        W34469  17.492   4.883   3.391 -0.0959 -0.1404 -0.1139
17622W        W34470   4.400  10.236   0.341 -0.0606 -0.3427 -0.2283
17623W        W34471   2.795   0.617   2.323 -0.0932 -0.2829 -0.1485
17624W        W34472   2.580   1.636   3.666  0.0116 -0.0166  0.2486
17625W        W34473  12.637  13.815   3.566 -0.1456 -0.0611 -0.1769
17626W        W34474   6.609   6.308   2.496 -0.0978 -0.0060 -0.0042
17627W        W34475   8.736  14.507  12.283  0.0952 -0.0818  0.2919
17628W        W34476   1.527  16.431   0.615  0.0514 -0.1661  0.0370
17629W        W34477  16.292   6.508   4.414 -0.0863 -0.1608  0.0889
17630W        W34478   8.675   4.004   2.834 -0.0071 -0.2042 -0.0659
17631W        W34479   3.392  17.792  16.079  0.2181 -0.0735 -0.0289
17632W        W34480   9.822   3.682   5.878  0.1816 -0.1537  0.0791
17633W        W34481   1.857  16.849  14.540  0.1505 -0.0255 -0.0685
17634W        W34482   9.891   9.306  15.450  0.3438 -0.2380  0.1624
17635W        W34483   8.538   4.765   4.864  0.2499 -0.1382  0.2349
17636W        W34484  11.306  11.216  12.338 -0.1213  0.3154  0.1910
17637W        W34485   5.847   9.190   4.051  0.2358 -0.1107  0.2382
17638W        W34486   5.683  13.828  13.054  0.1883 -0.0737 -0.2229
17639W        W34487   1.661  17.674   4.050  0.1975  0.1615 -0.1673
17640W        W34488  17.382  15.145  12.501 -0.0730  0.0127 -0.1827
17641W        W34489   6.748   4.535   1.715 -0.2000 -0.1779 -0.2916
17642W        W34490   5.496   4.744  15.766  0.1523  0.2292  0.1615
17643W        W34491   4.544   3.016  14.603 -0.1448 -0.0048 -0.3772
17644W        W34492   3.693  10.259  16.588 -0.0527  0.3940  0.3501
17645W        W34493   6.477   0.806   3.194 -0.1525 -0.2130  0.2860
17646W        W34494  17.226   7.257   0.649  0.0747  0.2193 -0.1282
17647W        W34495   3.672  10.448  12.279  0.0893 -0.1807 -0.0542
17648W        W34496   7.580   2.081  14.745  0.2919  0.0002  0.0471
17649W        W34497  11.279   5.185   4.593  0.1376 -0.2869  0.0797
17650W        W34498  13.339  10.371  12.163  0.1287  0.1497 -0.0937
17651W        W34499  17.148  11.299   4.019 -0.1137 -0.2003 -0.0351
17652W        W34500  16.982  13.292   1.910  0.0939  0.1714 -0.1508
17653W        W34501   2.060   2.144   6.444  0.2053 -0.1533  0.1724
17654W        W34502   0.400   3.853  14.287 -0.0339  0.1594 -0.1012
17655W        W34503  15.874   8.667   3.522  0.4874 -0.1888 -0.0935
17656W        W34504  11.510   7.040  13.876 -0.1622  0.3495 -0.0900
17657W        W34505   5.514   3.208   2.984 -0.4483  0.1506  0.3604
17658W        W34506  14.868   2.458   2.746  0.1644  0.2476  0.0434
17659W        W34507   1.291  11.043  14.501  0.0878 -0.1426  0.3493
17660W        W34508  12.066   9.489   2.247  0.1157 -0.1723  0.1725
17661W        W34509  15.663  14.193  11.751  0.0726  0.2785  0.0659
17662W        W34510  14.399  15.393  13.876  0.0684 -0.1932 -0.0691
17663W        W34511   0.117   5.471  11.630 -0.2563 -0.1130  0.0963
17664W        W34512  14.756   0.981   4.997 -0.1280  0.0480 -0.0793
17665W        W34513   2.868  10.248   4.103  0.0909 -0.0939  0.2719
17666W        W34514   8.741  10.447  12.363 -0.0639  0.1864  0.0668
17667W        W34515   5.876   3.016  10.585  0.1866 -0.1406 -0.0233
17668W        W34516  14.748  11.687   2.167 -0.0743 -0.1307  0.1695
17669W        W34517  16.309  10.714   3.364 -0.0266 -0.1932  0.1750
17670W        W34518   3.193  15.704  12.674 -0.1102  0.2535  0.4852
17671W        W34519   3.111  16.922  14.051 -0.3390  0.0980 -0.0454
17672W        W34520   3.361  15.209   5.379 -0.3519 -0.1659  0.2539
17673W        W34521   0.045  17.293   4.269 -0.1427  0.0759 -0.0072
17674W        W34522   8.146   1.979  13.163 -0.0313  0.0375 -0.0468
17675W        W34523   5.029  16.284  12.148 -0.0204  0.0729 -0.3624
17676W        W34524  14.943   3.284   0.841 -0.0329 -0.2805 -0.0398
17677W        W34525  14.939   6.109   1.168 -0.2349  0.2965 -0.2396
17678W        W34526  17.070   9.561   2.097 -0.1714  0.2492 -0.0312
17679W        W34527  10.580  14.468   4.509  0.1048  0.6243 -0.0679
17680W        W34528   1.420   0.014   5.396  0.5112 -0.6076 -0.0789
17681W        W34529  11.874  11.900   5.075  0.3619 -0.2001  0.0140
17682W        W34530   9.409   7.438  11.820 -0.2735  0.0046  0.0965
17683W        W34531  17.053   2.975   4.837  0.1393 -0.1478  0.1883
17684W        W34532  15.905   2.386  11.827 -0.1193 -0.2321  0.3393
17685W        W34533   5.562   3.652   4.720 -0.0055 -0.0176 -0.2226
17686W        W34534  10.088   5.118   3.636 -0.1347  0.0855  0.1144
17687W        W34535   5.083  10.571   0.237  0.1703  0.3210 -0.3103
17688W        W34536   5.885   6.935   1.245 -0.1545  0.4221 -0.0311
17689W        W34537   6.430  13.531  10.712  0.0419  0.1674  0.0372
17690W        W34538   7.821   6.199   3.583 -0.3237  0.1073  0.5435
17691W        W34539  16.278   7.726  15.579 -0.3278 -0.2819  0.0171
17692W        W34540  17.469   9.771   0.176 -0.2221 -0.1198 -0.0493
17693W        W34541  12.479   0.326  15.421  0.0814 -0.0741 -0.1647
17694W        W34542   9.053  13.840  14.544 -0.3114  0.2085 -0.1185
17695W        W34543   9.018   9.163   4.015 -0.1194 -0.1967 -0.1634
17696W        W34544  10.853  11.081   0.857 -0.0145 -0.2537  0.0922
17697W        W34545  12.216   5.864   3.470 -0.1413 -0.0890 -0.0812
17698W        W34546   9.275   8.590   2.703  0.6835 -0.1160 -0.1993
17699W        W34547   8.024   8.750  11.178  0.1716 -0.2539  0.1777
17700W        W34548   8.346   2.437   1.990  0.0165  0.1945  0.1512
17701W        W34549  17.247  12.603   1.376 -0.2754 -0.0736 -0.2838
17702W        W34550  11.717   8.913   2.821  0.3873 -0.1942 -0.2534
17703W        W34551   1.372   1.243   4.547  0.4522 -0.0386  0.0215
17704W        W34552   0.584  16.039  11.338 -0.1223  0.3456  0.1083
17705W        W34553   5.807   3.591   2.518 -0.0189  0.0870 -0.0352
17706W        W34554  17.461  15.800   3.138 -0.1509 -0.3383 -0.0380
17707W        W34555   4.435   0.221   2.557  0.0804 -0.3744  0.0964
17708W        W34556   7.924   0.113  16.176  0.0560  0.1766 -0.0610
17709W        W34557   7.358   9.977   2.187  0.0268 -0.4528  0.3409
17710W        W34558   7.077   6.877   0.763  0.0493  0.2016 -0.1087
17711W        W34559   4.068  10.798  14.108 -0.2210 -0.0172 -0.1153
17712W        W34560   8.912   1.662   1.128 -0.1317  0.0229 -0.3946
17713W        W34561  10.249   1.526  11.715 -0.4994 -0.0338  0.1098
17714W        W34562   2.121   0.479  15.524 -0.0137 -0.1410 -0.0870
17715W        W34563   4.669   8.491   4.663  0.4013  0.2588 -0.2774
17716W        W34564  15.646  14.694   3.737 -0.2802 -0.0809  0.0709
17717W        W34565   8.721   8.859  15.133 -0.1532 -0.0082 -0.0310
17718W        W34566  15.279  12.321  13.316  0.1422 -0.0813 -0.1615
17719W        W34567   3.866  13.969  13.416 -0.1073 -0.0270 -0.1405
17720W        W34568   9.364  15.327  14.947 -0.0707  0.0623  0.2861
17721W        W34569  17.452   1.534  15.378  0.0465 -0.0743  0.1602
17722W        W34570   1.910  15.731  13.668  0.3399  0.1871  0.1921
17723W        W34571  13.651   4.865  15.652 -0.2209  0.2146 -0.1257
17724W        W34572  10.715  14.221   5.355 -0.1157  0.1430 -0.4033
17725W        W34573   7.514   7.108  13.094  0.0773 -0.2711  0.0725
17726W        W34574   8.319   7.422   0.521 -0.3214  0.1888 -0.0537
17727W        W34575   5.093   6.241  14.350  0.0948  0.0774 -0.0947
17728W        W34576   7.520   9.232   4.058  0.3569 -0.1320  0.0952
17729W        W34577   8.612   7.915   2.968  0.0766  0.0258  0.2369
17730W        W34578   1.037  17.841  13.975  0.1737 -0.0272  0.0390
17731W        W34579  16.069   5.092  16.204  0.0745  0.0252  0.2783
17732W        W34580   0.123   1.108   2.643 -0.2048 -0.0739  0.4675
17733W        W34581   7.640   5.669  13.179 -0.1285 -0.4964 -0.1175
17734W        W34582   5.522   7.444   2.695 -0.2209 -0.1843  0.4445
17735W        W34583   7.499   0.993  15.954 -0.1133 -0.1145  0.0833
17736W        W34584   2.305   1.503  11.427 -0.2591  0.0336  0.0316
17737W        W34585   1.576  14.773   4.353  0.0025 -0.0224 -0.1215
17738W        W34586  12.053   2.085  15.462 -0.0230  0.0471  0.0046
17739W        W34587   8.613   7.671  14.993 -0.1387  0.1724  0.0026
17740W        W34588   2.032  10.284  15.091 -0.2634  0.1895  0.0189
17741W        W34589  14.724  11.476   1.625  0.0462  0.2352  0.0046
17742W        W34590  12.154  10.889   0.876 -0.0380  0.0770 -0.0472
17743W        W34591  16.310  13.829   0.528  0.0117  0.1119 -0.2430
17744W        W34592   3.198   9.929   4.268 -0.1957  0.1181  0.0843
17745W        W34593  10.494  10.963  15.853  0.1960 -0.2534  0.1595
17746W        W34594   4.983  10.474   4.037  0.0555  0.1786 -0.0132
17747W        W34595   1.321   7.578   0.700  0.3182  0.0821  0.2253
17748W        W34596  15.057   3.560  14.380  0.7907  0.2148 -0.0625
17749W        W34597  17.283   5.977   3.184 -0.1711  0.0421 -0.1466
17750W        W34598  14.897   2.462   4.897 -0.0986 -0.3574 -0.1376
17751W        W34599  14.870   6.595   2.328  0.2375  0.1430 -0.0565
17752W        W34600   3.225  13.018   1.238  0.1703 -0.2687 -0.3388
17753W        W34601   7.572  11.822   4.491  0.2122 -0.1756  0.1305
17754W        W34602  16.605   8.411   0.487 -0.2805 -0.0687  0.0468
17755W        W34603  17.243  11.032   0.457  0.0531 -0.1172  0.1824
17756W        W34604   5.345   2.027  11.020  0.1237 -0.2779  0.1811
17757W        W34605   3.410   7.384   5.247  0.0894  0.0094  0.1727
17758W        W34606   6.461   9.321  13.028 -0.1276 -0.3875  0.0104
17759W        W34607   4.758  15.812  13.892  0.0855 -0.0595  0.1349
17760W        W34608  15.085   7.932   5.083 -0.0433 -0.0179 -0.1475
17761W        W34609  15.230   9.355   1.238 -0.0500 -0.0320  0.3619
17762W        W34610  13.019  10.802   4.561 -0.0717  0.0275 -0.2853
17763W        W34611   4.533  10.625  13.397 -0.2582  0.0693 -0.0947
17764W        W34612  13.901   5.965  10.945 -0.1245 -0.0625 -0.0828
17765W        W34613  10.810  11.471  14.475 -0.2088 -0.0851  0.0882
17766W        W34614   6.506   0.016  16.058 -0.2849  0.0301  0.1529
17767W        W34615   0.474  13.685   4.960  0.1772  0.1003 -0.0913
17768W        W34616   3.420   0.772   2.455 -0.1325 -0.2092  0.1789
17769W        W34617   6.421  17.026  13.703 -0.1719  0.0596  0.1937
17770W        W34618   9.600  16.229  14.502 -0.2264 -0.0695 -0.0230
17771W        W34619  16.109   7.144   2.235 -0.3830  0.1815 -0.2366
17772W        W34620   5.905  14.298  14.439  0.1792  0.0735 -0.2856
17773W        W34621   0.847  12.736  12.121 -0.0039  0.2085  0.0142
17774W        W34622   8.701  17.631  14.209  0.1465  0.0650 -0.2849
17775W        W34623   4.587   9.443  14.854  0.0404  0.0820 -0.1872
17776W        W34624   4.253   6.902   1.634  0.1823 -0.0376  0.0803
17777W        W34625   1.018  14.724   6.245 -0.0276 -0.1578 -0.2892
17778W        W34626  13.103  10.819  15.716  0.1055 -0.0064  0.0423
17779W        W34627  16.603   5.740  16.490  0.2109 -0.1521  0.0758
17780W        W34628   2.951  13.798  13.310  0.3253  0.0632 -0.0610
17781W        W34629   8.392   1.010  10.865  0.2649  0.0425 -0.2241
17782W        W34630   2.679  10.842  13.995  0.2622 -0.0328 -0.4054
17783W        W34631   9.699   5.394   3.242 -0.0806 -0.1039  0.2605
17784W        W34632  13.026  13.115   0.399 -0.0991  0.1444  0.1612
17785W        W34633  13.389   2.915  14.703 -0.0962  0.1117  0.0563
17786W        W34634   9.922  15.879   3.427  0.2000 -0.0827  0.1626
17787W        W34635   4.582   4.841   0.117  0.0483 -0.0329  0.3266
17788W        W34636   7.024   0.726  13.605  0.0298 -0.4527  0.0932
17789W        W34637   5.896   5.657  14.090 -0.1617  0.2602 -0.0731
17790W        W34638  17.365  16.163  14.479 -0.1522  0.1425 -0.1699
17791W        W34639  11.774  13.008  14.749 -0.3411 -0.0461 -0.1923
17792W        W34640   3.171   4.774  12.203  0.0470  0.1371  0.2142
17793W        W34641  11.723  13.226   4.075  0.2794  0.2433  0.1956
17794W        W34642  12.197  11.933  12.473  0.0747 -0.3779  0.0839
17795W        W34643   6.480   6.836  15.208 -0.0591  0.1800 -0.2726
17796W        W34644  16.577  13.347  12.639  0.2452 -0.0991  0.0202
17797W        W34645  16.335  11.221   0.980  0.2100 -0.0579 -0.1473
17798W        W34646  16.521   2.765   4.685 -0.3019  0.0724 -0.3054
17799W        W34647  15.153  15.345  15.037  0.0207  0.0934 -0.1363
17800W        W34648  11.715   5.029  11.893 -0.0151 -0.0333 -0.0590
17801W        W34649  14.101  15.624  14.393 -0.0454 -0.3377  0.2333
17802W        W34650  14.578   9.413  12.367  0.0822 -0.1855 -0.1142
17803W        W34651  11.844   7.286   1.341  0.0929 -0.1204 -0.2225
17804W        W34652   0.867   9.361   1.181 -0.1096  0.2961 -0.0437
17805W        W34653  14.044   0.544   4.532 -0.0386  0.2111 -0.0272
17806W        W34654   1.345  13.677   0.638 -0.3489 -0.0200  0.0727
17807W        W34655   8.275  10.823   1.797  0.1548  0.2980  0.1685
17808W        W34656   1.802   5.554  12.626  0.0100 -0.0551  0.1852
17809W        W34657   5.118   9.201  15.074  0.2911 -0.2679 -0.0607
17810W        W34658  13.374  10.945  12.145 -0.0548 -0.0840  0.0547
17811W        W34659  14.604   1.202   5.504 -0.1478  0.0634  0.1058
17812W        W34660   4.670   7.671   2.108 -0.1974 -0.1712  0.1077
17813W        W34661  16.438   4.543   2.483 -0.0473 -0.1415  0.0615
17814W        W34662  16.387  14.825   3.149  0.0466  0.2485 -0.1266
17815W        W34663  13.882   6.166   6.123  0.1286  0.1025  0.1459
17816W        W34664  10.846   2.978  10.749  0.0183  0.0262  0.1318
17817W        W34665  10.464  10.133  12.069 -0.2932 -0.2883 -0.1844
17818W        W34666   4.785  10.060  14.040  0.1274 -0.2966 -0.1653
17819W        W34667  16.305   9.112  16.111 -0.1539 -0.0737 -0.0764
17820W        W34668  16.791  15.430  11.619  0.1971  0.1339 -0.2494
17821W        W34669  15.368   5.967  13.073  0.3530 -0.1046  0.2440
17822W        W34670   5.633   1.955  10.522  0.1852 -0.1076 -0.0157
17823W        W34671  10.192  14.218  16.044  0.3111  0.0071  0.0920
17824W        W34672  11.800   9.214   0.623  0.2223 -0.0139  0.0926
17825W        W34673   0.422  13.516   1.173  0.2681  0.2308  0.4122
17826W        W34674   2.571  15.422   5.237 -0.0493 -0.0109  0.0110
17827W        W34675   5.607  15.550  12.253 -0.0667  0.1854  0.0238
17828W        W34676   0.561  13.104  14.921 -0.3971 -0.1914  0.2858
17829W        W34677   2.407  11.290   0.610  0.0790 -0.0481 -0.1422
17830W        W34678  10.384  12.512   2.130  0.0973 -0.1164 -0.1049
17831W        W34679  12.070   1.444   0.675  0.2284 -0.2142  0.0820
17832W        W34680   5.475   8.217   3.750 -0.4309 -0.1774 -0.0317
17833W        W34681  17.615  12.950  11.570 -0.0402  0.0823 -0.1016
17834W        W34682  13.794   9.606  12.645  0.3930 -0.0700 -0.1290
17835W        W34683   1.596   8.303   0.206  0.2448  0.0765 -0.1009
17836W        W34684   2.603  15.055  16.147 -0.0598 -0.1600  0.1366
17837W        W34685  11.233   0.563  16.589  0.1627  0.0346 -0.0615
17838W        W34686  17.055   2.743   3.120 -0.1602  0.1469 -0.0449
17839W        W34687   5.762  10.370   4.071 -0.1068 -0.0017  0.3368
17840W        W34688   2.210  11.416   2.996  0.2676 -0.0805  0.0233
17841W        W34689   7.525   0.538  12.112 -0.2472 -0.0645  0.0075
17842W        W34690  12.617   5.378   1.186  0.0817 -0.2255 -0.0501
17843W        W34691   0.009   3.874   1.193 -0.3748 -0.0134  0.4275
17844W        W34692  16.329   8.822  14.713  0.0651  0.0791  0.0561
17845W        W34693   5.550  12.554   4.351 -0.0728  0.0395  0.0840
17846W        W34694  14.086   7.176   2.814  0.1549 -0.0849 -0.1215
17847W        W34695   0.147   4.374   0.069  0.0042  0.0670  0.0496
17848W        W34696   7.380   1.349  16.251 -0.2299  0.0793  0.2012
17849W        W34697   6.532  15.641   0.047 -0.2525  0.0195 -0.0322
17850W        W34698   4.304   3.529   1.265  0.1901 -0.2206 -0.1827
17851W        W34699  14.316  16.794   1.555  0.0823  0.3937  0.0438
17852W        W34700  14.727   1.002  13.358  0.0018  0.0377  0.0465
17853W        W34701  12.742  10.546   5.113  0.0913 -0.1038 -0.0408
17854W        W34702   5.301  14.573   4.128  0.0882 -0.1837 -0.0204
17855W        W34703   6.369   8.596  12.454 -0.0801  0.0210  0.0639
17856W        W34704   8.788   5.220   2.329 -0.1747 -0.3954  0.1621
17857W        W34705  17.472   1.778   5.684 -0.0147 -0.1534  0.1297
17858W        W34706   7.051   8.626  13.928 -0.0498 -0.1573 -0.1278
17859W        W34707   8.288  13.851  13.437 -0.3012  0.1332  0.0191
17860W        W34708   3.373   7.768   4.731  0.2079 -0.0301  0.1551
17861W        W34709   6.618  13.393  16.181  0.0565  0.1822 -0.0293
17862W        W34710   1.807   7.665  15.962  0.2966  0.0791 -0.0864
17863W        W34711   9.747  15.057  16.419  0.1228 -0.0332 -0.1884
17864W        W34712   5.708   2.192  12.333 -0.1150 -0.0691 -0.2241
17865W        W34713   5.618  15.733   2.366  0.0205  0.1217 -0.0678
17866W        W34714   2.633  14.517   5.279 -0.0121 -0.1183 -0.2775
17867W        W34715   3.659  10.999   2.921  0.2990 -0.0044 -0.0460
17868W        W34716  14.933   5.104   6.218 -0.3570 -0.0892 -0.0698
17869W        W34717   1.955   0.494   4.338  0.1143  0.1019  0.1458
17870W        W34718   7.055   5.143  11.466 -0.1657  0.0313 -0.0726
17871W        W34719  12.005  13.855   4.460  0.0331 -0.0783 -0.1566
17872W        W34720   6.762   5.009  14.533  0.1294 -0.5953  0.5598
17873W        W34721   2.067   1.616  16.479  0.0158  0.1118 -0.2840
17874W        W34722   9.482   0.353   1.647 -0.0596  0.2051  0.0639
17875W        W34723  15.914   1.505  13.575 -0.0938  0.0209  0.0198
17876W        W34724  15.728   1.171   1.717 -0.1220 -0.1652  0.5202
17877W        W34725   5.274  16.877   3.457 -0.0807  0.0615 -0.0814
17878W        W34726  15.760   7.227  16.234 -0.3281 -0.1315 -0.4735
17879W        W34727   1.915   8.499   2.504 -0.1535 -0.0997 -0.2411
17880W        W34728   6.677  17.115  15.415  0.1578 -0.3120  0.2164
17881W        W34729   4.923   6.964   4.332 -0.0451 -0.1966 -0.0654
17882W        W34730  13.111   8.561  15.677  0.0500 -0.4221 -0.1488
17883W        W34731   5.876   1.787   2.233  0.3748  0.0223 -0.2048
17884W        W34732  13.187   7.056  13.300 -0.0668  0.1106 -0.1846
17885W        W34733  17.575  15.889   2.526 -0.0550 -0.3882  0.0735
17886W        W34734   8.802  16.778   4.821  0.3712 -0.4544 -0.1688
17887W        W34735   3.024   0.415   4.470  0.0031  0.2490  0.1604
17888W        W34736  12.024  17.469  13.613 -0.1838 -0.2150  0.1828
17889W        W34737   1.644  14.019   2.198 -0.2542  0.1519 -0.0352
17890W        W34738   3.716   0.598  12.284  0.1145  0.4741 -0.1125
17891W        W34739  14.165   6.817   1.549 -0.0291  0.1817 -0.2108
17892W        W34740  11.085  10.284   0.782  0.0019 -0.2034 -0.0173
17893W        W34741   6.963  16.794   1.357  0.1538  0.1313  0.2391
17894W        W34742  10.871  15.462   4.895 -0.2734 -0.2809  0.3238
17895W        W34743   5.641   5.231  11.940  0.0283 -0.0767 -0.0971
17896W        W34744   7.596  16.585  16.267 -0.1508  0.0958  0.1633
17897W        W34745  13.724  10.642   2.509 -0.1876 -0.1077  0.0123
17898W        W34746   6.788   1.798   2.373  0.1911  0.0421 -0.0829
17899W        W34747   6.845   3.235  15.160 -0.1533 -0.0339  0.0958
17900W        W34748   9.843   8.621  13.145  0.0979 -0.1340  0.2339
17901W        W34749   1.319   5.237   2.032 -0.0319 -0.0202  0.2356
17902W        W34750   1.585  11.383  12.686  0.0306 -0.2165  0.1273
17903W        W34751  12.034  16.678  16.215 -0.0974  0.0449  0.1126
17904W        W34752  15.760  14.296  12.805  0.0096 -0.2265  0.0055
17905W        W34753   4.409   1.191   5.024 -0.1000  0.1216  0.1285
17906W        W34754  15.388   5.740  13.576 -0.2701 -0.2317  0.1875
17907W        W34755   7.753   6.816  11.736  0.0408 -0.2259 -0.0878
17908W        W34756   8.520   0.174   3.074  0.2000  0.0233 -0.2320
17909W        W34757   9.663  10.945   5.197 -0.1039  0.2751 -0.1849
17910W        W34758   0.266  15.170  16.456  0.0504  0.0702  0.1583
17911W        W34759  17.696   9.550   1.984  0.0657  0.2124  0.1253
17912W        W34760   9.171  17.745  13.764 -0.2574  0.0212 -0.0648
17913W        W34761   9.684  10.040  13.677  0.0054 -0.1121  0.0845
17914W        W34762  12.052  12.312  12.795  0.2263 -0.1196  0.2673
17915W        W34763  15.531  14.090   6.267  0.0489  0.0110  0.2405
17916W        W34764  17.167  17.835   3.736  0.0530  0.2896 -0.0723
17917W        W34765  16.634  15.142  12.010 -0.0812 -0.0080  0.0004
17918W        W34766  11.448  16.902  12.230  0.2072  0.3147  0.1240
17919W        W34767  15.109   0.822   3.291  0.2007 -0.1167 -0.0759
17920W        W34768   7.856  17.319  14.416 -0.0815  0.0845  0.3363
17921W        W34769   5.884  10.729  14.350  0.1062 -0.0708 -0.1429
17922W        W34770   9.496  12.114  13.845 -0.1750 -0.0241 -0.4818
17923W        W34771   1.352   0.359  11.025  0.1637 -0.1956 -0.2083
17924W        W34772   9.616   3.187  11.052  0.1191  0.0164 -0.0799
17925W        W34773  14.917   6.776  11.825  0.0529  0.1177 -0.1044
17926W        W34774   7.749  11.779  13.065  0.0025 -0.0964 -0.3719
17927W        W34775  11.009   9.016   0.465 -0.2764  0.1907  0.1836
17928W        W34776   6.521   5.463   1.360 -0.0776 -0.1443  0.0277
17929W        W34777  11.304   7.446  14.982  0.0165  0.0287  0.0309
17930W        W34778   2.404   7.646   2.643 -0.1481 -0.2058 -0.2220
17931W        W34779   2.827   3.244   0.159  0.0694 -0.3268  0.0620
17932W        W34780   8.640  15.556  14.177  0.2044 -0.2838  0.2320
17933W        W34781  12.542   3.602   4.454  0.0368  0.0416 -0.0876
17934W        W34782  11.591  15.194  11.041 -0.1313 -0.1577  0.1820
17935W        W34783   0.388  14.797  11.492  0.0834  0.2674  0.0644
17936W        W34784  15.851   0.029   2.443 -0.2955 -0.2439 -0.1967
17937W        W34785   7.509   7.957  12.172  0.1025 -0.0405 -0.2123
17938W        W34786  14.981  15.652  14.663  0.0837  0.0081 -0.0722
17939W        W34787   6.564  11.416   3.638 -0.0290  0.1261 -0.1921
17940W        W34788  14.026  17.715   1.154 -0.1904  0.1134  0.0494
17941W        W34789   9.026   5.768  12.950 -0.1536  0.1718  0.0080
17942W        W34790   8.649  13.521  12.602  0.0110  0.1316 -0.2709
17943W        W34791   0.585   8.591  11.030  0.1085  0.0924  0.1132
17944W        W34792   5.425  16.561   1.076  0.0644  0.0556 -0.0441
17945W        W34793   9.235  13.961  15.020  0.3127  0.0565  0.2188
17946W        W34794   6.365  11.128   2.796  0.0130  0.1212 -0.1711
17947W        W34795   9.150  15.162  11.842  0.1614  0.2009  0.1122
17948W        W34796   1.806   8.049  16.380  0.3517  0.1051 -0.0689
17949W        W34797   2.285   4.182  11.431  0.0129  0.0054 -0.1796
17950W        W34798   8.658  13.374  11.789 -0.0498 -0.0459 -0.0971
17951W        W34799   5.978   3.446   1.526 -0.1335  0.0859 -0.2941
17952W        W34800   8.642   2.928  14.997 -0.2236  0.1314 -0.0973
17953W        W34801  16.332   1.744   2.402 -0.1461 -0.1069  0.1535
17954W        W34802  15.378  17.103   0.102  0.1050 -0.1040 -0.1038
17955W        W34803   5.096  12.361   3.120 -0.0191  0.2342  0.1463
17956W        W34804   6.961  10.976  13.617 -0.2338 -0.0310 -0.2693
17957W        W34805   0.585   0.797   4.002 -0.4524 -0.1107  0.0510
17958W        W34806   1.134  13.297  13.891 -0.1531 -0.1708 -0.3419
17959W        W34807  13.843   4.483   1.052  0.1351 -0.0222 -0.0713
17960W        W34808   0.873   7.907   0.529 -0.0443 -0.1772  0.1593
17961W        W34809   4.739  16.223  15.941 -0.2254 -0.1442  0.0223
17962W        W34810  11.683   6.815   2.901 -0.1272 -0.3406 -0.2791
17963W        W34811   0.022   1.295  14.817  0.1015  0.1295  0.0939
17964W        W34812   2.874   3.655  13.173 -0.0675  0.0800 -0.0764
17965W        W34813  14.831   4.276  13.861  0.0573  0.2736 -0.0090
17966W        W34814   9.431  17.590   3.646 -0.0147  0.0766  0.1734
17967W        W34815   4.817  16.728   1.456  0.1362  0.2198 -0.0877
17968W        W34816  13.370   3.512  15.477  0.1607  0.1758  0.1683
17969W        W34817  12.306  10.415   0.854 -0.0719 -0.0870 -0.1838
17970W        W34818  14.616   2.872  15.398  0.1504 -0.1405  0.0800
17971W        W34819   2.975   0.735  16.116 -0.3571 -0.0983  0.4242
17972W        W34820   9.989   0.334  14.699  0.0597 -0.3472  0.0970
17973W        W34821  13.568  13.724  13.851 -0.1676 -0.3465 -0.1801
17974W        W34822   4.353   0.759  14.487 -0.3469 -0.1538 -0.0478
17975W        W34823  13.271   5.542   1.237 -0.0220 -0.0487  0.1507
17976W        W34824  11.800   0.961  12.117 -0.2655  0.0712 -0.0506
17977W        W34825  10.501  13.936   3.468  0.0100  0.0787 -0.0380
17978W        W34826   0.432   8.828   3.471  0.2655 -0.0329 -0.4705
17979W        W34827  13.412   0.962  11.718 -0.3917 -0.1417  0.1297
17980W        W34828   3.997   0.435   3.800  0.1717  0.0852 -0.2942
17981W        W34829   3.796   7.806  11.661 -0.4660 -0.1775  0.4299
17982W        W34830   4.457  16.703   0.680  0.0554  0.0112  0.0590
17983W        W34831  13.054   8.374   4.181 -0.1389  0.0682 -0.4209
17984W        W34832  17.028  14.176  15.926 -0.1389  0.2056  0.1762
17985W        W34833  14.811  13.558  16.019 -0.3393 -0.2405  0.0974
17986W        W34834  14.959   2.314  12.298 -0.0743  0.0088  0.2760
17987W        W34835  16.527  16.090  16.458  0.0149  0.1216  0.1031
17988W        W34836  10.380   0.734  13.430 -0.1817  0.1517  0.0750
17989W        W34837  12.320  14.175   1.800 -0.0235 -0.1675 -0.1282
17990W        W34838  15.287   0.071  16.395 -0.1439  0.1960 -0.0810
17991W        W34839  10.971   9.461   0.228 -0.0156  0.1669  0.2084
17992W        W34840  11.141   9.459   1.450 -0.1249 -0.0377 -0.2076
17993W        W34841  17.484   5.213   4.041  0.3495  0.0333 -0.2523
17994W        W34842   8.471  13.672   0.838 -0.0229 -0.0058  0.3051
17995W        W34843   7.378  10.795  11.981  0.1648 -0.1313 -0.0453
17996W        W34844  10.075   3.357  12.382  0.1928  0.0845 -0.1794
17997W        W34845  13.177  16.432   2.992 -0.1909 -0.0662 -0.2788
17998W        W34846  13.727   0.983  13.425 -0.2779 -0.0240  0.0275
17999W        W34847  11.764   2.266  12.568 -0.1073 -0.1760  0.3597
18000W        W34848   5.330  12.986  13.185  0.0283 -0.0991 -0.2331
18001W        W34849  15.675   3.053   0.379 -0.3801  0.0463  0.2223
18002W        W34850   3.902  16.142   0.584 -0.1381 -0.0258 -0.1328
18003W        W34851   7.926   0.591  15.017 -0.0480 -0.0306  0.1242
18004W        W34852   4.735   9.899  11.860 -0.0518 -0.2391  0.5527
18005W        W34853   9.837   9.893   4.477  0.0180  0.1974  0.2663
18006W        W34854   7.905  16.815   5.115 -0.1557  0.0177  0.2682
18007W        W34855  12.753  14.562  13.505  0.1910  0.1428 -0.1736
18008W        W34856   1.729  15.352  15.482  0.0062 -0.0140  0.0483
18009W        W34857   2.513  10.918   4.869  0.0592 -0.1253  0.1561
18010W        W34858   7.102   2.351  14.043 -0.4388  0.2433  0.2162
18011W        W34859   9.537   0.535   3.790  0.0310 -0.2196  0.1303
18012W        W34860   7.370   4.219  11.802 -0.1491  0.1284 -0.1628
18013W        W34861  10.453   1.660  13.144 -0.0422 -0.1072  0.0573
18014W        W34862   0.195   9.663   4.633  0.0358 -0.0762  0.0303
18015W        W34863   2.225   8.590  14.892  0.1933 -0.0082 -0.3384
18016W        W34864   8.302   8.574  12.537  0.3346 -0.0976 -0.0226
18017W        W34865  16.527   9.084   1.334 -0.0159  0.2932 -0.0252
18018W        W34866  10.254  17.685  13.008  0.0629 -0.0929  0.4646
18019W        W34867  16.197  17.594  14.608 -0.0808  0.1086  0.0633
18020W        W34868  12.346   7.874   4.361 -0.0281  0.3925 -0.3065
18021W        W34869  17.693  17.539  15.266 -0.1496 -0.1692 -0.0005
18022W        W34870   8.723  14.867   1.356 -0.4060 -0.1619  0.0524
18023W        W34871  14.478  13.977  12.502  0.1811  0.2942 -0.3356
18024W        W34872  13.383   1.309  12.056  0.0278 -0.0099  0.0076
18025W        W34873   6.046  13.648   0.736 -0.1407 -0.1910  0.2995
18026W        W34874  14.790   6.540  15.944  0.2388 -0.2392  0.1854
18027W        W34875  15.213  10.206   4.177 -0.3097  0.0705 -0.0648
18028W        W34876   1.842  10.828  14.329  0.1387 -0.0803  0.2669
18029W        W34877   0.081  11.893   1.569 -0.0774  0.0478  0.1687
18030W        W34878   3.294   9.467   1.062 -0.3774 -0.0091  0.2917
18031W        W34879  17.239  17.168   5.942  0.0070  0.2916  0.0419
18032W        W34880   7.556   4.729   2.518 -0.0392  0.2600 -0.1676
18033W        W34881   2.345  13.315   1.749  0.5411  0.1831  0.2996
18034W        W34882  13.596  16.166  15.646  0.1502 -0.2001 -0.0966
18035W        W34883   4.041  14.972  16.618  0.1126  0.0929  0.2251
18036W        W34884  11.510   2.798  14.979 -0.0079 -0.4652  0.1847
18037W        W34885   6.135   2.011  13.810 -0.1316 -0.1803 -0.0439
18038W        W34886  14.041   2.500   5.275  0.1100  0.0909 -0.0666
18039W        W34887  17.216  15.574   3.557 -0.0446 -0.0230 -0.0633
18040W        W34888   4.218  16.097  14.223  0.2446  0.1915 -0.0476
18041W        W34889  13.221   9.104   4.676  0.2222  0.0296  0.0291
18042W        W34890   8.367   6.405  15.598 -0.1558  0.2034 -0.0166
18043W        W34891  15.478  12.082   3.251  0.1765  0.0977 -0.2932
18044W        W34892   5.928   0.016   2.904 -0.1536 -0.1552  0.0246
18045W        W34893  12.712  16.577  10.892  0.1220  0.3076 -0.3301
18046W        W34894  17.722   7.243  14.222  0.0013 -0.0721  0.1813
18047W        W34895  14.415  13.816  14.838  0.0170 -0.4547  0.0091
18048W        W34896  16.436  11.720   2.445  0.1517  0.0097  0.3856
18049W        W34897   8.148  10.874   3.507  0.1623  0.1863  0.0741
18050W        W34898  17.505   0.496  13.784  0.3288 -0.0765 -0.0185
18051W        W34899  12.329  14.097  14.995 -0.1237 -0.1109 -0.1964
18052W        W34900  13.270  14.408   4.706  0.1337  0.1552 -0.3278
18053W        W34901  12.643  15.733  13.846 -0.1055 -0.0482 -0.3487
18054W        W34902  14.514  15.807   4.293  0.3098 -0.1061  0.0631
18055W        W34903  14.092  11.391  16.348 -0.1973 -0.2882 -0.0727
18056W        W34904   4.475   5.542  15.189 -0.0537 -0.3320  0.0015
18057W        W34905   7.945  13.155   2.956 -0.1829 -0.1229  0.1974
18058W        W34906  11.856  12.187   3.861  0.0019  0.3347  0.3439
18059W        W34907   8.967  13.742  11.587  0.0327  0.0844  0.1031
18060W        W34908  13.622  15.653   4.081 -0.3176  0.1984 -0.2950
18061W        W34909   9.842   6.011  14.533 -0.0942  0.3062 -0.0841
18062W        W34910  14.588   4.504   5.279  0.1240 -0.0392 -0.1292
18063W        W34911   8.721  10.604  14.861  0.1075 -0.1874 -0.0331
18064W        W34912   4.973   7.623  14.498 -0.1428  0.1743 -0.1129
18065W        W34913  14.216  15.197  16.179  0.1099  0.2819 -0.5160
18066W        W34914   9.432   6.054   4.179  0.3371 -0.1161  0.1451
18067W        W34915   1.360  15.158   0.643 -0.0516  0.1844  0.0042
18068W        W34916   9.675   1.777   0.647 -0.2022  0.3053  0.0739
18069W        W34917  13.105   6.472   0.782 -0.0144 -0.2684 -0.0849
18070W        W34918   7.391   8.835   4.765 -0.0167  0.1443 -0.0349
18071W        W34919  13.553  15.320  13.399 -0.0112  0.1326 -0.1479
18072W        W34920  17.664   7.302  12.957 -0.4077  0.0694  0.0483
18073W        W34921   0.709   0.175  12.741 -0.3756 -0.3892 -0.0925
18074W        W34922  10.507  14.245   4.927 -0.0535  0.1644  0.2529
18075W        W34923  12.447  14.223   2.340  0.1033  0.1839  0.2684
18076W        W34924   7.751  14.629   6.306 -0.2883 -0.1767  0.3724
18077W        W34925   5.833   9.676  13.680 -0.1355 -0.2120 -0.0389
18078W        W34926  14.713  13.066  15.780 -0.0655 -0.0840 -0.0349
18079W        W34927  15.093  14.955  11.824 -0.1951 -0.0842  0.1353
18080W        W34928  11.417   0.655   2.955 -0.0439 -0.3059  0.1063
18081W        W34929   2.472   2.262  15.482 -0.1112  0.1654 -0.1003
18082W        W34930   9.117  10.714  14.583  0.0258 -0.2316  0.0820
18083W        W34931  13.795  15.229   2.779 -0.1656 -0.1849  0.2728
18084W        W34932   7.247  10.728   2.812 -0.3344 -0.1427  0.1161
18085W        W34933  16.140   3.310   1.572 -0.2382  0.2998  0.0246
18086W        W34934   3.434   2.744   1.297  0.2505 -0.0205 -0.0245
18087W        W34935  13.010   3.696   1.308  0.1093  0.2314  0.1831
18088W        W34936   5.692   4.817   0.570 -0.1144 -0.0532 -0.1521
18089W        W34937  10.644   3.797   3.155  0.0620 -0.1126 -0.2128
18090W        W34938   7.857  13.933  14.988 -0.0307 -0.1399 -0.0505
18091W        W34939  10.911  11.247  14.018  0.4876  0.1391  0.1118
18092W        W34940   4.024  13.772  14.462  0.1326 -0.3185 -0.1274
18093W        W34941  13.914  13.126   1.456 -0.0742 -0.2869  0.3244
18094W        W34942   1.792  13.529   3.113 -0.1015 -0.0898  0.2501
18095W        W34943   8.211   4.197   2.569 -0.0576 -0.0632  0.0389
18096W        W34944   0.415   9.962   1.677  0.1921 -0.1389  0.0379
18097W        W34945   0.949   1.577  12.706 -0.4690  0.2435 -0.0123
18098W        W34946  15.490  10.558   2.297  0.1651 -0.3899 -0.0256
18099W        W34947  12.002  10.662   2.057 -0.0137  0.3945  0.1225
18100W        W34948   1.964   4.189   0.027  0.0362 -0.1176  0.1546
18101W        W34949  10.607  11.885   5.998 -0.1893  0.0392  0.1469
18102W        W34950   4.284  10.568   2.163  0.0438  0.1221 -0.2896
18103W        W34951   3.361  10.969   0.784  0.0215  0.4982  0.1128
18104W        W34952  13.391  17.500  12.720  0.1407  0.2019  0.1067
18105W        W34953   5.435  11.252   5.002 -0.2195  0.1709  0.0860
18106W        W34954   4.289  10.930  15.851  0.2718  0.1344 -0.0994
18107W        W34955  17.147   0.488  16.120 -0.1580 -0.1402  0.3327
18108W        W34956  15.195  13.899   0.735  0.0830 -0.0987  0.0888
18109W        W34957   8.337  17.593   4.986  0.0525  0.2085  0.2872
18110W        W34958  12.221   8.448   4.346 -0.1927  0.0328 -0.1947
18111W        W34959  11.688  16.591   0.754 -0.1106 -0.1211  0.0337
18112W        W34960   7.789  14.593  11.751 -0.0182  0.1706  0.1196
18113W        W34961  10.115   9.500   0.226 -0.0395 -0.0727 -0.2757
18114W        W34962   9.175   0.978   0.435  0.0670  0.2731  0.1036
18115W        W34963  16.793  11.462  15.646  0.3012  0.1788  0.1232
18116W        W34964   1.463  10.726   3.058 -0.1293  0.0478 -0.0314
18117W        W34965   2.727   2.556   4.858  0.2859 -0.0309  0.0926
18118W        W34966   0.903   7.395   0.421 -0.1283  0.4808 -0.1217
18119W        W34967  16.687  16.264   0.632 -0.0681 -0.1924 -0.2443
18120W        W34968  14.105  12.632  12.512 -0.2797  0.0861 -0.2340
18121W        W34969   6.775  17.531   1.901  0.1818  0.0491 -0.4040
18122W        W34970  14.706   5.688   1.017  0.1159  0.0510 -0.0345
18123W        W34971  11.468   6.910   0.584 -0.1195  0.1292  0.0090
18124W        W34972  14.871   0.974   4.154 -0.3300  0.1075 -0.2767
18125W        W34973   6.812   8.585  14.391 -0.2032 -0.1727 -0.3010
18126W        W34974   4.052   1.354  15.312 -0.1162  0.1585 -0.1307
18127W        W34975  11.525  11.866  12.314 -0.1380 -0.2457  0.0006
18128W        W34976   8.976   2.585   3.552  0.0452 -0.0682 -0.0703
18129W        W34977  16.970   2.380  16.290  0.2876  0.0976  0.0046
18130W        W34978  15.153   4.589  12.175 -0.0937 -0.0990 -0.1320
18131W        W34979   9.534  10.447  14.599 -0.0732  0.2855  0.0895
18132W        W34980   4.876   1.110   4.515 -0.2106 -0.1992  0.0969
18133W        W34981   9.788   8.385   2.565  0.1236 -0.0164 -0.2272
18134W        W34982  16.161  14.286  15.897  0.1546 -0.0697 -0.2900
18135W        W34983   4.296  16.508  13.354  0.0774 -0.3827 -0.0506
18136W        W34984  10.960   1.640  16.159 -0.0991  0.3576  0.0547
18137W        W34985   2.893   2.553  14.075  0.3581  0.1798  0.0821
18138W        W34986   9.919   8.296  11.812  0.0503 -0.0698  0.1886
18139W        W34987  10.772   9.931   5.328  0.0435  0.0304 -0.2974
18140W        W34988   1.493   7.556  16.368  0.2412 -0.0798  0.0098
18141W        W34989   0.199   4.713   3.441  0.3159  0.1183 -0.1233
18142W        W34990   6.498   0.663  14.559 -0.2627  0.1996 -0.1976
18143W        W34991   4.730  10.311   1.986 -0.2284 -0.2324  0.1556
18144W        W34992   1.682   3.804  13.517  0.0584 -0.0037  0.5146
18145W        W34993   1.977   8.570  16.518 -0.2130 -0.0639 -0.1672
18146W        W34994   7.326   8.438   2.888 -0.1519 -0.1366 -0.2649
18147W        W34995   7.495   9.127  15.821 -0.0947  0.0294 -0.1376
18148W        W34996   5.575  12.173   4.014  0.0658 -0.1368  0.2017
18149W        W34997  13.286  16.424  13.535 -0.1339  0.0076  0.0573
18150W        W34998  11.728  15.926  13.888 -0.2206 -0.1280 -0.1846
18151W        W34999  13.409   2.524   4.314 -0.0260 -0.0679 -0.0559
18152W        W35000   9.324   7.167   1.882  0.1010  0.0256 -0.2900
18153W        W35001   9.781  16.001  16.603  0.1004 -0.2497  0.1969
18154W        W35002   1.446  16.445  16.326  0.0701  0.0817 -0.1471
18155W        W35003  14.234   4.634  14.806 -0.3186  0.3313  0.0676
18156W        W35004  12.720   8.020  13.940 -0.1898 -0.1560 -0.0327
18157W        W35005  15.537   5.264  15.152  0.1868  0.1591 -0.0512
18158W        W35006   8.246  12.101  15.938 -0.1729 -0.1407  0.0072
18159W        W35007  16.706  15.362   0.987 -0.1502  0.0350 -0.2306
18160W        W35008  10.335   4.371   4.276  0.0053 -0.3370 -0.0036
18161W        W35009  17.477  10.724   5.055 -0.0514 -0.0784  0.2484
18162W        W35010   4.304   0.164  13.301 -0.0628 -0.1766  0.2053
18163W        W35011   5.576   7.479   4.508  0.1491  0.0595  0.2425
18164W        W35012  16.967   5.743   2.288  0.2005 -0.0772  0.1408
18165W        W35013   2.284   6.553  14.555 -0.0880  0.3130 -0.0067
18166W        W35014   6.706  13.624   0.442 -0.1555  0.0296  0.2050
18167W        W35015   0.364   6.379   1.913  0.0341  0.1687  0.1005
18168W        W35016   1.064  16.233   0.543 -0.2004 -0.1487 -0.1019
18169W        W35017   8.991   2.142   2.662  0.1544  0.1444 -0.0543
18170W        W35018   2.438   6.947   3.250 -0.2093  0.3279 -0.1283
18171W        W35019   3.655  14.520  12.432  0.0882  0.2655 -0.0667
18172W        W35020   5.980   0.385   0.831 -0.1422 -0.3125  0.2126
18173W        W35021   3.638   5.969  10.931  0.1605  0.0435  0.0586
18174W        W35022   3.127   0.719  15.629 -0.2156  0.0971 -0.2005
18175W        W35023  11.876   4.379  13.384 -0.0764  0.0516 -0.0200
18176W        W35024   6.407   7.498  14.285  0.2521  0.2354 -0.2006
18177W        W35025  13.363   6.016  16.185 -0.0491  0.1478  0.1511
18178W        W35026  10.026   4.831   3.207  0.1345 -0.2439 -0.1262
18179W        W35027   9.459   8.604  16.064 -0.0218 -0.0977 -0.0138
18180W        W35028   6.655   2.664   2.434 -0.2740  0.0699 -0.0636
18181W        W35029   3.053   2.402   0.492  0.1597  0.1781 -0.1143
18182W        W35030   6.592   3.813   3.918  0.1964 -0.0561 -0.0450
18183W        W35031  17.033   5.718  12.597  0.0413  0.0203 -0.1171
18184W        W35032  13.035   4.970  13.216  0.1921 -0.3358  0.1167
18185W        W35033   2.454  13.663   0.430 -0.0335  0.1435 -0.0189
18186W        W35034  11.392  13.344  14.522 -0.1309 -0.2146 -0.1765
18187W        W35035  17.783   1.646   1.385  0.1416  0.3362  0.1997
18188W        W35036  10.457   1.953   2.306 -0.3196  0.1160 -0.2386
18189W        W35037   2.028  17.403  11.817  0.1107  0.2057  0.0637
18190W        W35038   0.871  10.777  12.176  0.1335  0.1180  0.1278
18191W        W35039  16.310   6.796  11.404 -0.4027 -0.1121  0.0291
18192W        W35040   4.706   9.000  14.262  0.3770 -0.1290  0.0382
18193W        W35041   0.781  13.895  15.585 -0.0413  0.0028  0.0056
18194W        W35042   7.808   7.144  11.376  0.1070  0.1905  0.3233
18195W        W35043  15.021   9.189   4.877  0.1300  0.0459 -0.1120
18196W        W35044   1.025   2.590   3.411 -0.2670  0.0858 -0.4393
18197W        W35045   2.547   9.431  13.480  0.0026 -0.2405 -0.0932
18198W        W35046  12.603   6.687   4.943 -0.0720  0.3024 -0.1577
18199W        W35047  10.967  10.966  12.986 -0.1534 -0.0875 -0.0786
18200W        W35048   8.845   6.425  15.086  0.0310  0.1331 -0.4318
18201W        W35049   5.914  17.438   3.624 -0.2088 -0.4228 -0.2420
18202W        W35050  11.966   4.070   2.183  0.1254 -0.2008  0.3117
18203W        W35051   6.107  16.439  16.453 -0.0500 -0.1346  0.0933
18204W        W35052  10.269  11.718  15.992  0.1358  0.0006  0.0023
18205W        W35053  15.901  16.751   4.553  0.1906 -0.0390  0.0502
18206W        W35054   1.207   4.062   3.987 -0.1866  0.1635  0.2507
18207W        W35055   3.697  13.195   4.551 -0.0186  0.2310  0.1377
18208W        W35056   8.252  10.383  12.327  0.0191  0.3188  0.1039
18209W        W35057   5.562   7.302  15.623  0.0522  0.1354 -0.1067
18210W        W35058  17.155   6.522   4.322  0.1678  0.1502  0.2914
18211W        W35059  17.216  11.652  12.918  0.2718 -0.0686 -0.2547
18212W        W35060   1.072   7.690   2.260  0.0637 -0.0602  0.0158
18213W        W35061  13.745  15.313  16.092  0.2008  0.1827  0.1231
18214W        W35062   4.005  12.001   3.230  0.1681 -0.2012 -0.4499
18215W        W35063   8.214   3.167   2.523  0.0562 -0.2814  0.5124
18216W        W35064   4.388  12.257  12.434  0.2410  0.0293 -0.0396
18217W        W35065   3.231   8.704   4.371  0.0391  0.1025 -0.3813
18218W        W35066   5.159   3.772  13.871 -0.1681  0.0356 -0.0555
18219W        W35067   4.142  15.956   2.501  0.1700  0.3083 -0.0055
18220W        W35068  16.819   1.093  12.841  0.1925 -0.3954  0.1459
18221W        W35069   6.556  11.210  14.027  0.0091 -0.0927 -0.0970
18222W        W35070   4.262   9.628   5.131  0.2778 -0.2043 -0.1805
18223W        W35071  14.151   8.998  16.566  0.0481  0.4903  0.1765
18224W        W35072  10.309   6.952   2.701 -0.0312  0.0094 -0.4100
18225W        W35073   6.062  14.890   2.477  0.2102  0.0499 -0.0622
18226W        W35074   0.849  15.347   0.229 -0.3005 -0.2050 -0.0436
18227W        W35075  17.751   0.828   4.648  0.3390 -0.0537  0.1100
18228W        W35076   8.420  13.998   3.086 -0.0085  0.0511  0.0823
18229W        W35077   8.214  16.138   4.513  0.3351  0.1668  0.2627
18230W        W35078   9.700   6.382  15.265  0.1547 -0.1408 -0.0450
18231W        W35079  10.262   6.160  12.035 -0.3769 -0.0582 -0.2501
18232W        W35080   3.782   8.623   2.614 -0.0239 -0.1965  0.1998
18233W        W35081   0.245   7.980  14.910  0.3287  0.3208 -0.0035
18234W        W35082   1.845  14.758   4.918  0.0277 -0.0212 -0.0286
18235W        W35083   0.436  14.519  13.613  0.2731 -0.0997 -0.0682
18236W        W35084  13.812  11.884   4.490 -0.2785  0.0995  0.0757
18237W        W35085   2.626   1.640  14.055 -0.2551  0.0247 -0.2729
18238W        W35086  15.006   6.985  15.473  0.0278  0.1435  0.2675
18239W        W35087  17.071   5.249   2.152 -0.1245  0.1897 -0.2375
18240W        W35088   3.597  17.548  12.608 -0.0307  0.1918  0.1894
18241W        W35089   7.689   4.077  13.170  0.0291  0.0840 -0.0019
18242W        W35090   0.795  10.883  11.682  0.0043 -0.1715  0.0089
18243W        W35091   3.013  10.549  12.292  0.2910  0.1164 -0.0184
18244W        W35092  10.325   8.420  14.515  0.0623  0.0983 -0.2936
18245W        W35093  12.063  13.351  13.332 -0.1087 -0.2344 -0.2375
18246W        W35094   3.579   1.542  15.240 -0.1398 -0.0720  0.1402
18247W        W35095   0.837  16.974   0.675  0.0364  0.1859 -0.0558
18248W        W35096   9.357  13.543  11.849 -0.2791 -0.1118 -0.1056
18249W        W35097  16.070   4.915   1.629 -0.3342 -0.2625  0.1335
18250W        W35098   9.999  16.738   2.746  0.2196  0.1430  0.2839
18251W        W35099   1.920   9.813   2.714 -0.0407  0.1858  0.2271
18252W        W35100  16.746  12.451  11.514  0.0747  0.0653  0.0848
18253W        W35101  17.395   0.298  14.636  0.2022  0.1998 -0.2327
18254W        W35102  16.614   3.469   1.684  0.2188  0.1643 -0.2032
18255W        W35103   2.210  13.993  13.008  0.0352  0.0877 -0.3674
18256W        W35104   5.645   1.673   4.739  0.1622 -0.1195  0.2406
18257W        W35105  16.638   2.138  15.892 -0.0583  0.0057  0.0777
18258W        W35106  16.418   1.084  15.932 -0.1069 -0.1167 -0.1057
18259W        W35107  15.801  17.618  13.662 -0.0285  0.0572 -0.1888
18260W        W35108  11.895  11.269  11.878 -0.1716 -0.0312 -0.1015
18261W        W35109   4.979  10.905  14.054  0.1334  0.0295 -0.0703
18262W        W35110   6.338   7.156  15.675  0.1169 -0.1009 -0.0972
18263W        W35111  16.654   5.247  11.547 -0.1229  0.0166 -0.3851
18264W        W35112   6.159   9.082  13.370 -0.2101  0.0049  0.1978
18265W        W35113   4.240  10.768   4.351 -0.3441 -0.0094 -0.1776
18266W        W35114  12.664   7.461   1.395  0.2141  0.0146 -0.1833
18267W        W35115   7.238  16.297  10.663 -0.2096 -0.0920 -0.0044
18268W        W35116   4.592  15.746  16.247 -0.0857  0.0833  0.4261
18269W        W35117  10.596  10.891   3.494  0.1457  0.3089 -0.0600
18270W        W35118   5.899   9.814  15.723 -0.2574  0.0801  0.2664
18271W        W35119  16.073   7.102  12.794 -0.1276  0.0300 -0.0247
18272W        W35120   8.737   5.729  11.423  0.0195  0.1068  0.1588
18273W        W35121   7.792   6.005   0.506 -0.1064 -0.0892 -0.1640
18274W        W35122   6.866   1.760   3.012  0.1442  0.3077  0.3730
18275W        W35123   5.284   5.834  16.253 -0.0039  0.1246  0.0386
18276W        W35124   4.027   4.022   0.091  0.1211 -0.7092  0.3003
18277W        W35125  14.732  10.869   5.515  0.0771 -0.0075 -0.1659
18278W        W35126  14.715   4.599  11.918  0.2090  0.1229  0.0091
18279W        W35127   9.782  12.412  12.808  0.0037  0.2787 -0.0164
18280W        W35128   7.604   9.065  14.654 -0.1714  0.1008  0.0750
18281W        W35129   8.556   2.581  12.840  0.4434 -0.0084 -0.1715
18282W        W35130  15.517  15.467   0.992  0.0480  0.3280 -0.1466
18283W        W35131   6.652   9.447   4.799 -0.1731 -0.2624 -0.1388
18284W        W35132   3.517   7.449   3.914  0.0506  0.0222  0.1651
18285W        W35133  14.883  15.565   4.546  0.3031  0.0157  0.2969
18286W        W35134  15.830   8.865   1.807 -0.2521 -0.1492  0.2515
18287W        W35135  14.222   0.946   3.988  0.1182  0.2385 -0.1638
18288W        W35136  11.163  15.039   4.978  0.2004  0.1197 -0.0073
18289W        W35137  15.419  14.832  14.833  0.0822  0.3581 -0.4377
18290W        W35138   2.946  11.750   3.213  0.1341 -0.0069 -0.0105
18291W        W35139  17.808  13.470   0.153  0.1716 -0.3391  0.1086
18292W        W35140   1.990  12.541  11.951  0.1058 -0.1142 -0.1405
18293W        W35141   4.275   3.464  12.658 -0.4079  0.0506  0.1026
18294W        W35142  13.483  16.566  15.090  0.0507 -0.2762  0.1305
18295W        W35143   6.567  11.123   3.277  0.0502  0.1548  0.2136
18296W        W35144  10.352  17.274  16.427  0.1459  0.0913 -0.2434
18297W        W35145   5.659  13.096  12.482  0.1655 -0.1459  0.4303
18298W        W35146   6.182   6.523   0.368  0.0860 -0.2176 -0.0622
18299W        W35147  10.563   0.375  11.913  0.1114  0.0201 -0.0204
18300W        W35148  14.506   0.940   1.230 -0.0042 -0.2616  0.0392
18301W        W35149  10.684   6.712   0.505  0.0106 -0.0672 -0.0856
18302W        W35150  13.285   2.709  16.564 -0.1273  0.0953 -0.1585
18303W        W35151  12.523   2.636  13.319  0.0220 -0.0328 -0.0065
18304W        W35152  11.056  15.705  14.948 -0.2089 -0.3205  0.0536
18305W        W35153  11.715   9.409   2.667 -0.0114 -0.1242 -0.1120
18306W        W35154   8.114  11.646  16.215  0.0246  0.0906  0.0369
18307W        W35155   8.472   0.819  16.292  0.0143 -0.1357  0.2732
18308W        W35156   0.661   3.746  13.857  0.0781 -0.2862  0.2768
18309W        W35157   9.665  17.435   1.063 -0.0543 -0.1995  0.1072
18310W        W35158  10.525   6.940   3.426 -0.1476  0.1456 -0.2121
18311W        W35159  14.426  11.248   2.431  0.0206 -0.0948  0.1023
18312W        W35160   4.791   3.993  14.778  0.0074 -0.0641  0.1350
18313W        W35161   9.638   2.331  14.583 -0.0078 -0.0837 -0.1555
18314W        W35162  11.534  10.349  13.538 -0.0305  0.1706  0.0137
18315W        W35163   0.698   7.742  12.699  0.0008  0.3430  0.0700
18316W        W35164  14.110  10.158  14.263 -0.0626 -0.0361  0.2483
18317W        W35165  17.059  17.047   0.804  0.0913  0.0183  0.0543
18318W        W35166   4.257   9.846  14.475 -0.0902  0.0648  0.1954
18319W        W35167   5.901  15.415   0.154 -0.1769  0.0604 -0.2179
18320W        W35168  16.958   2.762  15.397 -0.1042  0.2851 -0.1659
18321W        W35169   2.287  10.201   1.070  0.2305 -0.3234 -0.0262
18322W        W35170   3.437  12.744  13.952  0.0826  0.2248  0.1807
18323W        W35171   1.359   9.692   1.322 -0.0801 -0.0291  0.2165
18324W        W35172   0.384   7.329   2.811 -0.1183 -0.2888  0.0695
18325W        W35173  13.393  10.565   4.343  0.0829  0.1348 -0.0242
18326W        W35174   2.346  16.999   0.766  0.0128  0.1859  0.0773
18327W        W35175  17.437  14.436  15.726  0.2812 -0.1398  0.3187
18328W        W35176  12.657   5.870   5.504  0.1529  0.1992 -0.0564
18329W        W35177   3.468  13.728  13.610  0.0260 -0.1850 -0.1477
18330W        W35178  12.049   0.779   1.617 -0.2580 -0.0965 -0.0981
18331W        W35179   0.630   4.330  14.245  0.2904 -0.1524 -0.0241
18332W        W35180   8.532   7.913   3.700 -0.1929 -0.2108  0.0222
18333W        W35181  16.194  11.209   2.405  0.1102 -0.1465  0.0154
18334W        W35182   5.672  14.090  16.074  0.2723 -0.2746 -0.1593
18335W        W35183   5.726   4.157   3.628  0.1594  0.0092 -0.0878
18336W        W35184  13.295  13.048   1.272  0.1886  0.0357 -0.0359
18337W        W35185   1.776  15.572   2.281 -0.0081  0.0274  0.0942
18338W        W35186   4.904   0.060  11.534  0.0640 -0.0279 -0.2585
18339W        W35187   5.442  13.301  12.084  0.2361  0.0071 -0.0049
18340W        W35188  12.088   1.451  12.112  0.2377 -0.0786  0.0567
18341W        W35189  12.284  15.277   2.273  0.2923 -0.0565  0.2169
18342W        W35190   6.159   0.353  14.673  0.1356  0.3274  0.1830
18343W        W35191   8.164  15.059  14.674 -0.2186  0.0696 -0.2522
18344W        W35192   3.515  12.593  12.574 -0.1814 -0.0749 -0.1677
18345W        W35193  14.426   0.456   1.339  0.0227  0.3252  0.2013
18346W        W35194   7.801  13.491   1.385 -0.2598 -0.0520 -0.0818
18347W        W35195   1.181   3.725  11.971 -0.2069  0.4144 -0.4406
18348W        W35196  10.232   8.302   3.660  0.0673 -0.1750 -0.0745
18349W        W35197  12.161   3.207   4.226 -0.0016  0.1700 -0.2769
18350W        W35198   6.317   0.057   5.383 -0.0654 -0.4565  0.4188
18351W        W35199   4.255   7.047  14.589  0.1694  0.0490 -0.0187
18352W        W35200   6.737  13.115  14.740  0.0677  0.0706 -0.1842
18353W        W35201  16.897   4.522   3.851 -0.2779 -0.1665  0.1771
18354W        W35202  12.676   0.908   1.775  0.0424 -0.0607  0.1731
18355W        W35203   1.913  14.477   0.900 -0.0045  0.1358  0.0464
18356W        W35204   7.901   4.923  15.009 -0.1032  0.0578  0.2689
18357W        W35205  14.019  12.239  13.413  0.1481  0.0333  0.1974
18358W        W35206   5.944   6.044   3.281  0.0644 -0.1651  0.0397
18359W        W35207   6.961   9.156  12.423  0.3376  0.0037  0.0433
18360W        W35208  16.453   6.470  14.486  0.1984  0.0411  0.1128
18361W        W35209   2.689   6.140  16.542 -0.2048  0.1564  0.1691
18362W        W35210   6.239  13.097  11.857 -0.0400 -0.1411  0.0384
18363W        W35211  10.103   7.388  15.333 -0.1859 -0.0245  0.0493
18364W        W35212   9.608   4.856   4.782  0.1616  0.2936 -0.0851
18365W        W35213  16.474   8.508  12.849  0.0483  0.0185 -0.0035
18366W        W35214   1.302   4.311   0.204 -0.0793 -0.1373  0.3244
18367W        W35215   8.121  14.204  14.606  0.1094  0.1648 -0.1227
18368W        W35216  15.535   3.791   4.719 -0.4327 -0.0382  0.2713
18369W        W35217   0.949  14.655  15.407 -0.4838  0.2900 -0.2766
18370W        W35218  13.221  15.315  13.022  0.0426 -0.0399  0.3242
18371W        W35219   6.327   4.070  13.847 -0.0297 -0.1476 -0.2238
18372W        W35220  11.288  10.605   2.796  0.2828 -0.2312 -0.0368
18373W        W35221   1.941   8.727  12.993 -0.2985 -0.2053  0.2303
18374W        W35222  10.298  13.602   0.403  0.5639  0.1774 -0.3068
18375W        W35223  14.939  13.152   3.580  0.1758  0.3517 -0.4731
18376W        W35224  16.211  11.892  14.826  0.3556 -0.1859 -0.0259
18377W        W35225  11.899   5.370  14.013  0.0777  0.2372 -0.0128
18378W        W35226  16.457  11.996  15.246  0.0044  0.1807 -0.1036
18379W        W35227  16.440  14.789   4.263  0.0724 -0.0453 -0.0192
18380W        W35228   9.102   8.497   1.762  0.1504 -0.1059 -0.0424
18381W        W35229  11.030   3.467   1.373  0.0243 -0.0088  0.1779
18382W        W35230   3.128  17.012  11.142 -0.0081 -0.2164  0.2145
18383W        W35231  17.508  16.320  15.946  0.4065  0.1141  0.0215
18384W        W35232  11.807  14.361   1.758  0.0719  0.3212 -0.1951
18385W        W35233  17.611   7.013  13.777  0.0286 -0.3904 -0.1301
18386W        W35234  10.072   6.190   0.112 -0.2155 -0.4304 -0.0882
18387W        W35235  16.150   8.682  11.984 -0.0428 -0.0961 -0.0485
18388W        W35236   0.018  14.855  14.462 -0.4293  0.2689  0.1228
18389W        W35237   0.899  16.646  14.012 -0.1634  0.0751 -0.0147
18390W        W35238   9.531   6.499   0.919  0.1829  0.0346  0.5156
18391W        W35239  13.252  10.443   2.542 -0.0016  0.1543  0.0365
18392W        W35240  13.796  16.367   5.277 -0.3139  0.4857 -0.0717
18393W        W35241   8.460  14.068   4.882 -0.2050 -0.4278  0.1370
18394W        W35242  13.140  11.996   1.080  0.1494  0.0494  0.1498
18395W        W35243   9.406  17.099  12.379  0.1779  0.2216 -0.2473
18396W        W35244  17.837   9.227   2.361 -0.2282 -0.3676  0.1304
18397W        W35245  16.958   6.853   2.474  0.0221 -0.3372  0.0876
18398W        W35246   4.178  14.388   0.244  0.1008  0.1014 -0.0319
18399W        W35247   9.899   8.376  15.574  0.1165  0.1140 -0.0342
18400W        W35248   6.799  17.666  13.038 -0.0295 -0.2836 -0.2319
18401W        W35249   3.027   0.150   4.914  0.0048  0.4344  0.1544
18402W        W35250   5.098   4.870   4.099 -0.0545 -0.3512 -0.2729
18403W        W35251   1.728   7.626   3.720  0.1684 -0.1349 -0.2892
18404W        W35252  14.783  15.229   1.493  0.0675 -0.2477 -0.2057
18405W        W35253  14.336   5.560   2.035  0.0101  0.0156  0.1842
18406W        W35254  16.167   3.893   3.105 -0.0491  0.0784 -0.0026
18407W        W35255   2.534   6.815   0.763  0.0392 -0.1335 -0.2659
18408W        W35256   9.562   7.466  16.498 -0.1150  0.0344  0.2118
18409W        W35257  17.440   7.816   2.962 -0.1173  0.0143  0.1827
18410W        W35258  10.278  13.280   2.610 -0.0988 -0.0402  0.2138
18411W        W35259  16.438   0.670   0.787 -0.2121 -0.3509  0.1861
18412W        W35260   7.757   3.413   2.927 -0.3035  0.2825 -0.0131
18413W        W35261   9.394   3.187  13.621 -0.0283 -0.1711  0.1052
18414W        W35262  12.066   9.380   4.012 -0.0502  0.2492 -0.0084
18415W        W35263   5.570  12.148  15.069  0.2104  0.2823 -0.1486
18416W        W35264   4.856   1.456   3.236  0.2761  0.0089 -0.0481
18417W        W35265   3.853  10.987   2.345 -0.0884 -0.0235  0.0460
18418W        W35266  16.184   1.011  13.350  0.0327  0.1372 -0.3938
18419W        W35267  11.740  13.512  13.691  0.3102  0.0358 -0.0587
18420W        W35268  16.969   6.289   0.432 -0.2150 -0.2935 -0.1669
18421W        W35269  17.578   1.633  16.242  0.1257 -0.1460 -0.1910
18422W        W35270  13.955   8.326  16.106 -0.0870  0.0924 -0.1166
18423W        W35271   8.157  11.017   0.585  0.2797  0.0397  0.0292
18424W        W35272  15.944   9.021  10.706  0.0818  0.1080  0.1556
18425W        W35273   8.378   0.411  13.103 -0.0936  0.0837 -0.0083
18426W        W35274  10.238  10.823  16.496 -0.0359 -0.1286 -0.0555
18427W        W35275  12.649  16.535   1.324  0.2869  0.4126 -0.3110
18428W        W35276   8.439   4.047  13.715  0.0646 -0.0322  0.1220
18429W        W35277  11.785   8.142   2.118 -0.0480  0.0934 -0.2738
18430W        W35278  15.502  14.509   4.605 -0.1590 -0.1541 -0.0335
18431W        W35279   9.013   7.970  15.001 -0.0035 -0.0016 -0.0250
18432W        W35280  16.327   0.997  12.852  0.0464  0.2648 -0.2061
18433W        W35281  15.841   7.840  10.924 -0.2861  0.1542 -0.1334
18434W        W35282  14.351   1.903  15.737 -0.1544 -0.2073 -0.5198
18435W        W35283   2.272  16.120  11.348  0.0654  0.0585 -0.0843
18436W        W35284  11.745   2.857   5.610 -0.3391  0.0204  0.1393
18437W        W35285  16.524   5.505   4.402 -0.0577 -0.1387 -0.0162
18438W        W35286   8.514   4.248   4.929  0.0420 -0.0145  0.0522
18439W        W35287  13.233   9.250  14.360 -0.0087  0.2957 -0.0919
18440W        W35288  17.397   9.136  11.631 -0.2111 -0.2365 -0.0182
18441W        W35289   5.054   6.186  16.517  0.0670 -0.1107  0.0809
18442W        W35290   9.232   3.765  11.530  0.0795  0.4588 -0.1917
18443W        W35291   1.090   7.848  11.218  0.2516 -0.2756  0.1115
18444W        W35292   0.948   3.273  11.937  0.1574  0.0990  0.0782
18445W        W35293   2.731  15.801  12.463 -0.1564  0.0741  0.2316
18446W        W35294  17.266  16.539  12.784 -0.0035  0.1653 -0.2285
18447W        W35295   8.434   7.812  14.148  0.1411 -0.3498  0.1944
18448W        W35296  15.735  13.975  11.291  0.2335 -0.0410  0.0426
18449W        W35297  11.443  10.820  12.630  0.0704 -0.0225 -0.0171
18450W        W35298   9.152  15.993   1.711 -0.0975  0.1356 -0.2397
18451W        W35299   8.143   1.832  14.697 -0.0004 -0.0743  0.3526
18452W        W35300  10.097  10.801  15.009 -0.0072 -0.2511  0.1365
18453W        W35301   5.411  11.365   2.289  0.0438  0.2711 -0.0345
18454W        W35302  15.808  13.654  15.120  0.2295 -0.0006  0.1088
18455W        W35303  17.776   7.461  15.478  0.1014  0.1618 -0.1785
18456W        W35304   7.053   5.197  15.473  0.2608 -0.1910  0.1181
18457W        W35305  15.864   4.641  12.983 -0.0959 -0.0645 -0.0250
18458W        W35306  17.824  14.835   2.097  0.1818 -0.2371 -0.1807
18459W        W35307  14.275   1.417   4.650  0.1999 -0.2682  0.0742
18460W        W35308   3.897   9.023  14.897 -0.0024 -0.2800 -0.0374
18461W        W35309  10.313   1.320   4.424  0.1616  0.2090  0.0123
18462W        W35310  11.623  15.655  16.499 -0.2270  0.0111  0.2734
18463W        W35311  17.048   9.383  16.405  0.2180 -0.1678 -0.2474
18464W        W35312   0.295   7.830   2.689 -0.2328 -0.3505  0.2397
18465W        W35313  14.265   3.278   5.826 -0.0294  0.2560 -0.2566
18466W        W35314  12.543  12.289   5.624  0.0867  0.0561  0.1075
18467W        W35315   2.907   6.469  12.312  0.1408  0.0112 -0.0043
18468W        W35316   0.925   9.199   2.156  0.1738 -0.2061  0.2942
18469W        W35317   8.154  14.410   6.028  0.0431  0.1915  0.0819
18470W        W35318   5.420  17.768  11.493 -0.0366 -0.4336  0.0291
18471W        W35319   9.561   1.011   0.844 -0.0564  0.0594  0.0728
18472W        W35320  13.882  15.668   1.765 -0.3462  0.1437 -0.2007
18473W        W35321   1.954  10.375  14.147 -0.1144  0.1548  0.2408
18474W        W35322   8.802  15.343   2.261  0.4467  0.1658  0.3543
18475W        W35323  10.230   5.349  12.426 -0.0678 -0.1885 -0.4482
18476W        W35324  11.990   6.073  12.600 -0.2074 -0.1854 -0.0471
18477W        W35325   6.073  17.413  13.739  0.3059 -0.0637 -0.1043
18478W        W35326   7.443  10.317  12.092 -0.0793  0.0256  0.0240
18479W        W35327   0.261   6.254   4.098  0.0422  0.1856 -0.5123
18480W        W35328  16.767  10.229  15.512 -0.0877  0.1103  0.0859
18481W        W35329   9.891   9.309   4.332  0.2070 -0.2110  0.1857
18482W        W35330   7.543   5.323  14.268  0.0162  0.2620  0.5204
18483W        W35331   7.320  13.998  11.367 -0.4441  0.0334  0.3339
18484W        W35332  16.905  14.822   1.422  0.1768 -0.0328  0.3888
18485W        W35333  13.153   8.244  13.335 -0.2484  0.4026  0.1113
18486W        W35334   3.125   7.696  10.508 -0.0396 -0.0250 -0.0628
18487W        W35335  10.919  14.699   0.587 -0.0579 -0.1178  0.2831
18488W        W35336  16.897   0.682   5.088  0.1226 -0.1896  0.0249
18489W        W35337  12.278   1.575   2.083 -0.3180 -0.2842  0.0892
18490W        W35338  13.126   8.780  14.534 -0.0423 -0.2464 -0.0659
18491W        W35339  15.191   3.704  15.333 -0.1592 -0.3206 -0.1146
18492W        W35340  13.949   6.279  15.438 -0.4064 -0.0322  0.0335
18493W        W35341   9.640  10.048  14.305 -0.0006  0.1288  0.0353
18494W        W35342   4.396   6.701  14.148  0.2637 -0.0833 -0.0261
18495W        W35343  11.896   5.590   5.450  0.1380  0.0528 -0.1240
18496W        W35344  12.747   4.103  12.203  0.1355  0.0502 -0.0246
18497W        W35345   3.988   5.382   1.638  0.1900 -0.0998  0.0588
18498W        W35346   6.055   7.321  12.605 -0.1859  0.2803  0.3355
18499W        W35347   9.567   1.261   1.753  0.2864  0.2429  0.0256
18500W        W35348   3.141   3.540  15.377  0.1246 -0.0847 -0.5118
18501W        W35349  11.008  13.373   0.319  0.0178  0.0972  0.2863
18502W        W35350   3.352   5.163   3.474 -0.3469 -0.0702  0.0337
18503W        W35351   6.400   4.334   4.130  0.2023  0.3434  0.0737
18504W        W35352   1.847   1.715   5.339  0.0325  0.1066 -0.3371
18505W        W35353  16.723  15.893   2.952 -0.0258  0.1278  0.0945
18506W        W35354   3.210  13.486   5.477 -0.1019 -0.3043 -0.4114
18507W        W35355  17.800   2.908   0.166  0.1024  0.1173  0.0634
18508W        W35356   2.029   4.427   0.467 -0.0146 -0.1570 -0.0533
18509W        W35357   7.485  11.093  13.258 -0.3317  0.0646 -0.0876
18510W        W35358  11.709   3.739   0.768 -0.3755  0.1035  0.0048
18511W        W35359   8.152   9.814  15.749  0.0911  0.1495  0.2305
18512W        W35360  14.378  10.531  11.567  0.4768  0.0372  0.2088
18513W        W35361   0.515   2.353  12.262 -0.2255 -0.1071 -0.0164
18514W        W35362   7.602   8.931   3.661  0.0445 -0.0133  0.0327
18515W        W35363   0.930   6.560  11.522  0.0209 -0.3649 -0.0894
18516W        W35364   1.900  11.710   2.101 -0.0270 -0.0142 -0.1258
18517W        W35365   7.548  10.259   5.013  0.1023  0.0487 -0.0403
18518W        W35366   0.862   9.484  13.045  0.1212  0.0297 -0.1000
18519W        W35367   3.101   3.768  15.831  0.2679 -0.0870  0.0288
18520W        W35368  15.089   4.715  13.437  0.2169 -0.0580  0.0491
18521W        W35369   5.227   4.894  14.437 -0.0068  0.2174 -0.0184
18522W        W35370   6.250   9.017  14.388 -0.0638 -0.0502 -0.1162
18523W        W35371   2.983   9.511   1.946  0.1652 -0.2192 -0.0518
18524W        W35372  17.172  15.123  16.462 -0.1125 -0.1971  0.1505
18525W        W35373  15.068   1.255  12.473 -0.0857 -0.1763  0.1286
18526W        W35374   7.630   7.018  12.608  0.1883  0.0502 -0.1852
18527W        W35375   7.647  15.599   3.635  0.2000  0.2005  0.0829
18528W        W35376   2.956   8.120  11.890  0.2029 -0.1169  0.3050
18529W        W35377  15.299   1.198   4.726  0.0230 -0.2537 -0.0478
18530W        W35378  10.358   3.408  16.474  0.2636 -0.2412 -0.0373
18531W        W35379  11.538   2.349   1.053  0.1210 -0.2789  0.4619
18532W        W35380  15.542   9.451  10.993 -0.0124  0.1553 -0.2572
18533W        W35381  11.980  14.425  16.556  0.2404 -0.1969  0.3823
18534W        W35382  14.627   2.272  13.640  0.1041  0.0344  0.2172
18535W        W35383   8.122   8.909  13.270  0.1974  0.1151 -0.4635
18536W        W35384   3.268  15.307  13.024  0.0772  0.2215  0.2028
18537W        W35385   4.723   4.342   5.601  0.3451  0.3635 -0.1203
18538W        W35386   2.445  15.933   0.319  0.0106 -0.0269  0.3658
18539W        W35387   5.541   5.167   2.286 -0.1683 -0.0833 -0.0402
18540W        W35388   5.630   8.851   0.855 -0.1086  0.1126 -0.0888
18541W        W35389  14.938  14.722   1.413 -0.0138 -0.3532  0.0153
18542W        W35390   4.216  17.150   0.650 -0.0021  0.3862 -0.5383
18543W        W35391   7.353  17.464   1.533 -0.0068 -0.0765 -0.0486
18544W        W35392   1.155  12.004  13.335  0.1498 -0.2977 -0.1507
18545W        W35393  12.734   8.049   1.780  0.0748  0.4557  0.0000
18546W        W35394   4.347  12.904  12.919  0.5374 -0.0976 -0.0015
18547W        W35395   3.775  17.687   0.011 -0.5543 -0.1400 -0.2881
18548W        W35396   1.450  15.602   5.050 -0.1116 -0.0635  0.0818
18549W        W35397   4.809   8.785   4.216  0.0727  0.0262 -0.1140
18550W        W35398   4.454  12.601   3.538  0.3788 -0.2207  0.0070
18551W        W35399   9.284   7.854   4.419 -0.3090 -0.1919 -0.1193
18552W        W35400   4.212  17.237   3.311  0.2707  0.1441  0.1092
18553W        W35401  15.433   9.574  14.474  0.0442 -0.1648  0.0154
18554W        W35402   9.131   4.162  13.898 -0.2533  0.1152  0.0859
18555W        W35403   8.302   8.179  11.839 -0.0782  0.0101 -0.0980
18556W        W35404  17.080  10.799  13.472 -0.0400  0.0292  0.1055
18557W        W35405   4.563  13.084   0.803  0.1336  0.0031 -0.2264
18558W        W35406  16.011   3.245   2.571 -0.1502 -0.0322  0.1060
18559W        W35407  16.306  16.867  11.845 -0.1760 -0.1233 -0.1485
18560W        W35408  16.404   2.700   3.755 -0.1239  0.0508  0.0209
18561W        W35409   0.592  10.559   4.985 -0.1121  0.0295  0.4960
18562W        W35410  12.090  10.628  12.662 -0.0399 -0.0670  0.0286
18563W        W35411   8.503  11.409  15.726  0.3414  0.1942 -0.1402
18564W        W35412   0.534  14.059  15.156  0.1926  0.0860 -0.1316
18565W        W35413   6.722  15.156  15.556 -0.0835 -0.1097  0.3366
18566W        W35414   4.408  13.373  16.569  0.2042 -0.0107  0.0557
18567W        W35415   2.571   1.522   4.829 -0.0825 -0.0127  0.2296
18568W        W35416  13.645   9.271  13.573 -0.0307 -0.0040 -0.0868
18569W        W35417   4.199  17.278   0.130  0.1306  0.3309  0.2323
18570W        W35418  17.290   9.388  15.777  0.1041 -0.0940  0.3806
18571W        W35419   5.276   6.769   5.296 -0.0160  0.0814 -0.1241
18572W        W35420   4.305  11.419  15.948 -0.3196 -0.2479  0.1682
18573W        W35421   5.652  12.560  15.462 -0.1497  0.1193  0.0298
18574W        W35422  16.542  11.276  16.472  0.4874 -0.0632  0.1580
18575W        W35423   9.533   1.055  13.468 -0.0590 -0.0569 -0.0547
18576W        W35424  14.536   2.935   2.889  0.1860 -0.4250  0.0794
18577W        W35425   1.532   7.968   3.335  0.0183 -0.1729 -0.2642
18578W        W35426   1.451   8.727  11.305 -0.0192  0.2393  0.0333
18579W        W35427   8.718  13.577   1.662  0.1293 -0.0811  0.0010
18580W        W35428   4.091   3.719   4.035  0.0190 -0.0656  0.2481
18581W        W35429  10.535   0.348   1.825 -0.0313 -0.0822 -0.0502
18582W        W35430  13.317  12.052  11.291  0.0619  0.2710 -0.3915
18583W        W35431   3.473  17.509   0.358 -0.1744  0.2928  0.3009
18584W        W35432   2.769  13.346  14.940  0.0632  0.0845 -0.0323
18585W        W35433  13.579   4.421   4.139 -0.0323  0.0912 -0.1710
18586W        W35434   6.316   4.818   4.296  0.5770  0.0219 -0.1278
18587W        W35435   2.202  16.154  15.109 -0.0656  0.2880 -0.0076
18588W        W35436   4.642  14.518  12.562 -0.3117  0.1649  0.1783
18589W        W35437   5.379   1.740   2.497 -0.2633  0.2701  0.2183
18590W        W35438  16.327   0.334   0.445  0.1622 -0.1606 -0.2830
18591W        W35439  15.729   3.598  11.614  0.5239  0.0174 -0.0704
18592W        W35440  12.024  10.191  16.171 -0.0515  0.2330  0.2768
18593W        W35441  13.402   3.055  13.228 -0.0944  0.2268 -0.1953
18594W        W35442  11.456   2.493  11.543 -0.2676 -0.1877  0.1734
18595W        W35443  16.433   4.062  12.003 -0.1689  0.1602  0.1808
18596W        W35444  17.741  17.266  12.274  0.0618  0.2757 -0.1533
18597W        W35445  10.112  11.348  15.612 -0.2098  0.2338 -0.0257
18598W        W35446   2.600  11.883  12.339 -0.0516 -0.2187  0.0860
18599W        W35447  16.665   2.587  11.589  0.2111 -0.0707 -0.1163
18600W        W35448  12.126   4.723  13.668  0.0036 -0.1449 -0.1211
18601W        W35449   7.817  16.799  15.317  0.0153  0.0738 -0.4113
18602W        W35450  17.461  11.923   4.483 -0.0484  0.0224 -0.0631
18603W        W35451  12.467   4.055  13.765  0.2426  0.1391  0.1189
18604W        W35452   8.528  10.288   2.636  0.3085 -0.1441  0.2282
18605W        W35453   2.030   0.765  12.330  0.3641 -0.1434 -0.2601
18606W        W35454   5.037  14.020  14.663  0.1210  0.0010  0.0468
18607W        W35455  11.538  14.195   0.746 -0.0512 -0.1642 -0.1485
18608W        W35456   0.564  14.992  13.646  0.3068 -0.0163  0.0726
18609W        W35457   6.326   4.221   0.550  0.0824  0.0797 -0.2232
18610W        W35458  17.555   0.475  15.313  0.1683 -0.2401  0.0652
18611W        W35459   9.564  17.808   2.033  0.1323 -0.0326  0.1678
18612W        W35460   8.620   1.346   2.096 -0.2156  0.0177  0.0115
18613W        W35461   6.853  17.205  13.369  0.3882  0.0534 -0.1385
18614W        W35462   1.404  12.007  14.609 -0.1119  0.0661  0.0507
18615W        W35463   2.486  11.911   1.331 -0.1458 -0.1500  0.1426
18616W        W35464  15.666   0.508  15.364  0.0913 -0.0334  0.0042
18617W        W35465  13.176   3.129  14.212 -0.3698  0.1092  0.1199
18618W        W35466   2.325  16.150  12.474 -0.1438 -0.0465  0.2075
18619W        W35467   2.386  13.617  12.756  0.1583  0.0262 -0.0227
18620W        W35468   8.339  17.482   1.295  0.1348 -0.3006 -0.2122
18621W        W35469  12.737  12.284   1.893  0.2058  0.1935  0.1331
18622W        W35470   2.927  10.377  15.643  0.1089 -0.1025  0.1686
18623W        W35471   1.810  13.951   2.720 -0.1518  0.2254  0.2536
18624W        W35472   7.129   4.062   0.873 -0.0985 -0.1393  0.0513
18625W        W35473   8.475   7.378   2.802 -0.1435  0.0478  0.0464
18626W        W35474   7.870   7.980   0.751  0.3446  0.1015  0.0546
18627W        W35475   3.907   2.227   6.207  0.0341  0.1339  0.0473
18628W        W35476   2.195  14.276  13.875 -0.1824  0.1032  0.1061
18629W        W35477   6.263   0.571  15.446  0.0515  0.3272 -0.0683
18630W        W35478  12.814   7.080   3.625  0.1814 -0.3608  0.1145
18631W        W35479  12.339  17.461   2.428  0.0330  0.0507  0.0203
18632W        W35480  12.768   5.404  12.994  0.2949  0.2488 -0.1944
18633W        W35481   3.430   2.416   0.850 -0.1422 -0.1329 -0.2212
18634W        W35482  12.648   6.083  14.745 -0.1557  0.1118  0.0975
18635W        W35483  15.026  10.017  13.749  0.1487  0.2031 -0.2539
18636W        W35484   1.291  16.608   1.707  0.0217 -0.3107 -0.1702
18637W        W35485   9.094  12.021   0.303 -0.0919  0.0660  0.1379
18638W        W35486   9.070   0.196   0.114  0.0273 -0.1458 -0.0131
18639W        W35487   1.251   2.826  14.505  0.1626 -0.0884  0.0668
18640W        W35488   7.346  10.957  16.173 -0.1715  0.2153  0.0694
18641W        W35489   8.166   6.644   3.320 -0.1492 -0.3029 -0.0159
18642W        W35490   2.898  14.010   3.357 -0.1996  0.2000 -0.3161
18643W        W35491   3.515   5.500  11.110  0.1643 -0.2084  0.3213
18644W        W35492   9.080   3.636   1.622 -0.2295 -0.0850 -0.1591
18645W        W35493  17.084   9.720  14.462  0.2401  0.1569 -0.1167
18646W        W35494   8.913  10.294  11.834 -0.0329  0.0701 -0.1836
18647W        W35495  15.963  15.558   2.302 -0.0452  0.0905  0.1082
18648W        W35496  13.405   6.195  12.834 -0.1819  0.1501 -0.1862
18649W        W35497  11.000   8.523  13.998 -0.2539 -0.3148 -0.0841
18650W        W35498   3.894  12.458   1.847  0.0203  0.0432  0.2878
18651W        W35499   9.074  13.692  13.733 -0.1137 -0.0557 -0.1863
18652W        W35500  17.105  10.015   3.292 -0.0422 -0.1108 -0.2715
18653W        W35501  11.999   1.711   2.933 -0.0695  0.0519 -0.4080
18654W        W35502  17.489  16.093  12.471  0.1128 -0.2101  0.0549
18655W        W35503  12.500  17.430   5.250 -0.1402 -0.0911  0.2964
18656W        W35504  13.487   9.572  14.663 -0.0381  0.0287 -0.2810
18657W        W35505  10.287  13.154  13.101  0.1002 -0.1591 -0.1962
18658W        W35506   7.842  14.065  10.469  0.0545  0.1665 -0.0228
18659W        W35507   3.232   1.401  15.587 -0.4436 -0.0236  0.0852
18660W        W35508   9.988   3.100  16.605 -0.0307 -0.0091  0.1797
18661W        W35509  10.722  15.162   1.805 -0.0826  0.1108  0.0885
18662W        W35510   0.653   4.130   0.251  0.1927 -0.0672 -0.1013
18663W        W35511  14.396   8.440   4.861 -0.2646 -0.2946  0.0398
18664W        W35512   1.983  13.354  12.949 -0.5802 -0.1299  0.0627
18665W        W35513   4.200   6.842   3.948 -0.0255 -0.0443 -0.0380
18666W        W35514  12.844   5.729  12.023  0.1684 -0.5595 -0.0034
18667W        W35515  13.967   7.364   2.263 -0.1499 -0.1336  0.1644
18668W        W35516  13.190  17.699   0.885  0.2397  0.1277 -0.1095
18669W        W35517   8.206   5.057  16.451 -0.1311 -0.1268  0.1788
18670W        W35518   4.346   9.769  13.700 -0.0138 -0.1743  0.1858
18671W        W35519  10.483   3.692   1.883 -0.1323  0.0261  0.0620
18672W        W35520   3.911  10.725   3.761 -0.0492  0.1921 -0.0176
18673W        W35521   4.230  15.447  16.020  0.0146  0.2463 -0.0167
18674W        W35522   6.947  11.708  16.031  0.1407 -0.0145 -0.4642
18675W        W35523  13.278  13.884   0.805  0.0405  0.0214  0.1306
18676W        W35524  17.842  12.546  12.753 -0.0609 -0.1081  0.1514
18677W        W35525  13.688  12.041  15.810  0.0937  0.1494  0.0472
18678W        W35526   8.984  12.680  13.897  0.1308  0.0648  0.1099
18679W        W35527   0.040   8.100   0.234 -0.1570 -0.1112 -0.2339
18680W        W35528   6.562  16.376  16.566 -0.2361 -0.0107  0.0639
18681W        W35529  13.769   8.277  13.049 -0.1439  0.4422  0.1544
18682W        W35530   4.566   7.204   3.740  0.3133 -0.2579 -0.2053
18683W        W35531   4.883   5.285   3.645  0.1284 -0.1084  0.0523
18684W        W35532   6.461  17.586  13.391  0.0911  0.1986  0.0168
18685W        W35533   3.983   6.389   0.057  0.0309 -0.2676  0.2800
18686W        W35534  15.406   5.492   0.182  0.0120  0.0635  0.1643
18687W        W35535  16.491   2.134  11.892 -0.0928 -0.3338 -0.1284
18688W        W35536   4.134  10.439   0.666 -0.1859 -0.3356  0.1680
18689W        W35537   7.195   8.818   0.210 -0.0073  0.2278  0.4990
18690W        W35538   0.729  17.482  15.482 -0.1838 -0.3674 -0.0412
18691W        W35539   1.113   0.488  14.098  0.1983  0.1855 -0.0766
18692W        W35540   7.806  11.192  14.122  0.1751  0.0537 -0.2104
18693W        W35541   9.821   6.413  11.462  0.1906  0.1477 -0.1089
18694W        W35542  13.079   2.021   0.537 -0.1941  0.0102 -0.0636
18695W        W35543  17.413   1.003  15.796 -0.1436 -0.0072 -0.1247
18696W        W35544   5.395  10.963   0.160  0.1030 -0.0357 -0.0624
18697W        W35545   9.831   3.050  13.370 -0.0799  0.1203  0.2982
18698W        W35546  12.453   6.061   0.315  0.0427  0.0162  0.1473
18699W        W35547   7.907   5.723   0.975  0.0356 -0.3297  0.1442
18700W        W35548   8.152  16.172   1.651  0.1316 -0.1376 -0.0103
18701W        W35549  16.190  17.779  15.993  0.0921 -0.2154  0.0151
18702W        W35550   4.012   1.746   4.423 -0.0893 -0.2909 -0.0656
18703W        W35551   6.501   9.091  12.577 -0.2405  0.0474  0.3249
18704W        W35552   8.798  14.904   3.799  0.0096  0.0613  0.2523
18705W        W35553   1.979   3.358   2.498  0.2701  0.2324 -0.0274
18706W        W35554  11.165  10.132   5.641  0.1190 -0.3041  0.0340
18707W        W35555   0.420   5.775  11.887 -0.2060 -0.2311 -0.1176
18708W        W35556   2.766   4.724   1.199 -0.1622  0.1262 -0.0243
18709W        W35557   6.796  10.751   0.098  0.3064 -0.0820  0.1878
18710W        W35558   4.188  12.251   1.138  0.0942 -0.1674 -0.0249
18711W        W35559  13.154   2.752  15.128 -0.1402  0.1099 -0.0871
18712W        W35560   9.995  12.942   4.060  0.1725 -0.0992  0.0550
18713W        W35561  13.397   2.319  14.723 -0.2092 -0.0077 -0.0005
18714W        W35562   9.240   9.874  11.843  0.4151  0.2398 -0.0159
18715W        W35563  10.947  15.314  13.658  0.3828 -0.1103  0.0919
18716W        W35564   3.797  14.011  15.267 -0.1011  0.3162  0.2388
18717W        W35565  17.272  11.853  16.629 -0.3543  0.1136  0.0820
18718W        W35566   9.126  14.732   1.026  0.0366 -0.0191 -0.0389
18719W        W35567   5.884  11.798  12.110  0.0124 -0.2044  0.0206
18720W        W35568   1.543   8.626   1.347  0.1677 -0.2211  0.3257
18721W        W35569   3.142   3.435   3.941  0.0036 -0.2382  0.2252
18722W        W35570   3.647   9.701  15.740 -0.0534  0.0519  0.1669
18723W        W35571   8.111   0.434   4.088  0.1980 -0.0103 -0.0389
18724W        W35572   5.348   6.463  11.212  0.1499  0.5035 -0.0471
18725W        W35573  11.636   1.264   0.475 -0.1116 -0.1838  0.2013
18726W        W35574   8.023  15.683  11.943  0.1497 -0.4284 -0.0683
18727W        W35575  16.152   8.256   4.904 -0.1584  0.1053  0.2412
18728W        W35576   8.890  11.369   1.465 -0.0920 -0.2447  0.3137
18729W        W35577  15.399  10.534  12.940 -0.0560 -0.1914  0.2248
18730W        W35578   9.729  12.562  14.131 -0.2215 -0.1249 -0.1316
18731W        W35579  17.186  15.890   4.436  0.0280  0.3878 -0.0704
18732W        W35580   3.539  11.857  13.297 -0.0685 -0.0547 -0.0541
18733W        W35581   1.621  12.298  11.509 -0.3155 -0.1013 -0.0798
18734W        W35582  13.758   1.661  12.918  0.0541 -0.0363  0.0238
18735W        W35583  16.386   1.419  13.600 -0.1659  0.3093  0.1222
18736W        W35584   6.776  11.065   4.668 -0.0196  0.0693  0.0388
18737W        W35585   5.451   5.294   0.879 -0.3661 -0.0528  0.0392
18738W        W35586   1.246   7.240  15.923 -0.0388 -0.3553 -0.0065
18739W        W35587  15.529  15.867  14.622 -0.1159  0.0544  0.0730
18740W        W35588  17.319   3.345  13.156 -0.0702 -0.1501 -0.5289
18741W        W35589   9.936  11.464  14.245 -0.1664  0.0698 -0.1408
18742W        W35590  13.213   3.691  14.079  0.2488 -0.0621 -0.0561
18743W        W35591   1.653  16.380  14.446 -0.1031  0.3484  0.0955
18744W        W35592  13.310   7.412  14.527  0.1668 -0.2079  0.0236
18745W        W35593   1.927  16.139   3.831 -0.3231  0.0077 -0.0384
18746W        W35594   4.887   3.505   2.203  0.1812 -0.1002 -0.4040
18747W        W35595  14.694   4.831   2.376 -0.0043 -0.0771  0.0371
18748W        W35596  17.408   6.139  12.522  0.2263 -0.0204  0.0275
18749W        W35597   5.599   8.526   0.053  0.2464  0.0228  0.1741
18750W        W35598  10.329  10.475   0.249 -0.2514 -0.2696 -0.0411
18751W        W35599  12.281   1.074  12.905 -0.1600  0.0972 -0.0274
18752W        W35600  12.256  10.131  12.420  0.1529 -0.0453 -0.1531
18753W        W35601  16.887   0.302  11.562 -0.0412 -0.0593 -0.0576
18754W        W35602  15.579   2.685  13.344  0.2171 -0.2350  0.0057
18755W        W35603  17.008   6.247  13.988 -0.0743 -0.4388 -0.0613
18756W        W35604   5.800   2.943  16.213  0.0511 -0.1654  0.0054
18757W        W35605   1.239   9.428  15.244 -0.1673  0.0699 -0.1660
18758W        W35606   6.156   4.360   4.552  0.0511  0.0295 -0.0229
18759W        W35607  17.202   5.786  12.140  0.2979 -0.2305  0.0723
18760W        W35608  12.656  11.014  13.421 -0.2251 -0.1112  0.3744
18761W        W35609   1.781   2.344   1.071  0.0775 -0.1262  0.1349
18762W        W35610  10.740   6.057  12.320 -0.0507  0.3692 -0.0607
18763W        W35611  11.744  16.953   0.380  0.0060  0.2334  0.1136
18764W        W35612   2.706   4.026   4.816  0.2920  0.0553 -0.4185
18765W        W35613   7.748   1.855  12.773 -0.0580 -0.3190 -0.1439
18766W        W35614  12.285   7.202   3.765 -0.1397 -0.3352  0.0640
18767W        W35615   4.729  15.795   0.568 -0.2808  0.0191  0.0465
18768W        W35616   2.429   7.196   4.084 -0.1349  0.1731  0.1648
18769W        W35617  10.164   8.735   0.012 -0.1516  0.1236  0.1690
18770W        W35618   8.231   1.436   1.705  0.2844 -0.0529  0.1860
18771W        W35619  16.223   8.888  11.110 -0.0434 -0.4829 -0.0653
18772W        W35620  16.495  16.785  13.071  0.0457 -0.5089  0.1844
18773W        W35621  15.307  11.834   0.316 -0.0675 -0.1243 -0.0153
18774W        W35622  16.670   5.357  14.210 -0.2032  0.2016  0.2195
18775W        W35623   7.025  17.683  13.495 -0.0284  0.2497 -0.1549
18776W        W35624   2.512   1.365  16.432  0.1735  0.0808  0.0451
18777W        W35625  15.723  17.084   4.932  0.0806 -0.0664 -0.2159
18778W        W35626   9.472   5.107  11.653  0.0805  0.1281  0.1093
18779W        W35627   5.513   9.918   5.054 -0.0080 -0.0309  0.3890
18780W        W35628   7.062   8.608   5.603 -0.0422 -0.2321  0.0385
18781W        W35629   9.781   2.288  15.904  0.2120 -0.0583  0.0965
18782W        W35630   5.007   2.143  15.125 -0.1324 -0.1946  0.2871
18783W        W35631   9.535  12.663   3.786  0.0117  0.0329 -0.6321
18784W        W35632  11.862  11.537  15.854  0.0721  0.1597  0.0659
18785W        W35633   1.732   9.478  15.599 -0.0874  0.3616 -0.1127
18786W        W35634   5.632   7.119  12.420 -0.2198 -0.2246  0.0972
18787W        W35635  15.035   7.195  12.706 -0.1764 -0.3671 -0.3180
18788W        W35636  10.969   4.176  16.380 -0.0609  0.1344  0.2243
18789W        W35637   1.845  15.596   6.208 -0.1569  0.1586 -0.0535
18790W        W35638   4.555  17.462  12.436 -0.0608  0.0743  0.2840
18791W        W35639   1.604  10.844  14.807  0.0850  0.0531  0.0834
18792W        W35640  11.833   9.698   0.471 -0.3354  0.3108  0.0420
18793W        W35641  16.981  16.875  16.421 -0.0414 -0.3196 -0.0652
18794W        W35642   3.932   6.209   4.587 -0.2958 -0.1454 -0.0882
18795W        W35643   9.310   1.294  11.754  0.0863  0.1941 -0.0170
18796W        W35644   0.266   1.525  16.189 -0.0999  0.2233 -0.1225
18797W        W35645   0.603   6.842   4.661 -0.1241  0.2188 -0.0812
18798W        W35646  11.628  11.748  14.965  0.0600 -0.1886 -0.1393
18799W        W35647   3.488  15.246  12.032 -0.1570 -0.2780 -0.1973
18800W        W35648  15.601  11.202   2.991 -0.0276 -0.3911  0.0667
18801W        W35649   3.610   8.163   5.111  0.1230 -0.2679 -0.3069
18802W        W35650   8.188   7.837   4.514 -0.1213 -0.0627 -0.1179
18803W        W35651  16.884   1.267   4.974  0.0881 -0.1449  0.2517
18804W        W35652   7.129   0.246   4.053 -0.2866  0.0155 -0.1380
18805W        W35653  15.949  15.719   1.728  0.0507 -0.2054  0.0620
18806W        W35654  15.943   7.330  14.311  0.2372  0.2604 -0.2115
18807W        W35655   1.258   6.055  11.995  0.2393  0.1410 -0.2148
18808W        W35656   5.171  11.984   5.023 -0.2094 -0.0654 -0.2105
18809W        W35657   8.941  13.435  14.871 -0.0139  0.3044  0.0384
18810W        W35658  14.775  13.500  15.047  0.0760 -0.1197 -0.0212
18811W        W35659  11.388  10.277   4.655 -0.1606 -0.2237  0.1936
18812W        W35660   0.149  14.120  16.418 -0.0167  0.0196 -0.2907
18813W        W35661   5.583  15.929   3.533  0.2599  0.1234 -0.0046
18814W        W35662   1.845  15.176  13.841 -0.1005 -0.0508  0.0511
18815W        W35663   8.400   0.631   0.589 -0.1718  0.0994  0.1675
18816W        W35664  10.673   0.830   4.871 -0.0673 -0.4125 -0.3788
18817W        W35665  13.560  14.448   3.731 -0.0753  0.4296  0.0778
18818W        W35666   3.710  13.546  12.373 -0.1725  0.0446 -0.1855
18819W        W35667   1.204   4.859   1.709 -0.2074 -0.0034  0.2057
18820W        W35668  13.249   5.468  14.281  0.0941  0.0526  0.0903
18821W        W35669  11.048  11.370  16.301 -0.1518 -0.2334  0.0171
18822W        W35670   1.323   1.882   1.948 -0.0293 -0.2045  0.1509
18823W        W35671   2.991   1.406   1.536 -0.0268  0.0399 -0.0160
18824W        W35672   4.067   1.932  16.461 -0.2154  0.2692 -0.0936
18825W        W35673   5.046   4.211   1.515 -0.1727  0.0156  0.0192
18826W        W35674   5.223  17.419   0.831  0.0512  0.0667 -0.1464
18827W        W35675   3.495  11.949   2.926  0.1504  0.3363  0.2063
18828W        W35676   6.932  12.073   0.376 -0.0111 -0.0579  0.0322
18829W        W35677  11.753  10.156   1.611 -0.0670 -0.1992 -0.1417
18830W        W35678   8.138  16.110   0.660  0.2063  0.1698  0.2441
18831W        W35679  11.876   5.200  14.538  0.1318 -0.3143 -0.3694
18832W        W35680   8.981   6.939  15.132 -0.1269 -0.0748 -0.0965
18833W        W35681   9.592   2.844  14.408  0.0897 -0.1319  0.0160
18834W        W35682   0.916  10.901  15.918 -0.3249 -0.1480 -0.1906
18835W        W35683   1.558   3.315  13.727  0.4095  0.0837 -0.4732
18836W        W35684  13.135   5.237  11.768  0.1116  0.0266  0.0227
18837W        W35685   6.606  11.492  16.445 -0.1156 -0.0918  0.0137
18838W        W35686   9.431   5.504  11.256 -0.1996  0.2702 -0.0810
18839W        W35687  12.967   0.734  11.727 -0.1085 -0.1131 -0.1958
18840W        W35688  13.396   2.616   3.521 -0.0516  0.0289 -0.4839
18841W        W35689   7.473   9.803  12.039 -0.0999  0.2265  0.2550
18842W        W35690   3.147   6.071  14.611  0.3357 -0.2191 -0.0299
18843W        W35691  16.649  13.503   1.581 -0.1344 -0.1233 -0.0654
18844W        W35692  14.539  14.953  12.281  0.0026 -0.2509  0.0392
18845W        W35693  14.026   9.312  16.112 -0.3992  0.0355 -0.1491
18846W        W35694   5.485  14.788  12.252  0.1592 -0.1801 -0.0859
18847W        W35695   8.891  17.199  15.820  0.0393  0.3302  0.1608
18848W        W35696  15.826  15.077  16.248  0.1668 -0.3249 -0.1683
18849W        W35697   0.038  16.050  13.237 -0.5717 -0.0220 -0.0164
18850W        W35698   7.628  16.396  15.489  0.1336 -0.0256 -0.1016
18851W        W35699  14.953  13.793  12.301 -0.2421  0.3900  0.0849
18852W        W35700  12.207   5.287   0.924 -0.0293  0.0430 -0.0559
18853W        W35701  12.602  14.970  15.301  0.1719 -0.2215 -0.0794
18854W        W35702   9.455   2.545   3.138 -0.0171 -0.0993 -0.0778
18855W        W35703   1.447   2.824   1.004  0.2024  0.1189 -0.0799
18856W        W35704   8.726  16.729  15.639  0.3180  0.3070 -0.0282
18857W        W35705   8.189   8.712  12.045  0.1004  0.0126  0.2232
18858W        W35706  12.231  16.664   3.308  0.1524 -0.4685  0.0199
18859W        W35707   3.901   0.574   1.657  0.0228 -0.1217 -0.0187
18860W        W35708   1.526   2.970  13.126 -0.3170 -0.0266 -0.1561
18861W        W35709   5.627   3.660   3.102  0.0630  0.0469 -0.1030
18862W        W35710   9.412  13.647   4.856  0.4411  0.1820  0.2804
18863W        W35711  17.248   1.478  15.824 -0.0455 -0.0134 -0.0222
18864W        W35712   5.775   3.002   1.445 -0.0688 -0.0828  0.0401
18865W        W35713  13.862   1.931  15.658  0.0719 -0.0510  0.0261
18866W        W35714   5.966   2.835   3.179  0.1207  0.2523 -0.1171
18867W        W35715  16.587   0.988   5.328  0.2515 -0.2700 -0.3296
18868W        W35716   3.882   4.534   3.738 -0.1779  0.0062 -0.2292
18869W        W35717  10.012   5.916  10.507  0.0867 -0.0530 -0.1619
18870W        W35718  13.152   2.761   5.077  0.2885 -0.0215 -0.2860
18871W        W35719   7.944   2.348   3.766  0.0484 -0.0134  0.0716
18872W        W35720  13.595   2.145  15.184  0.2728  0.2473  0.0629
18873W        W35721   4.503   4.147  11.661 -0.2097 -0.1556  0.1601
18874W        W35722  13.884   9.688   0.475  0.0084  0.0086  0.1111
18875W        W35723   8.996  17.250   1.959 -0.0171  0.1143 -0.0162
18876W        W35724   8.240   9.846   0.702  0.0777  0.0021 -0.0524
18877W        W35725   7.216   1.377   1.014  0.2065 -0.1201  0.1974
18878W        W35726   1.725   2.214  13.756 -0.3551  0.0422 -0.1404
18879W        W35727  10.504   7.593   2.237 -0.0100 -0.1027 -0.2841
18880W        W35728  13.855  16.435   4.025 -0.2266  0.0140 -0.0411
18881W        W35729   0.567   9.625   0.869  0.3940 -0.1615  0.0208
18882W        W35730   6.958   1.897  16.215 -0.5989  0.0529 -0.1738
18883W        W35731  15.909  12.680  14.600 -0.0386 -0.2085  0.0880
18884W        W35732  10.335  15.838   2.630  0.0662  0.1874 -0.1252
18885W        W35733   2.595  14.165   4.870 -0.0561  0.0901 -0.0104
18886W        W35734   3.747   2.071   0.556  0.1221 -0.0707 -0.1326
18887W        W35735   3.964  10.346   4.503  0.2015  0.0127  0.0436
18888W        W35736  13.972   2.962   5.072 -0.1068 -0.1610 -0.0655
18889W        W35737   9.549  11.742   4.508  0.1066  0.3745 -0.1300
18890W        W35738  13.075  15.756   5.137 -0.0518  0.0783  0.1284
18891W        W35739   0.850   4.800  16.155  0.1799 -0.0823  0.2458
18892W        W35740  17.214  10.626  12.157 -0.3177  0.0605  0.3644
18893W        W35741   8.131   3.676   0.401 -0.0474  0.1959  0.0763
18894W        W35742  13.125   9.329   3.941 -0.1364 -0.0480  0.3800
18895W        W35743   8.573   5.275   1.328 -0.1239 -0.1485  0.4434
18896W        W35744  11.542   4.889  10.235 -0.2573 -0.0021  0.1268
18897W        W35745   4.887   6.232  11.233 -0.2822 -0.2148  0.0436
18898W        W35746   0.659  15.238  11.403 -0.1343 -0.2039 -0.2289
18899W        W35747   5.618   2.389   3.724  0.0218 -0.1221  0.2230
18900W        W35748   6.467   7.731  14.717  0.1853 -0.1167 -0.0236
18901W        W35749  11.070   6.239  16.249  0.0331  0.0727  0.0032
18902W        W35750   1.436   8.978  13.993  0.0294 -0.0666 -0.3898
18903W        W35751   6.176   8.755   4.539  0.0365 -0.1700 -0.1358
18904W        W35752  12.621   5.309   2.368  0.1234 -0.0380  0.2643
18905W        W35753  14.762  13.016  13.624 -0.0746 -0.0127  0.0292
18906W        W35754  13.205   8.292   2.800  0.0732  0.0434  0.2505
18907W        W35755   6.878   3.112  16.183 -0.2185 -0.5286 -0.0723
18908W        W35756   8.070  14.974   6.073  0.1496 -0.2238 -0.1062
18909W        W35757  14.051   0.716  14.472  0.2037  0.3505  0.2461
18910W        W35758   6.355  12.025   2.940 -0.0059 -0.1426 -0.0652
18911W        W35759  14.218   5.248  10.536 -0.0016 -0.0335 -0.0951
18912W        W35760   1.022   0.948   2.150 -0.1583  0.1778  0.0447
18913W        W35761   1.968  16.694  13.569  0.0753 -0.2955 -0.0626
18914W        W35762  15.581   2.158  12.254  0.1371  0.2301 -0.1752
18915W        W35763   7.045  12.908  13.331  0.2513  0.4026 -0.0781
18916W        W35764   6.725  15.216   5.800  0.0952 -0.2071  0.0498
18917W        W35765  14.432   8.289   1.292  0.0681  0.3098  0.1404
18918W        W35766   0.722  12.188  13.163  0.5196 -0.1774  0.0068
18919W        W35767  11.838  13.800  14.088  0.0792 -0.0361  0.4200
18920W        W35768  14.235   3.152   1.914  0.2949  0.0313 -0.1465
18921W        W35769  16.921   1.780  14.695 -0.0709  0.0656  0.3616
18922W        W35770  11.320   8.458   2.788  0.0118 -0.0421  0.1940
18923W        W35771   1.985  13.549   0.923  0.0664  0.0628  0.0683
18924W        W35772  14.244   5.890  16.557  0.2859 -0.1141  0.0864
18925W        W35773   7.482   0.553  16.285 -0.0238  0.0829  0.1229
18926W        W35774   0.974  10.482  13.061  0.4125 -0.0461 -0.2103
18927W        W35775   7.353   3.702  16.542 -0.3020 -0.0627  0.1835
18928W        W35776  15.186   5.122  14.338 -0.0354  0.1477 -0.2576
18929W        W35777   8.706   1.528   3.436  0.1292  0.1172  0.3232
18930W        W35778   6.725  10.699   2.853 -0.0462 -0.2753  0.1952
18931W        W35779   1.168   9.279  14.268  0.2284 -0.0879  0.3595
18932W        W35780   5.445  14.497   3.040  0.0405  0.0689  0.1142
18933W        W35781  17.852   9.527   0.912  0.2265 -0.3588 -0.1324
18934W        W35782  15.918  17.736   4.373  0.0293 -0.0243  0.3076
18935W        W35783  15.210   2.707   5.291 -0.2193  0.1794 -0.1245
18936W        W35784  13.316   4.845   4.366 -0.0894  0.0611  0.0791
18937W        W35785   7.821   7.298   2.833 -0.1006  0.0010  0.2225
18938W        W35786   6.201  12.201   1.345  0.1387 -0.0633  0.1564
18939W        W35787  15.194   4.021  14.756  0.1743 -0.2063 -0.0791
18940W        W35788   1.801  13.492  16.371  0.0271  0.1785 -0.2199
18941W        W35789   9.116   1.103  14.330  0.1575  0.0732 -0.1424
18942W        W35790   6.940  13.354  16.540  0.0887 -0.3021  0.0000
18943W        W35791   4.039  12.072  15.256  0.0502  0.2667  0.2729
18944W        W35792  10.959   7.153  13.092  0.1406 -0.3529  0.0725
18945W        W35793   6.467   9.166  16.182 -0.4243  0.2403  0.0042
18946W        W35794  14.359   4.115  13.695  0.2749  0.1172  0.0223
18947W        W35795  16.013   4.004   0.866 -0.0331  0.2869  0.1127
18948W        W35796   5.893  11.888  12.961 -0.0990 -0.2262  0.0329
18949W        W35797  10.856   8.061  13.118 -0.1090  0.2132  0.2110
18950W        W35798   2.139   4.116  14.347  0.1467  0.0301  0.2220
18951W        W35799   8.007  16.081  15.226  0.2157  0.0602 -0.0184
18952W        W35800  12.148   4.648   5.414  0.0825  0.1521  0.0001
18953W        W35801  16.393   6.804   3.731  0.2781  0.3488  0.0023
18954W        W35802   6.998  16.962  12.382  0.0370 -0.1393  0.1756
18955W        W35803  12.485  16.012   1.640 -0.2405 -0.1788  0.2447
18956W        W35804   6.491   0.938   0.072 -0.0116  0.3117 -0.2412
18957W        W35805   4.079   9.764  11.947 -0.0598 -0.2427  0.0188
18958W        W35806  16.552   3.683   5.461 -0.1712 -0.0948 -0.3224
18959W        W35807   6.109  12.831   1.920 -0.1539 -0.1963  0.0112
18960W        W35808  13.272  13.967   2.453  0.0028 -0.2201 -0.1020
18961W        W35809   2.253   5.572  15.293 -0.1363  0.4225  0.1564
18962W        W35810   6.744  13.014  11.962  0.1214  0.0864 -0.1055
18963W        W35811   4.062   4.567  15.440  0.2190  0.0130  0.3221
18964W        W35812   3.183  17.197  16.163 -0.1467  0.0726 -0.1809
18965W        W35813  13.117  12.207  16.003  0.1996 -0.1536  0.0139
18966W        W35814   0.481  14.816  15.173  0.0142 -0.3104  0.1973
18967W        W35815   6.117   7.699   2.554 -0.2062  0.1141 -0.4986
18968W        W35816   5.070   5.014   0.818 -0.1883 -0.1708 -0.0850
18969W        W35817   2.257  10.534   0.278 -0.0101 -0.2922  0.0087
18970W        W35818   0.457   7.886   5.276 -0.0899  0.3931  0.0226
18971W        W35819   5.600   2.489  15.951  0.0715  0.0214  0.1589
18972W        W35820  13.687   3.024   2.317 -0.0606  0.3355  0.0222
18973W        W35821  12.069  16.852  14.029  0.0102 -0.1543  0.0369
18974W        W35822  17.525   7.800   3.431 -0.1097  0.0925 -0.0730
18975W        W35823  14.372  13.204  12.324 -0.0338  0.1918  0.0053
18976W        W35824   4.864  16.875  13.398 -0.2622 -0.1279  0.1611
18977W        W35825  12.248  10.852  15.633 -0.1288  0.2137  0.1367
18978W        W35826  15.381  12.404   0.036  0.0092  0.1108 -0.0147
18979W        W35827  15.483   3.111  16.019  0.1177  0.1785  0.1630
18980W        W35828   1.999   3.157  16.447  0.0386  0.0621  0.1761
18981W        W35829   9.758  16.829  12.237  0.2570  0.1898 -0.2144
18982W        W35830   9.075  17.701   5.559  0.1145 -0.1078  0.1617
18983W        W35831   3.507  16.661  14.183  0.3201  0.4870 -0.0284
18984W        W35832   0.389   0.667  12.519  0.1858  0.1769  0.0466
18985W        W35833  17.176  11.503   3.477  0.4426  0.2921  0.0887
18986W        W35834  12.461  12.280  14.005  0.2492 -0.0922 -0.1656
18987W        W35835  16.974   3.559   3.566 -0.1669  0.1797 -0.2226
18988W        W35836  10.002   1.680  15.614  0.0177 -0.2009  0.1592
18989W        W35837   2.009  14.911   0.710  0.0516 -0.1833 -0.1808
18990W        W35838   2.476   8.403  15.720 -0.0988 -0.1270 -0.1776
18991W        W35839   0.078   9.201  11.560 -0.2539 -0.0367  0.3599
18992W        W35840   5.443   0.936  15.687  0.0317 -0.3140  0.0419
18993W        W35841  16.463  16.413   2.130 -0.2026 -0.1330  0.1353
18994W        W35842  16.902   1.507  15.188  0.2357  0.1946  0.2295
18995W        W35843  16.491  16.118   5.290  0.1819 -0.0545 -0.0741
18996W        W35844   6.910  16.063   2.753 -0.0287 -0.0635 -0.1991
18997W        W35845   1.216  17.811   4.199  0.2539 -0.1361  0.6175
18998W        W35846  10.867  17.297  15.496  0.0492 -0.0414 -0.1008
18999W        W35847   0.077   1.503   2.288 -0.0902 -0.0328 -0.0434
19000W        W35848   7.612   2.568   4.660  0.0629  0.1968 -0.1878
19001W        W35849   7.407  17.265   4.448 -0.0228 -0.0841  0.3155
19002W        W35850   1.304   9.327   0.918 -0.3584 -0.1353 -0.1710
19003W        W35851   7.156   9.565  15.701 -0.0312 -0.0318 -0.1416
19004W        W35852  12.945   2.798  13.052 -0.2379 -0.0351  0.0421
19005W        W35853   3.699   5.178   1.971  0.0880  0.1160 -0.0213
19006W        W35854   9.301   7.401   0.301  0.2526 -0.0416  0.1159
19007W        W35855   6.625   1.533  12.142  0.2880  0.0823  0.0204
19008W        W35856  15.680   3.049   5.345 -0.2613 -0.0565  0.1196
19009W        W35857   0.207  10.321   0.136 -0.1664 -0.2751 -0.2243
19010W        W35858   5.417   4.893  13.897  0.0045  0.2203  0.0198
19011W        W35859  13.299  15.398   1.106  0.0000  0.0142  0.2044
19012W        W35860   6.180  14.808   4.170 -0.1289  0.0715 -0.1798
19013W        W35861  12.079  11.714   2.570  0.0022  0.1817  0.0965
19014W        W35862  11.899   3.745  16.428 -0.0218  0.3238 -0.0630
19015W        W35863  10.211   0.009   0.353 -0.0091 -0.0714  0.1622
19016W        W35864   4.790  13.195  12.298 -0.0954 -0.0199  0.3233
19017W        W35865  13.903  12.322  12.171  0.0768 -0.0009  0.2186
19018W        W35866   5.258   0.430   2.712  0.2162 -0.3547 -0.2237
19019W        W35867   5.851  10.529   4.599  0.2007  0.2057 -0.1665
19020W        W35868   2.970   5.331   3.175 -0.0437 -0.0661 -0.0401
19021W        W35869  12.958  12.605  15.525 -0.1548 -0.3211  0.0579
19022W        W35870  10.391  11.457   3.049  0.0583 -0.0778  0.0914
19023W        W35871   9.509   5.585  11.782 -0.0360 -0.2050 -0.3103
19024W        W35872   8.461   5.194   2.771  0.0471 -0.0946  0.1134
19025W        W35873  16.370  15.411  12.322 -0.0271 -0.0421 -0.0778
19026W        W35874  16.652  13.302  16.002 -0.1610 -0.0539  0.2384
19027W        W35875   3.638  15.292  14.744 -0.1134 -0.0674 -0.2567
19028W        W35876  12.264  16.555   0.021  0.1465 -0.1847 -0.0148
19029W        W35877   0.463   9.634  13.786 -0.2022  0.1074 -0.0699
19030W        W35878  10.851   4.000   2.106 -0.1071 -0.2416 -0.0516
19031W        W35879   2.829  11.999   0.025  0.0942 -0.1366 -0.0175
19032W        W35880   1.206   7.175   1.013  0.1419  0.3388  0.0872
19033W        W35881   8.340   4.556  15.496 -0.2770 -0.1540 -0.1558
19034W        W35882   7.501   2.769  12.670  0.1249 -0.3646 -0.2599
19035W        W35883   2.159   2.939  11.743  0.0358 -0.0543 -0.0545
19036W        W35884  10.746  14.297  12.506 -0.0537 -0.0960 -0.2575
19037W        W35885   1.096  15.544   2.107  0.0919 -0.0434 -0.2870
19038W        W35886  12.338   8.399   0.996 -0.1377  0.2798 -0.2562
19039W        W35887   1.597   0.177  13.052  0.1425  0.1244  0.0267
19040W        W35888   9.878  14.804   2.030 -0.2148 -0.0414 -0.0554
19041W        W35889   6.586  12.481  12.591  0.1363  0.0538  0.0104
19042W        W35890   2.449   4.242   0.202  0.0837 -0.2000  0.1809
19043W        W35891   0.125  17.332   2.950 -0.0581 -0.1057  0.0665
19044W        W35892  17.634  16.775   5.254 -0.1901  0.2393  0.3124
19045W        W35893   2.723  14.592   1.460 -0.1084  0.1812  0.2362
19046W        W35894   8.088  11.306  15.340  0.0238  0.0118  0.0600
19047W        W35895   6.388  12.933   4.535 -0.1986  0.1711  0.0112
19048W        W35896   3.449  14.224  13.700  0.0140 -0.1069  0.2052
19049W        W35897   4.545  15.340  14.929 -0.2860 -0.1633  0.3833
19050W        W35898   9.516  13.797  15.857  0.0373 -0.0024 -0.1151
19051W        W35899   1.675   0.362   4.955 -0.1581 -0.1243 -0.1502
19052W        W35900  11.315   7.211  16.188 -0.3077 -0.0317  0.0443
19053W        W35901   9.152   2.938  11.123 -0.1324  0.0417 -0.0451
19054W        W35902  12.619  12.415  15.953 -0.2731 -0.0714 -0.1095
19055W        W35903  10.364  13.683   3.939 -0.0671 -0.1890  0.2884
19056W        W35904   9.198  11.961   1.385  0.0248  0.1993  0.0668
19057W        W35905  15.925  13.389   0.320 -0.3948  0.1963  0.1504
19058W        W35906   5.031   5.787  13.810 -0.4210 -0.0987  0.0264
19059W        W35907   5.584   7.093  14.893  0.3210 -0.0157 -0.0491
19060W        W35908   1.291   6.169  11.476  0.0100  0.0955 -0.6268
19061W        W35909   6.968   5.299   0.186  0.1636  0.1085 -0.0033
19062W        W35910   9.491   3.628   5.481  0.0713 -0.1000  0.0736
19063W        W35911  10.761   3.246   4.509 -0.4684 -0.0587 -0.2054
19064W        W35912   8.314   8.347   2.842  0.2297 -0.0347  0.2753
19065W        W35913  11.881   0.822   3.022  0.0033  0.2754 -0.0567
19066W        W35914  16.240  12.457   1.337  0.3725 -0.2283 -0.0857
19067W        W35915  11.115   4.550   3.429 -0.1816  0.0533 -0.1604
19068W        W35916   9.441   1.230   4.372 -0.0279 -0.1653 -0.0926
19069W        W35917   4.513  11.901   2.026 -0.0811  0.2157 -0.2678
19070W        W35918   4.258  14.883   5.654 -0.2930 -0.1665 -0.3630
19071W        W35919  11.411   8.496  13.669 -0.0874  0.0575  0.1701
19072W        W35920   8.808   3.799   0.919 -0.1821  0.0535 -0.1050
19073W        W35921  17.504   8.029  14.977 -0.2642  0.0184  0.0121
19074W        W35922  12.405   5.833   5.079 -0.0689 -0.3079 -0.0225
19075W        W35923   3.078   8.499   0.288  0.1774 -0.1189 -0.1504
19076W        W35924   9.998   4.263   2.335 -0.3340 -0.0818  0.1302
19077W        W35925   0.835   6.044  11.693 -0.0495  0.0802  0.2802
19078W        W35926   8.511  11.395  14.501  0.2500 -0.2314  0.2607
19079W        W35927   5.497  14.274   2.454 -0.1918  0.1309  0.2260
19080W        W35928   7.770  15.891   4.073  0.2278 -0.4176  0.1255
19081W        W35929  13.619   8.132  14.529  0.2223 -0.0333 -0.1233
19082W        W35930  11.872   4.133   2.663  0.0339  0.2006 -0.0415
19083W        W35931   4.987   4.575  10.131  0.1201 -0.2630  0.0221
19084W        W35932   1.396  15.736   1.559 -0.1125  0.0420 -0.1523
19085W        W35933  11.547  12.145  14.443 -0.0371 -0.3285 -0.2989
19086W        W35934   7.594  14.334  14.577  0.0671 -0.3097 -0.0935
19087W        W35935  15.175   0.092   6.037 -0.0657 -0.0082 -0.0809
19088W        W35936   4.470   1.654  14.082  0.1304 -0.0929 -0.0728
19089W        W35937  16.371   0.571  15.848 -0.0240  0.0258  0.3399
19090W        W35938   5.127  14.461   0.797  0.2128 -0.0228  0.0441
19091W        W35939  10.570  15.372  16.542  0.1282  0.0081 -0.0124
19092W        W35940   8.423   8.513   4.385  0.2254 -0.0042 -0.0842
19093W        W35941   1.950  11.924   1.266 -0.0973 -0.1257 -0.1699
19094W        W35942   3.064  17.171  13.407 -0.1075 -0.0135  0.2989
19095W        W35943   6.545   5.059  15.639  0.2731 -0.0533  0.1414
19096W        W35944   7.042   1.244  15.937  0.0626  0.2935 -0.0951
19097W        W35945   4.580  15.127   3.827  0.1660  0.2834 -0.0069
19098W        W35946  12.738  11.929  15.763 -0.0366  0.0471 -0.1759
19099W        W35947   0.307  17.305  11.332 -0.3747  0.0836  0.2118
19100W        W35948  13.100   7.021  14.924  0.1031  0.1857 -0.1200
19101W        W35949   8.111  10.408  15.946  0.0983  0.0060 -0.0301
19102W        W35950  14.887  17.732   5.298  0.1838  0.2280  0.0462
19103W        W35951  16.263   3.948  12.515 -0.0128 -0.0784 -0.3890
19104W        W35952   8.045  17.037  13.274 -0.4609 -0.1818  0.1232
19105W        W35953   8.524   0.296   5.483 -0.5307 -0.0587 -0.2289
19106W        W35954  11.451   3.774  11.429 -0.0856  0.1513 -0.1416
19107W        W35955   9.556   7.865  12.656  0.2351  0.3554  0.2677
19108W        W35956  11.784   8.161   4.231 -0.2716 -0.1894 -0.1080
19109W        W35957   1.328   1.505   1.492  0.0954 -0.0904 -0.0976
19110W        W35958  16.383   7.475   4.440 -0.0935 -0.2810  0.0659
19111W        W35959  13.955   7.006  11.718  0.3170 -0.0312 -0.2789
19112W        W35960   5.869   0.270  15.889  0.0976  0.2333  0.0122
19113W        W35961  16.303   4.391  12.815 -0.2093  0.0544 -0.0744
19114W        W35962  17.404   0.935  12.536 -0.1242  0.1939  0.0604
19115W        W35963  10.371   8.702   0.498  0.2926  0.3555  0.0115
19116W        W35964   5.165  16.815   2.835 -0.0228  0.0280 -0.0343
19117W        W35965  15.345   5.421  12.657 -0.0426 -0.0097  0.0512
19118W        W35966   1.987  10.416  15.541 -0.0586 -0.0251  0.2913
19119W        W35967   5.845   4.943   3.941 -0.0094  0.0433 -0.0845
19120W        W35968  15.321   9.855  16.589 -0.0413 -0.1680 -0.0237
19121W        W35969  11.937   6.765   1.563  0.2997 -0.2455 -0.0021
19122W        W35970  14.526  10.862  12.678 -0.0547 -0.0530  0.0654
19123W        W35971  10.994   0.161  16.278 -0.0153 -0.1412 -0.0439
19124W        W35972  15.155   2.699  15.356 -0.1062  0.0637 -0.0594
19125W        W35973   6.723  17.483  12.330  0.1236 -0.2248 -0.1101
19126W        W35974  11.249   2.088  13.249 -0.0329  0.1759  0.0346
19127W        W35975   3.462  12.963  15.147  0.0640 -0.0118  0.0558
19128W        W35976   1.098  10.673   2.101  0.1518  0.0259 -0.1345
19129W        W35977   4.262  12.970  10.280  0.1729  0.2830 -0.0505
19130W        W35978  11.774   9.609   1.853  0.0678 -0.2577  0.0790
19131W        W35979  16.453   6.932   6.234  0.1767 -0.0280  0.0551
19132W        W35980   5.621   6.168   0.876 -0.1398 -0.1396  0.4995
19133W        W35981   9.931  16.390   5.370 -0.1716 -0.1380  0.3194
19134W        W35982   4.737  17.156   1.000 -0.0545 -0.0027 -0.0140
19135W        W35983   1.600   4.338   4.315  0.1368 -0.0941  0.0377
19136W        W35984   0.396   6.236   2.478 -0.3480  0.0342 -0.1225
19137W        W35985   1.917  14.430  15.531 -0.1146  0.2151  0.3795
19138W        W35986   7.711  10.979   3.833  0.0728  0.0552  0.3505
19139W        W35987   5.722   1.127   4.435  0.0623 -0.0049  0.1809
19140W        W35988  12.644  16.556   0.793  0.1205 -0.0983 -0.2657
19141W        W35989   9.928   1.458   3.623  0.0303 -0.0190  0.0308
19142W        W35990  11.604  10.745   2.383 -0.0431  0.1034  0.1178
19143W        W35991   5.251   0.998   4.204 -0.1489 -0.0545 -0.1780
19144W        W35992  11.940   5.553  12.566 -0.1920  0.0358 -0.1029
19145W        W35993   1.425  15.914   2.386  0.2108  0.1086 -0.0011
19146W        W35994  10.491   6.125   1.381  0.0434 -0.2568  0.1284
19147W        W35995   8.263  17.801  13.216 -0.0732  0.1899  0.0114
19148W        W35996   7.649  13.001  12.404 -0.2381 -0.1330 -0.2192
19149W        W35997   3.863   2.687  12.961  0.2481  0.0548 -0.1305
19150W        W35998   1.538   1.184   0.692  0.3640  0.1241 -0.0706
19151W        W35999   5.474  16.293  12.438  0.0991 -0.0009 -0.1843
19152W        W36000   8.083  10.329   2.201 -0.1632 -0.0284 -0.1311
19153W        W36001   5.429  16.445  11.667  0.1294  0.1275 -0.3567
19154W        W36002   7.597   2.096  13.941 -0.1943 -0.3349  0.0191
19155W        W36003   1.473   1.826   3.650 -0.0110  0.0642 -0.2668
19156W        W36004  11.052  10.414  13.771 -0.0875  0.1503  0.2716
19157W        W36005   0.209  11.115  15.208 -0.2027 -0.2078 -0.0403
19158W        W36006   9.885   7.669  12.143 -0.1185 -0.2282 -0.2109
19159W        W36007  14.642  11.147   5.042 -0.2910 -0.1475  0.2481
19160W        W36008  12.597   2.471  16.475 -0.0312  0.0022 -0.1703
19161W        W36009   1.326  12.803   1.326  0.3861 -0.0969 -0.2826
19162W        W36010  15.001   7.452  13.226  0.0873 -0.0748  0.1138
19163W        W36011  14.498   9.715  14.614 -0.0413 -0.0338  0.1483
19164W        W36012  11.804  15.929   2.026  0.3052  0.1060  0.0625
19165W        W36013   4.248   3.547   1.753 -0.1832  0.1568 -0.1792
19166W        W36014  16.701  12.312   2.023  0.1917 -0.0065 -0.0968
19167W        W36015  17.705   3.064   3.451 -0.2309 -0.0651  0.0936
19168W        W36016   2.429  10.212  12.531  0.1240 -0.0400  0.1102
19169W        W36017  15.768  15.068   1.690  0.3928 -0.4174 -0.0501
19170W        W36018   2.741  15.202  14.166  0.0510 -0.2725 -0.1378
19171W        W36019   2.853   0.837  11.276  0.1038 -0.0688  0.0735
19172W        W36020   1.749  12.509   1.696  0.3025  0.0370  0.0333
19173W        W36021   0.320   3.721  14.781 -0.0984 -0.2338  0.3894
19174W        W36022   6.540  10.559  16.175  0.0437 -0.0412 -0.1706
19175W        W36023  10.099  17.254  14.221  0.2177  0.2099 -0.2623
19176W        W36024  16.753   4.656  13.434 -0.1159 -0.0336 -0.1852
19177W        W36025  12.640   4.662   0.466 -0.2870  0.0902 -0.3204
19178W        W36026   0.209   9.870  13.085  0.1423 -0.2173  0.0773
19179W        W36027  12.140   3.044  15.950  0.0825  0.0720 -0.0233
19180W        W36028  10.611   2.684   4.708 -0.0666  0.0892 -0.0164
19181W        W36029   0.150  14.320   0.657 -0.2715  0.1183  0.0603
19182W        W36030   0.090  10.741  13.963 -0.2028  0.1614  0.1962
19183W        W36031   2.112  13.581   4.695 -0.2517 -0.2003  0.2236
19184W        W36032   8.929  14.884   2.468  0.1856 -0.0258 -0.0069
19185W        W36033   2.516   7.621   4.823  0.0373 -0.0636 -0.1365
19186W        W36034  17.238   0.314   5.303  0.2853  0.0031 -0.0796
19187W        W36035   0.827  10.448  15.679 -0.0725 -0.0625 -0.1433
19188W        W36036  15.880   1.013   2.244 -0.1504  0.0077  0.0960
19189W        W36037   2.087   3.885  12.478 -0.2560  0.2063 -0.2170
19190W        W36038   3.515   5.700  13.123 -0.0887 -0.5362  0.0902
19191W        W36039   0.911  17.139   3.012  0.0517 -0.1024  0.2356
19192W        W36040  14.843   4.860   2.926 -0.0454  0.1847 -0.1297
19193W        W36041  16.113  13.923  14.820 -0.1451 -0.0085 -0.0232
19194W        W36042   0.665   3.338  16.220  0.0014 -0.3841  0.0136
19195W        W36043   6.009  11.884   4.119  0.3018 -0.0262  0.0425
19196W        W36044   0.140   5.488   2.964 -0.1956  0.0053 -0.0161
19197W        W36045   5.071   0.384   0.497 -0.3898  0.2104 -0.0073
19198W        W36046  16.051  17.556   4.831 -0.0657  0.0543  0.2225
19199W        W36047   4.157  12.065  13.091  0.5067  0.1789 -0.0432
19200W        W36048   2.701   3.419   1.525  0.0075 -0.0238 -0.1515
19201W        W36049   2.992   1.264   4.852 -0.0079 -0.0958  0.0668
19202W        W36050  16.428  15.774   0.680 -0.1052 -0.0586 -0.1564
19203W        W36051   1.097   3.376  15.908  0.3165 -0.0978 -0.0496
19204W        W36052   0.727   9.262   3.030 -0.0030 -0.0146 -0.0618
19205W        W36053   8.102   7.005   0.266  0.1761 -0.5103 -0.0687
19206W        W36054  14.817  10.511   0.318 -0.0276 -0.0871 -0.0723
19207W        W36055  13.181   1.669   0.175 -0.2340  0.0099  0.1725
19208W        W36056  11.884   1.481  12.907 -0.1454 -0.0345 -0.2308
19209W        W36057   3.908   6.598  11.563 -0.0489  0.1044  0.1926
19210W        W36058   4.346  15.264   2.478 -0.2103  0.1647 -0.1581
19211W        W36059  13.742  15.445   3.596 -0.1556 -0.1161  0.3263
19212W        W36060   9.768   2.755   2.462  0.2054 -0.2391  0.1953
19213W        W36061   4.597  14.330   0.579  0.1660  0.2053  0.0845
19214W        W36062  12.874   7.033   0.226 -0.3155  0.0636  0.2711
19215W        W36063  11.166   1.772   5.328  0.0965 -0.3181  0.0558
19216W        W36064  10.784   6.644   3.061 -0.2508  0.2896  0.1525
19217W        W36065   3.402   3.191   2.762 -0.0217 -0.0321  0.2165
19218W        W36066   4.982   3.055   5.309  0.0375 -0.2100  0.1113
19219W        W36067   4.266   0.644   5.066 -0.1113  0.0195 -0.3406
19220W        W36068   7.987  16.167  15.741  0.1774 -0.3009 -0.1250
19221W        W36069  14.687   9.896  15.580 -0.1439  0.0912  0.2849
19222W        W36070  13.399  14.228  15.484 -0.0018  0.0908 -0.4232
19223W        W36071  17.611  11.964  11.587  0.3344 -0.0259 -0.2775
19224W        W36072  13.234   3.689   3.628  0.0834 -0.1758  0.0268
19225W        W36073   8.518  10.044   2.198  0.1297 -0.0244 -0.1825
19226W        W36074   6.048  10.330  11.888 -0.0266 -0.3521  0.0249
19227W        W36075   3.383   0.711  13.327  0.2258 -0.0449  0.0017
19228W        W36076   9.910  12.356  13.698 -0.2300 -0.1548  0.0691
19229W        W36077  12.899   3.139   2.812 -0.0755 -0.0621  0.3481
19230W        W36078   1.178   3.306  15.364  0.2620  0.3271 -0.3519
19231W        W36079  13.843   4.295  14.505 -0.3352 -0.2179 -0.1342
19232W        W36080   9.035  15.579  13.826 -0.0593  0.3742 -0.1042
19233W        W36081  12.950   2.297  13.004 -0.1103 -0.0871 -0.0676
19234W        W36082   2.778   2.206   3.269  0.0857 -0.0189  0.0978
19235W        W36083  12.985   6.177  14.379 -0.2057  0.1430  0.0205
19236W        W36084  10.659   4.270   3.330  0.2025 -0.2141  0.0583
19237W        W36085   8.915  10.419  15.823 -0.2400  0.1472  0.2197
19238W        W36086   3.737   7.493  12.761  0.1228  0.0649  0.0144
19239W        W36087   1.796  15.453   0.899  0.0954 -0.1175  0.3493
19240W        W36088  11.460  13.083  15.800  0.1715 -0.3293  0.0019
19241W        W36089  13.518  15.862   1.541 -0.2259  0.0092  0.1403
19242W        W36090  11.304   4.213   5.291  0.4351 -0.0997 -0.0035
19243W        W36091   2.654   5.144   2.864 -0.1007  0.1973 -0.0291
19244W        W36092   7.462   3.000  11.651 -0.0291 -0.2259 -0.2315
19245W        W36093  16.115   6.380   2.355 -0.2502 -0.1056 -0.1492
19246W        W36094  15.868   3.007   4.631 -0.0165  0.0178  0.2880
19247W        W36095   3.722  17.817  14.684  0.1311 -0.2470 -0.0154
19248W        W36096   0.186   1.962  11.380  0.0719 -0.1873 -0.1034
19249W        W36097   7.919   3.751   2.325 -0.5337  0.0062  0.0829
19250W        W36098  17.185  11.000   3.174  0.0788  0.0433  0.1279
19251W        W36099  16.476  15.354  10.801 -0.1452  0.2506  0.1729
19252W        W36100   3.243   5.299   2.163 -0.0068 -0.1952  0.0051
19253W        W36101  11.172  11.824  15.752  0.1946 -0.2624  0.2092
19254W        W36102   5.346  14.270  13.732  0.0559 -0.0528 -0.1711
19255W        W36103   3.127   0.398  10.275 -0.2103  0.3158  0.2095
19256W        W36104  16.875   3.983   5.218 -0.0100 -0.2645 -0.0680
19257W        W36105   1.132   2.319   1.809 -0.1969 -0.0730 -0.1865
19258W        W36106  10.896   1.780   1.402 -0.3571 -0.2676 -0.2995
19259W        W36107   5.155   9.525   2.258  0.3564  0.2092  0.2282
19260W        W36108   8.671   3.393   3.521  0.0418 -0.0901 -0.1650
19261W        W36109   3.701   0.913  13.605 -0.1165  0.0799  0.0204
19262W        W36110   5.418  11.020  13.676 -0.0344 -0.1403 -0.0911
19263W        W36111   2.776  10.698   4.440 -0.2012 -0.1008 -0.0082
19264W        W36112  10.302  16.903  11.517 -0.0310 -0.1309  0.0352
19265W        W36113   3.171  16.631   4.674  0.2381 -0.0076 -0.1972
19266W        W36114  13.307   5.884   4.205 -0.0423 -0.0808 -0.1517
19267W        W36115   9.679  14.990   3.126 -0.1402 -0.3939  0.1146
19268W        W36116   0.105  16.711   5.668  0.0900 -0.3686  0.0342
19269W        W36117   8.789   3.218  12.001  0.2682 -0.2148  0.2304
19270W        W36118  14.769   7.738   4.240  0.3005  0.3455  0.3279
19271W        W36119   8.891   3.937  11.197  0.0395  0.1933 -0.0624
19272W        W36120  12.280   4.931   2.056 -0.4444  0.0135  0.0626
19273W        W36121   8.809  10.067  13.936  0.0482 -0.0475 -0.0020
19274W        W36122   6.912  14.751   4.678 -0.0368  0.1234  0.1530
19275W        W36123   3.984  13.380  10.669 -0.3325 -0.5173  0.3870
19276W        W36124   6.535  15.613   2.649 -0.1050  0.1183 -0.0061
19277W        W36125  10.457  13.542  13.975  0.0703  0.0926  0.1203
19278W        W36126   4.826   8.869  14.796  0.2804 -0.0511 -0.0912
19279W        W36127  13.907  11.381  12.372 -0.2926  0.0515 -0.1550
19280W        W36128   2.534   2.944  12.045  0.1177 -0.1467  0.1466
19281W        W36129   8.449  16.961   0.306  0.1649  0.0845  0.0369
19282W        W36130   4.137   5.614   3.640 -0.0403  0.2503 -0.0073
19283W        W36131   5.039   1.933   4.368  0.0992  0.0450  0.0996
19284W        W36132   1.831   2.845   0.145 -0.0751 -0.0832  0.1523
19285W        W36133  15.345  17.528   2.291  0.0653  0.1931  0.0343
19286W        W36134   5.835  12.434   5.370  0.0292 -0.5771 -0.3417
19287W        W36135   9.623  13.081  13.615  0.2681  0.0869  0.1392
19288W        W36136   1.860   7.049  12.315 -0.2152 -0.0761  0.0503
19289W        W36137   4.298  17.102   2.588  0.2085  0.1413  0.2488
19290W        W36138   4.785   1.079  11.898 -0.1737  0.4044  0.3752
19291W        W36139  10.760  14.614  15.120 -0.2102  0.1428  0.1076
19292W        W36140   2.764   2.376  13.311 -0.2723  0.0697  0.0271
19293W        W36141   9.060  13.392  15.797 -0.1586 -0.1116 -0.0445
19294W        W36142  15.773  10.693   3.085  0.0126 -0.1585 -0.0091
19295W        W36143   5.199   3.790   1.594 -0.2558 -0.3272  0.0941
19296W        W36144   9.625   3.733  14.866 -0.1865 -0.1551  0.1217
19297W        W36145  14.430  10.009  11.584 -0.1869  0.0539  0.0343
19298W        W36146   4.947  15.013   1.313 -0.0741 -0.0348 -0.1051
19299W        W36147   6.722   4.759   4.009 -0.0602  0.1772  0.0019
19300W        W36148   4.355  10.755  15.033 -0.2345  0.1379  0.0145
19301W        W36149  12.037  11.108   1.885 -0.1336 -0.1078  0.1994
19302W        W36150   9.318   9.142  16.117  0.0001  0.0044  0.1924
19303W        W36151  17.112  16.041   5.448  0.0888  0.0852 -0.2616
19304W        W36152  11.533  15.112   3.737  0.3602  0.1079  0.0648
19305W        W36153  12.652   6.017  13.891 -0.1649 -0.0078  0.0196
19306W        W36154   7.588  12.229  13.271  0.3670  0.0778 -0.0215
19307W        W36155   3.746   9.661   1.158 -0.2167 -0.1510 -0.0943
19308W        W36156   7.614   2.394   5.180 -0.0193 -0.0481  0.2485
19309W        W36157   1.421   6.026  15.369  0.3005  0.0170  0.1218
19310W        W36158  10.005   2.329  14.903  0.1082  0.1628 -0.4846
19311W        W36159   4.688   7.619   4.603  0.4307 -0.3830 -0.0147
19312W        W36160  15.012   7.413  14.248 -0.2211 -0.1230  0.0775
19313W        W36161   5.900  13.499   1.190 -0.2791  0.2200 -0.1121
19314W        W36162   8.485   7.803  13.607  0.0790  0.1532 -0.5212
19315W        W36163  14.353   9.180   5.522 -0.0522  0.1143  0.0433
19316W        W36164   3.443   8.732  13.975  0.0110 -0.1931  0.0296
19317W        W36165  15.203   1.475   1.080 -0.1257 -0.0441  0.2853
19318W        W36166   9.350  12.785  13.065 -0.0967  0.0598 -0.1376
19319W        W36167  10.512  10.232  10.598 -0.4478  0.2120  0.1504
19320W        W36168  17.077  16.921  13.169  0.0219  0.1748 -0.0585
19321W        W36169   6.177  10.400  12.434  0.0395 -0.0621 -0.2401
19322W        W36170  15.500  11.104  16.395  0.0279  0.0227 -0.1090
19323W        W36171  14.094   5.915   1.752 -0.3246  0.0667  0.2180
19324W        W36172   3.543  12.762   2.088  0.0990  0.1834 -0.1787
19325W        W36173   3.429  12.506  15.364  0.0663 -0.0301  0.1426
19326W        W36174   1.782  13.162   3.484 -0.1601  0.0530  0.0949
19327W        W36175  13.057   1.224   0.393  0.2820 -0.0166 -0.0760
19328W        W36176   2.830   5.404   2.437 -0.0841 -0.2454  0.0538
19329W        W36177  14.815  16.208   5.822  0.1014  0.0036 -0.0128
19330W        W36178  12.810   8.379  15.335  0.1034 -0.0521  0.0559
19331W        W36179   3.309  14.669   4.214  0.1447 -0.1190  0.2712
19332W        W36180  15.745   7.055   5.030 -0.3286 -0.1178  0.2809
19333W        W36181  13.660   9.867   0.896 -0.1370  0.1811 -0.3062
19334W        W36182   7.895  15.197  15.124 -0.1299  0.1511 -0.2217
19335W        W36183  16.145  17.153  15.796 -0.0819  0.0492  0.2777
19336W        W36184  10.493  15.874  11.718 -0.1321  0.0679  0.2538
19337W        W36185  13.115   9.329  15.977 -0.0001  0.1929  0.2062
19338W        W36186   0.367  10.697  11.941  0.0090  0.2282 -0.0101
19339W        W36187   3.685  10.702   0.485 -0.4378  0.1284  0.1198
19340W        W36188   2.735   0.878   1.291  0.1498 -0.0637 -0.2763
19341W        W36189  15.249   4.903   0.013  0.5584 -0.2448  0.0230
19342W        W36190   8.133  10.440   4.406  0.1340 -0.0538  0.1009
19343W        W36191  11.326  13.094  10.638 -0.0401  0.1621  0.0451
19344W        W36192  12.620   1.474   4.533  0.2283  0.0794  0.1588
19345W        W36193   5.803   6.211   2.301 -0.2548 -0.0078  0.1301
19346W        W36194   2.626   2.594   1.855  0.0429 -0.4594  0.0665
19347W        W36195   6.348   7.640  13.437  0.2294 -0.3055  0.0898
19348W        W36196  14.551   1.303   4.047  0.0022  0.0658  0.0788
19349W        W36197   0.898  12.662  12.698  0.0987  0.3146 -0.2875
19350W        W36198  11.614   6.494  15.941 -0.1502 -0.1076  0.2593
19351W        W36199  14.261  10.654  14.975  0.2472 -0.2281 -0.1313
19352W        W36200  16.459   5.985   2.235  0.1570  0.0411 -0.1285
19353W        W36201  10.810   9.914   2.731 -0.1828 -0.3137  0.1246
19354W        W36202   6.654   3.913   0.966  0.1458  0.2050  0.2262
19355W        W36203  15.789   0.085  16.220 -0.1142 -0.1300 -0.0309
19356W        W36204   3.568   8.022   4.079 -0.0658  0.0457  0.0156
19357W        W36205   4.028   4.401  11.675  0.0132 -0.1236 -0.0867
19358W        W36206  13.089   1.178   1.616 -0.2521  0.0956  0.1526
19359W        W36207  14.837  11.654  13.362  0.0057 -0.0797  0.0894
19360W        W36208  12.711  11.699  11.712  0.0436  0.0118 -0.2386
19361W        W36209  15.656   2.123   3.224  0.2678 -0.0796 -0.1040
19362W        W36210   0.293   3.779  15.306  0.1089  0.0398  0.1608
19363W        W36211   9.051   3.549   2.163 -0.1051 -0.2138 -0.0716
19364W        W36212  12.626   5.991  12.474 -0.1741  0.1128 -0.2807
19365W        W36213   5.974  14.088   0.491 -0.3846  0.2020 -0.3793
19366W        W36214   4.377  15.764   6.486 -0.2858  0.0841 -0.0761
19367W        W36215  11.534   7.690  11.704 -0.0541  0.0001  0.0220
19368W        W36216   7.670  10.643   0.423 -0.2819  0.0392  0.1622
19369W        W36217  14.222   4.509   4.432  0.1310 -0.0413  0.0558
19370W        W36218  15.902   1.533   5.263  0.0007  0.0415 -0.3201
19371W        W36219   8.755  14.500   4.197 -0.1200 -0.0630  0.0536
19372W        W36220   8.456   5.230  13.736 -0.0676  0.3665 -0.1543
19373W        W36221   4.045  12.173  13.558  0.1609  0.0009  0.2088
19374W        W36222   2.271   9.651   0.688  0.2753  0.0410 -0.2669
19375W        W36223   1.494   5.690  13.907 -0.3395 -0.0424  0.1358
19376W        W36224   4.424   6.095   1.448  0.0690  0.1201  0.1641
19377W        W36225   5.415   8.809  11.254  0.1488  0.0977 -0.4109
19378W        W36226   0.542  16.704  13.087 -0.2891  0.2594  0.0569
19379W        W36227   6.827  15.243   2.949 -0.2078  0.1232  0.2831
19380W        W36228   6.238  14.535   3.745 -0.0666  0.1217 -0.4934
19381W        W36229  15.740  13.243  14.801 -0.2411 -0.1860  0.1249
19382W        W36230   2.620   4.256   5.654  0.0468  0.0711  0.0692
19383W        W36231   8.867   8.778  13.986  0.0734  0.2058 -0.0711
19384W        W36232   4.604   0.954   3.521  0.0506  0.0046 -0.0449
19385W        W36233   3.001  15.785  10.836  0.0706 -0.0209 -0.2978
19386W        W36234   8.942  13.231   1.293  0.1546  0.2970 -0.2039
19387W        W36235  16.330   0.390   3.545  0.0751  0.1483  0.0606
19388W        W36236  14.435  10.903  15.490  0.0185  0.1080  0.1730
19389W        W36237   4.702  14.526   1.067 -0.1467  0.1022  0.1648
19390W        W36238   7.035  14.920  15.184 -0.0575 -0.1816  0.0072
19391W        W36239   2.152   8.318  12.378  0.0551  0.2590  0.0405
19392W        W36240  12.582   5.439   6.378  0.0082 -0.2660  0.1423
19393W        W36241   9.497  15.451   4.182 -0.1740  0.1854 -0.0329
19394W        W36242   9.601  10.912   2.033 -0.0314  0.3498 -0.1791
19395W        W36243   6.893   7.128  12.516  0.1576  0.2356  0.1337
19396W        W36244   9.692   7.350  12.982  0.2050 -0.1765 -0.1504
19397W        W36245  16.565  11.890   0.335  0.0077 -0.3641  0.0471
19398W        W36246  12.737  14.292  13.016  0.1385 -0.2414 -0.2193
19399W        W36247  12.693   0.772   3.526  0.1022  0.1939  0.3582
19400W        W36248   2.444  10.186   0.554 -0.0194 -0.1167 -0.2148
19401W        W36249  13.024   9.000  13.084 -0.3306 -0.2177 -0.0974
19402W        W36250   9.173   1.211  15.984  0.0955 -0.0693 -0.1470
19403W        W36251  16.351   0.991  11.274  0.2427  0.2033 -0.2268
19404W        W36252  11.055   2.863  12.111 -0.2444 -0.0115 -0.2132
19405W        W36253   5.520   7.043   5.650 -0.2660 -0.0391 -0.1450
19406W        W36254  15.180   4.770   2.531  0.0551 -0.0754 -0.1005
19407W        W36255   2.547  17.784   1.600 -0.0101  0.2901 -0.1425
19408W        W36256  12.666  14.298  12.302  0.0840 -0.0892 -0.1912
19409W        W36257  17.585  11.293   0.813  0.3165  0.1009  0.1961
19410W        W36258  10.220  11.210   3.394 -0.2524  0.0085  0.3580
19411W        W36259  17.353   8.302  15.931 -0.0342 -0.2132  0.0883
19412W        W36260   0.888   2.100   3.412 -0.1279 -0.2667  0.2140
19413W        W36261   8.601  13.167   3.690 -0.1824  0.1489 -0.2010
19414W        W36262   4.400  14.434  15.825 -0.0951 -0.1101  0.2487
19415W        W36263   4.186  15.334   5.315 -0.0717 -0.1153  0.1781
19416W        W36264   2.332  14.844   1.632 -0.0695  0.3453 -0.1090
19417W        W36265   4.227  12.751   1.117  0.1410 -0.0873  0.0886
19418W        W36266   3.764  12.270  16.086  0.0118 -0.0540 -0.0365
19419W        W36267   9.771  15.399  12.386 -0.0427 -0.1219 -0.1382
19420W        W36268  14.620  11.196  15.038  0.0074 -0.1662 -0.2962
19421W        W36269   4.612   4.042  16.599  0.0082  0.2122  0.1886
19422W        W36270   5.168  16.664   1.819 -0.0492  0.1413 -0.0797
19423W        W36271   4.155  10.181  11.583  0.1942 -0.1170 -0.1287
19424W        W36272  12.820  16.749  12.631  0.2531  0.3041  0.1322
19425W        W36273   4.503  11.104   4.129  0.1296  0.1566  0.2078
19426W        W36274   5.479  17.477   1.746 -0.2483  0.0657  0.3409
19427W        W36275   9.047   6.183   2.244 -0.0948 -0.0701  0.1329
19428W        W36276   4.113  17.742  12.629 -0.2677 -0.2242 -0.1792
19429W        W36277  13.844   0.971  15.395 -0.1998 -0.0122 -0.4787
19430W        W36278   0.989  11.059   1.034  0.2874  0.0253  0.0699
19431W        W36279   2.517   3.024   3.316  0.1964  0.1939  0.2368
19432W        W36280   5.430   3.066  11.727  0.3469  0.0921 -0.0072
19433W        W36281   1.711  12.943   5.146 -0.1641 -0.0066 -0.0557
19434W        W36282   7.509   4.559   3.339 -0.3130 -0.0711  0.1518
19435W        W36283  16.651   0.170  16.042 -0.1755 -0.0150 -0.0739
19436W        W36284   6.209   8.345  16.139  0.0741 -0.2533 -0.1779
19437W        W36285   3.469  15.718   0.221 -0.0784 -0.0601 -0.0679
19438W        W36286  14.356   7.949  13.114 -0.5093  0.3006 -0.1576
19439W        W36287  13.614   6.009  11.351 -0.3392  0.1196 -0.0968
19440W        W36288   9.491   6.593   0.374  0.0949 -0.1198  0.0449
19441W        W36289  13.392  16.868   1.293  0.3187  0.1915 -0.0515
19442W        W36290   4.172  10.242  16.416  0.1294  0.2211 -0.0868
19443W        W36291   4.942   1.343   5.065 -0.2157 -0.0525  0.2729
19444W        W36292  13.997  16.429  16.335  0.0738 -0.0777 -0.1527
19445W        W36293  16.090  14.682  12.980  0.0782 -0.3422 -0.0762
19446W        W36294   6.852   3.530   4.689 -0.3972  0.0536  0.1539
19447W        W36295   7.120   4.802  14.844 -0.0847 -0.2551  0.0181
19448W        W36296  13.061   8.344  11.462 -0.3892 -0.0270 -0.3022
19449W        W36297   2.386  10.724  13.549  0.0411  0.1324  0.0099
19450W        W36298   8.070   5.566   0.515 -0.0378  0.3324  0.2852
19451W        W36299   2.787  12.924   0.349 -0.2066  0.1024 -0.1644
19452W        W36300   5.226  14.998   4.457 -0.1613  0.1110  0.0678
19453W        W36301   7.100   0.972   2.747 -0.1014  0.1265  0.0340
19454W        W36302   0.376   6.158   0.463 -0.0839 -0.1567  0.1092
19455W        W36303  13.586  10.111  11.816  0.1054 -0.0372 -0.1963
19456W        W36304   1.918  12.210   4.347 -0.1977 -0.1406 -0.2396
19457W        W36305   3.830   8.826  11.798 -0.6356  0.0807 -0.1332
19458W        W36306  17.824   2.855   0.697  0.0983  0.0763  0.1043
19459W        W36307   3.124   2.029   2.695 -0.2136  0.0338  0.1719
19460W        W36308   5.009   6.205  12.145 -0.1901  0.1206 -0.0679
19461W        W36309  14.466   9.016   2.356 -0.1356  0.0082  0.1974
19462W        W36310   4.149   1.123  11.354 -0.2392 -0.1793  0.1275
19463W        W36311  12.440  13.750  11.715  0.1928  0.2150 -0.1234
19464W        W36312   5.279  14.516  15.827  0.3340  0.0562 -0.0389
19465W        W36313   8.625  13.561   5.531 -0.3652 -0.0756  0.0419
19466W        W36314  11.172  10.967  14.683 -0.2014 -0.1444 -0.1933
19467W        W36315  12.529   3.973  12.908 -0.1882  0.1646  0.0507
19468W        W36316  13.158  11.553  11.401  0.1110 -0.1070 -0.0913
19469W        W36317  15.860  15.958   4.329  0.0389 -0.0655  0.4050
19470W        W36318  10.433   2.970   2.957  0.0669  0.0693  0.2771
19471W        W36319  12.525   3.421  11.717 -0.2486  0.2120  0.0309
19472W        W36320   5.201  13.739  16.254 -0.2469 -0.2230  0.2068
19473W        W36321  10.778  14.552  12.094 -0.0800 -0.0355  0.1050
19474W        W36322   8.310   0.809  14.376  0.1241  0.5795 -0.0090
19475W        W36323  13.322  17.553   3.086 -0.0102 -0.2430  0.1435
19476W        W36324   9.911  13.424   4.878  0.2058 -0.2319  0.0272
19477W        W36325   7.061  11.193  14.692  0.4555  0.0991  0.0569
19478W        W36326  17.292   1.921   2.572  0.3363 -0.3016  0.2520
19479W        W36327   8.091   4.294  13.488  0.3868  0.0569  0.1777
19480W        W36328  10.754  12.792  11.265  0.0145 -0.0933  0.2032
19481W        W36329  16.447  17.106  16.179  0.1778  0.2441 -0.0101
19482W        W36330   7.597  14.288   1.379  0.2550 -0.2026 -0.1932
19483W        W36331   4.867   5.906   3.001  0.1068 -0.1146 -0.2795
19484W        W36332   8.122  14.923   1.973 -0.2999 -0.0961 -0.0923
19485W        W36333   9.179  15.236  11.254  0.2202  0.4012 -0.1550
19486W        W36334  12.533  10.585  12.358 -0.4654  0.2730 -0.0094
19487W        W36335  14.252   5.996   5.144  0.2844  0.0971 -0.3470
19488W        W36336   8.819   0.568   4.794 -0.0940 -0.0916  0.2058
19489W        W36337  15.117   6.262   5.071  0.0085  0.1303  0.3005
19490W        W36338  12.955   6.186   2.122 -0.1236  0.0249 -0.2547
19491W        W36339  15.009  12.647   4.113 -0.2310 -0.1601  0.1346
19492W        W36340   2.305  11.738  15.088  0.1152 -0.0783 -0.0576
19493W        W36341   3.849  16.090  13.051 -0.1834 -0.1870  0.0111
19494W        W36342  10.739   3.871   0.409  0.1626 -0.1200  0.0555
19495W        W36343   7.254   2.139  11.649 -0.1187  0.2529  0.1570
19496W        W36344   0.149  15.879  11.928 -0.0509  0.3731 -0.4776
19497W        W36345  12.530   9.350   2.156  0.1907  0.1239  0.2502
19498W        W36346   1.134   1.229  14.534  0.1733 -0.1912 -0.2457
19499W        W36347  12.986  12.854  14.961  0.2706 -0.0835 -0.1049
19500W        W36348   7.885  17.508  13.057 -0.0272  0.0438 -0.2895
19501W        W36349   3.074   7.623   1.703 -0.3998 -0.4807 -0.2397
19502W        W36350   0.490   5.579   3.922 -0.0745 -0.0643  0.1966
19503W        W36351   3.978   1.021   4.588 -0.0546 -0.0480  0.3231
19504W        W36352   9.866  15.465   3.840 -0.0489 -0.0329  0.2185
19505W        W36353   7.309  11.977  14.029 -0.1473 -0.0905  0.0327
19506W        W36354  15.570   3.045   2.534 -0.2262 -0.2684  0.0660
19507W        W36355   5.436   2.710   2.352  0.2217 -0.0358 -0.2369
19508W        W36356  12.216  12.759   0.141  0.1610 -0.1503  0.2173
19509W        W36357  16.721  10.262   5.245 -0.3264  0.2150  0.1167
19510W        W36358  11.119   2.615   2.158 -0.3380 -0.0464 -0.2619
19511W        W36359  12.230  15.691   1.122 -0.0432  0.0959  0.0285
19512W        W36360   9.760   0.088   1.141 -0.0269 -0.2034  0.3811
19513W        W36361   1.341  13.858   3.133 -0.0949 -0.0304 -0.0529
19514W        W36362  16.790   2.207   5.192  0.3416 -0.1723  0.0328
19515W        W36363  12.817  12.001   1.440 -0.1161  0.0927  0.3906
19516W        W36364   2.195  16.980   5.858 -0.2454 -0.0867 -0.2767
19517W        W36365   3.702   0.413  13.908  0.0896 -0.0608  0.1810
19518W        W36366  17.296   1.858   3.410  0.1882  0.0891  0.0345
19519W        W36367  16.956   7.406  15.967  0.1774 -0.2331  0.0235
19520W        W36368  16.115   5.379  13.897 -0.3817  0.1000 -0.0250
19521W        W36369   4.172   3.515   3.112  0.1599 -0.0524 -0.2425
19522W        W36370   4.704   3.751  12.743 -0.1477 -0.2954 -0.1792
19523W        W36371   5.915  14.182   3.644  0.2574  0.0901  0.0643
19524W        W36372   4.872   6.827  10.859 -0.0002  0.1620  0.0657
19525W        W36373   8.353  15.643   4.187  0.0154  0.0010 -0.3477
19526W        W36374   6.184   2.383  12.236  0.1914 -0.2510  0.2228
19527W        W36375   7.342  12.573   6.065  0.1734  0.1882 -0.2469
19528W        W36376   2.378  13.216  13.687  0.0911  0.1311  0.1373
19529W        W36377   1.539   5.274   0.470  0.1700  0.0137  0.1016
19530W        W36378  16.493   2.260  13.257 -0.1879  0.0340 -0.0707
19531W        W36379   0.426  11.042  12.292  0.2084 -0.1582 -0.0444
19532W        W36380   3.042   2.142   1.057 -0.2563  0.1531  0.0501
19533W        W36381   1.253   1.269  12.339 -0.2314 -0.2082 -0.2932
19534W        W36382  12.884   4.256   0.489  0.0170 -0.0347 -0.1283
19535W        W36383   4.908   6.190   4.317 -0.0195 -0.1155 -0.1773
19536W        W36384  16.026   9.029  14.334  0.3058  0.0744  0.3125
19537W        W36385  13.499   1.427  12.515 -0.1161 -0.1801 -0.0810
19538W        W36386   1.310   0.332  12.666  0.3726  0.0828  0.0546
19539W        W36387   1.952  11.364   1.195 -0.1827  0.1492  0.5643
19540W        W36388  13.887  11.448   3.049  0.0605  0.0902  0.0625
19541W        W36389   6.178   6.260  16.290  0.1806 -0.2041 -0.1407
19542W        W36390   0.529  14.609   0.447 -0.0074 -0.0817  0.0502
19543W        W36391   8.418  13.329  15.132 -0.2070  0.3425 -0.1258
19544W        W36392   4.304   2.999   0.802  0.0420 -0.0827  0.1157
19545W        W36393   0.638  16.257   3.331  0.0699 -0.1905  0.2266
19546W        W36394  11.708  17.691  16.500 -0.1141 -0.1221 -0.2245
19547W        W36395  14.608  15.983  14.732  0.2204 -0.0941  0.1365
19548W        W36396  11.644  14.100   0.095  0.1883  0.1320 -0.1559
19549W        W36397  15.668   5.777  12.723  0.0714  0.1716 -0.1619
19550W        W36398   2.805   1.363   0.475 -0.0200 -0.0591  0.0267
19551W        W36399   7.351   2.946   4.567  0.0711 -0.4046  0.0611
19552W        W36400   9.411   6.050  12.186  0.1677 -0.0453 -0.4312
19553W        W36401   0.687   3.243   1.720  0.1718  0.1807  0.0181
19554W        W36402  16.636  13.589  15.075 -0.2958  0.1000 -0.1628
19555W        W36403   4.915  11.837  13.087 -0.0657  0.1324 -0.0716
19556W        W36404  13.326   3.361   2.314 -0.1314  0.1326 -0.0893
19557W        W36405  11.655   8.154   5.248  0.0538 -0.1214 -0.1039
19558W        W36406   2.074   9.742   1.771  0.0686 -0.0880 -0.1443
19559W        W36407  10.637   6.565  15.637 -0.2162  0.0748  0.2560
19560W        W36408   0.566  13.094  13.460 -0.2598 -0.2174 -0.0139
19561W        W36409  12.860  16.938   4.466  0.3928  0.2314 -0.1441
19562W        W36410   1.041   2.820  13.136 -0.0956  0.2591 -0.3587
19563W        W36411   7.103   6.809  14.396  0.4859 -0.2924  0.0691
19564W        W36412  17.544  14.276   0.474 -0.1596  0.0682  0.1054
19565W        W36413  13.926  14.904  15.841 -0.1885  0.3648  0.0908
19566W        W36414   6.616  11.072  14.871 -0.1758  0.2323 -0.1510
19567W        W36415   4.593  15.269   1.638  0.1054 -0.2997  0.1958
19568W        W36416   8.168  11.888  12.147 -0.1440 -0.4387 -0.0092
19569W        W36417   7.883   1.667   0.457 -0.0364 -0.2223 -0.2467
19570W        W36418  13.266  15.542  11.887  0.0818 -0.1218  0.1684
19571W        W36419   5.393  11.942   3.112  0.1141  0.3341 -0.1933
19572W        W36420  11.810   1.475   3.404 -0.0109  0.2048 -0.0656
19573W        W36421   7.864   3.303   0.715 -0.2122 -0.3982 -0.1847
19574W        W36422   3.802  16.184  16.049  0.2388  0.0546  0.1613
19575W        W36423   8.554  15.609  16.524 -0.0851 -0.3103  0.4610
19576W        W36424   1.959  12.640  15.123 -0.3820 -0.3131 -0.1391
19577W        W36425   8.285   4.061   3.117  0.4672  0.2187  0.2912
19578W        W36426  16.365  15.374   4.485  0.0800 -0.1358 -0.0950
19579W        W36427  13.776  11.987  11.574 -0.0810 -0.0767 -0.1711
19580W        W36428   1.406   6.722  15.894  0.0782  0.2064  0.2067
19581W        W36429   2.578  13.957  14.113  0.1436 -0.2742  0.2261
19582W        W36430   1.294   1.081   1.131  0.3146  0.2974  0.0467
19583W        W36431   7.045   7.072  11.443 -0.0037 -0.0261  0.0862
19584W        W36432  14.671   3.521   1.731 -0.1170 -0.1826 -0.0946
19585W        W36433  16.199   5.133   4.671 -0.0715  0.0400  0.2955
19586W        W36434   7.938  14.496   2.445  0.1151 -0.0584  0.0415
19587W        W36435   2.126   6.221  13.144 -0.0010 -0.4172 -0.0071
19588W        W36436   9.961   2.345  15.395  0.0121 -0.3570  0.0113
19589W        W36437  17.217  14.579   0.801  0.0309  0.0243 -0.0884
19590W        W36438   0.674   6.531   3.854  0.2304 -0.2700  0.1490
19591W        W36439   7.326  14.593   1.709 -0.1811 -0.0346  0.0085
19592W        W36440   9.974   5.798  15.880 -0.1461 -0.0953 -0.0524
19593W        W36441   0.856   2.384   6.119  0.1411 -0.0758  0.0510
19594W        W36442  16.381   1.351   0.200 -0.1619 -0.0173 -0.2574
19595W        W36443  16.469   8.960  13.005  0.1714 -0.1579 -0.2917
19596W        W36444   8.267   3.539  14.414 -0.0505  0.1561  0.4719
19597W        W36445   4.213   6.623  16.326 -0.3081  0.0870  0.2005
19598W        W36446   1.173  13.379   5.602  0.0227  0.0094 -0.0028
19599W        W36447  10.092  17.159   4.041  0.1665  0.0041 -0.0302
19600W        W36448  13.637  12.481   0.406  0.0071  0.1601  0.0982
19601W        W36449  10.424   8.063   4.784  0.2391 -0.3119  0.0531
19602W        W36450  12.810   2.989  12.600 -0.0227 -0.0914 -0.0974
19603W        W36451   7.721   1.100   0.833 -0.0664  0.1035 -0.2791
19604W        W36452  10.568  12.732   4.113  0.0303  0.2413 -0.1345
19605W        W36453  10.427   3.102   3.491 -0.0305  0.1309  0.0823
19606W        W36454  15.412  14.650  15.717  0.1330 -0.1464 -0.1782
19607W        W36455   3.902  12.001   5.036 -0.0632 -0.2060 -0.0305
19608W        W36456  15.711  16.782   0.503  0.3165  0.0295  0.0934
19609W        W36457  14.286   4.620   0.820 -0.0505  0.0173 -0.0760
19610W        W36458   7.251  17.049   2.516  0.1962 -0.1586 -0.1121
19611W        W36459   5.657   4.522  12.661  0.4855  0.1036 -0.1192
19612W        W36460   1.422  16.267   5.081 -0.0555 -0.0505  0.1849
19613W        W36461  15.925   6.531  14.606  0.0845  0.0634  0.0927
19614W        W36462   9.279   1.851  12.506 -0.0967 -0.0111 -0.0154
19615W        W36463   6.536   9.173   5.829 -0.0356 -0.3027  0.0314
19616W        W36464   5.411   2.576  16.380  0.1120 -0.1313  0.2503
19617W        W36465   7.039  12.258  14.397 -0.0913 -0.2468  0.1011
19618W        W36466   7.906   7.043  15.084  0.5184  0.2001  0.0318
19619W        W36467   0.691   3.551   0.063 -0.0058  0.1366 -0.3229
19620W        W36468   1.229   1.646  15.815 -0.2311 -0.3958 -0.3073
19621W        W36469  16.874   4.596   1.532  0.2800 -0.0865  0.0997
19622W        W36470  12.429   3.739  11.302 -0.0279 -0.0756  0.3909
19623W        W36471   8.238   5.757   3.613  0.0139  0.0785 -0.1628
19624W        W36472   9.419   2.881   3.467  0.1479  0.0154 -0.2636
19625W        W36473  11.083   0.224  11.165 -0.1688  0.0749  0.3033
19626W        W36474  16.469  12.494   4.720 -0.0939 -0.0956  0.1476
19627W        W36475   4.035   2.991  16.548  0.3535  0.4069 -0.0909
19628W        W36476   7.463  12.862   1.522 -0.5310  0.1857 -0.2448
19629W        W36477  16.979  15.477   0.566  0.0690  0.2350 -0.0153
19630W        W36478   1.641  12.673   2.286  0.3128  0.1238  0.0162
19631W        W36479   9.652   7.335  13.464  0.1906 -0.0917  0.0421
19632W        W36480   7.140   2.386   1.277  0.0970 -0.1111  0.2396
19633W        W36481   2.250   3.747   2.334 -0.0992  0.2627  0.0696
19634W        W36482   5.333   9.662   4.079 -0.0663  0.1685 -0.0458
19635W        W36483  13.358   8.191   2.011  0.2085 -0.0956  0.0454
19636W        W36484  11.853   0.394   0.877  0.1124  0.1209 -0.4194
19637W        W36485  10.501  13.979  14.393 -0.0382  0.2027 -0.0499
19638W        W36486  12.981   3.176   3.686 -0.0382 -0.0002 -0.0652
19639W        W36487  11.757  16.889  15.837 -0.2147 -0.1775 -0.0894
19640W        W36488  16.062  14.608  15.071  0.0147  0.1304  0.0354
19641W        W36489   4.541  17.520  16.418 -0.0640  0.0173  0.1074
19642W        W36490  12.448   7.995  15.463  0.4488 -0.1566  0.3352
19643W        W36491   0.333   0.539  13.020 -0.3582 -0.1500 -0.3020
19644W        W36492  10.067  16.814   4.410  0.1877  0.0851 -0.2718
19645W        W36493  11.600   6.841   5.847  0.1963 -0.1191  0.0403
19646W        W36494   6.157   6.976   2.070  0.1579 -0.1216 -0.1726
19647W        W36495  14.693  11.298  13.063 -0.1090 -0.2895 -0.2742
19648W        W36496  14.771   3.345   5.159  0.1088  0.1199  0.1663
19649W        W36497  16.394  14.642  12.052 -0.1133  0.1712  0.0773
19650W        W36498  16.447   9.800   2.889  0.1407  0.4865  0.0237
19651W        W36499  15.864  10.897   1.069 -0.4717 -0.0017 -0.0879
19652W        W36500   3.484  10.626   2.160  0.0105  0.1299 -0.2226
19653W        W36501  10.446   8.512   0.910 -0.0758  0.0587 -0.5257
19654W        W36502   7.100  13.474   5.149  0.1660 -0.0517  0.0815
19655W        W36503   5.429  17.735  11.997  0.2564 -0.1606  0.0244
19656W        W36504   5.046   1.113  12.857 -0.2466 -0.2773 -0.0566
19657W        W36505   6.300  16.942   1.417  0.2304  0.0335  0.1427
19658W        W36506  17.286   1.488   5.228 -0.2137  0.3774  0.2393
19659W        W36507  11.129   5.759   1.529  0.0903  0.0358  0.1463
19660W        W36508  17.467   2.177  16.181  0.1692  0.0824  0.0016
19661W        W36509   5.734   8.712   5.366  0.2832 -0.0493 -0.1396
19662W        W36510  17.217   2.964   3.898  0.0062 -0.2496  0.1246
19663W        W36511   4.602  16.590  10.444 -0.1284  0.0165  0.1746
19664W        W36512  15.694  10.227  15.582  0.3291  0.1764 -0.0595
19665W        W36513   5.631  12.774   1.934 -0.3059 -0.0388 -0.2189
19666W        W36514   8.004   9.670   3.302  0.0419  0.2032  0.1924
19667W        W36515  12.199   5.030  11.751  0.1942  0.1889 -0.0691
19668W        W36516   5.954   0.708  12.649 -0.1197  0.1506  0.3884
19669W        W36517   5.327   3.693   0.881 -0.1688 -0.0975  0.4354
19670W        W36518   2.011   3.935  11.789  0.0333 -0.0358 -0.1800
19671W        W36519  16.981   6.762   0.690  0.1643 -0.0238 -0.0309
19672W        W36520  11.843   4.403  15.976  0.1506 -0.2335  0.1226
19673W        W36521   3.947   4.779   1.820  0.2096  0.3403 -0.0071
19674W        W36522  12.066  17.379   2.828 -0.0627 -0.0139  0.0014
19675W        W36523   2.926  12.193   2.284  0.2301  0.0360 -0.1172
19676W        W36524   8.040  12.462  13.554 -0.3134 -0.1139 -0.0568
19677W        W36525   7.884  11.898  11.049  0.0077  0.0398  0.4194
19678W        W36526   4.733  12.905  13.948 -0.0447  0.1817 -0.0268
19679W        W36527   6.178   6.671  13.142 -0.1797 -0.1998  0.0208
19680W        W36528   5.562  16.271   4.834  0.1590  0.1263  0.0823
19681W        W36529   1.838   7.001  12.828  0.1264  0.0208  0.0969
19682W        W36530  12.856   7.872  14.530 -0.0922  0.0227 -0.3099
19683W        W36531   4.046  11.342  11.263 -0.1217 -0.1164  0.0714
19684W        W36532   2.837  11.396  14.765 -0.0050  0.6143 -0.2529
19685W        W36533  16.775  10.442  12.777 -0.3671  0.1390 -0.0011
19686W        W36534  14.560  12.370   1.085 -0.0383  0.2323 -0.2078
19687W        W36535  15.095  14.197   3.068  0.2116  0.0634  0.1417
19688W        W36536   4.364  11.999  13.979  0.0996  0.1343 -0.0279
19689W        W36537  13.369   0.440   0.536 -0.0820 -0.1112 -0.0397
19690W        W36538   4.744  17.229   2.856 -0.1166  0.1502 -0.3579
19691W        W36539   6.783  17.347   2.718  0.2570  0.2946  0.2818
19692W        W36540   6.044   3.854  15.403  0.2888 -0.1033  0.0100
19693W        W36541   8.105   2.891  14.982 -0.2225  0.0386 -0.0376
19694W        W36542  14.460  11.884   0.434  0.1567 -0.1202  0.1132
19695W        W36543  15.344  13.091  11.064 -0.0413  0.0555  0.0509
19696W        W36544  14.173  16.981   0.142 -0.0574 -0.1612 -0.1029
19697W        W36545   2.684  13.249  12.344  0.0745 -0.0369  0.1781
19698W        W36546  10.763  11.621   4.892  0.1708 -0.3027  0.4195
19699W        W36547   8.678  13.308  14.458  0.1574  0.0146  0.1981
19700W        W36548   3.874   4.218  12.848 -0.3234  0.2023  0.1986
19701W        W36549  16.520   9.551   2.079  0.1467 -0.2961  0.2427
19702W        W36550  12.797   1.789  16.523  0.2981 -0.1176 -0.0274
19703W        W36551  16.323   9.993   2.406  0.0024  0.2622  0.2723
19704W        W36552  11.743   6.209   2.059 -0.0765 -0.2419 -0.0587
19705W        W36553  16.207  16.821  13.907 -0.0654  0.2054 -0.1075
19706W        W36554  17.831   6.306  16.622  0.0934 -0.0124 -0.4001
19707W        W36555   7.764  10.565   0.968  0.0595 -0.2086 -0.0725
19708W        W36556   7.045   3.115  15.612 -0.2180 -0.1363  0.0674
19709W        W36557   9.276  16.002  13.893  0.1848 -0.1450 -0.0186
19710W        W36558   7.874   0.775   1.543  0.1616 -0.0750  0.4431
19711W        W36559   8.358   0.769  12.310  0.0649  0.0693 -0.0733
19712W        W36560  15.988  14.908  11.930  0.1554 -0.0387  0.4750
19713W        W36561  11.892   9.597   0.962  0.0129  0.1693  0.0290
19714W        W36562   1.127  17.194   4.894  0.1177  0.2004 -0.1027
19715W        W36563  11.656   1.917  12.111 -0.1967  0.1367  0.2546
19716W        W36564   9.589   8.046   0.305 -0.0782 -0.4859  0.1874
19717W        W36565   0.941   0.313  11.377 -0.0332  0.1198 -0.0748
19718W        W36566  16.275  14.176  12.905 -0.2291  0.0843  0.3129
19719W        W36567  13.717   1.876  12.394  0.0258 -0.2430 -0.1909
19720W        W36568   0.703   3.741  11.779  0.0916 -0.1147  0.3202
19721W        W36569   9.331   0.847  15.658 -0.1911  0.0518 -0.0931
19722W        W36570   5.472  16.025  13.494  0.0339 -0.2684  0.0262
19723W        W36571   7.551  14.453  10.607 -0.1480  0.3143 -0.2194
19724W        W36572   6.086   3.248   3.851  0.0687  0.0893  0.0130
19725W        W36573  16.411   9.215   2.867 -0.3044  0.0488  0.0919
19726W        W36574   2.284  10.251   2.066 -0.1844  0.1782 -0.2077
19727W        W36575  14.992  17.455  16.621 -0.0346  0.1632 -0.5038
19728W        W36576   7.982  15.698  16.499  0.0433  0.2186 -0.1015
19729W        W36577   1.048   9.812  12.433 -0.2344 -0.0442  0.2184
19730W        W36578  12.731   6.854  13.256  0.1461  0.0460 -0.0507
19731W        W36579  14.929  13.949  14.735  0.0384  0.1064 -0.1008
19732W        W36580   2.173  11.560  11.912  0.0901  0.0007  0.1013
19733W        W36581   1.863  14.321  14.557 -0.1685  0.0383 -0.1273
19734W        W36582  12.477  10.944  14.628 -0.4075 -0.0774  0.2096
19735W        W36583  17.294   5.934  11.545  0.1767 -0.3982 -0.1032
19736W        W36584   2.787   7.599   3.129 -0.2584  0.2846  0.1179
19737W        W36585   1.631  11.552   1.674 -0.1601  0.3439 -0.1859
19738W        W36586  11.054   3.220  14.129  0.0645  0.0581 -0.1828
19739W        W36587   5.544   8.032  15.255  0.2390 -0.3281  0.3111
19740W        W36588   8.565   7.750  11.637 -0.2711  0.0256 -0.1330
19741W        W36589   5.469  15.975   1.051  0.0170 -0.0683  0.2284
19742W        W36590   0.608   2.045  14.564  0.2144 -0.1533  0.1353
19743W        W36591  11.737  14.615  11.646  0.0647 -0.0119  0.0618
19744W        W36592  13.022   0.948   2.210 -0.0217  0.6506  0.2385
19745W        W36593   6.355   0.379  14.189 -0.1808 -0.0642  0.2515
19746W        W36594   4.676   0.244   1.001  0.2454 -0.0238 -0.3492
19747W        W36595  16.429   3.401  14.140 -0.1510  0.3742  0.0118
19748W        W36596  16.726  10.764   0.523 -0.2392 -0.0810 -0.1859
19749W        W36597  15.854   2.349  14.813  0.2705  0.1973  0.2544
19750W        W36598   3.381  16.311  12.865  0.1547 -0.1479 -0.0546
19751W        W36599   1.695  17.504  15.507  0.1396 -0.3706  0.4211
19752W        W36600   9.335  14.512   2.304  0.0648 -0.1921 -0.1782
19753W        W36601   8.151   7.736  16.436  0.1423  0.3073  0.0367
19754W        W36602  13.858   7.993   2.707 -0.0088  0.1620 -0.0007
19755W        W36603   1.173  12.813  16.071  0.5205 -0.0503 -0.1392
19756W        W36604   4.254   7.254   0.692  0.0738 -0.2389 -0.3105
19757W        W36605  12.808  12.889   3.350 -0.3420 -0.0167  0.0266
19758W        W36606   9.990   3.094   2.234 -0.0429 -0.2103  0.0980
19759W        W36607   4.532   0.776   4.667  0.1732  0.0323 -0.3487
19760W        W36608   6.096   1.832  13.180 -0.1457  0.1224  0.0261
19761W        W36609   4.655  10.874  11.772  0.1803 -0.0602 -0.2343
19762W        W36610  15.738   1.742   0.983 -0.1262  0.2167 -0.0733
19763W        W36611  13.494   8.803  15.274 -0.0233  0.1633  0.0084
19764W        W36612  10.213  15.468  13.150 -0.0201 -0.1716  0.4531
19765W        W36613   2.011   9.571  11.113 -0.0671  0.1694  0.2126
19766W        W36614   8.080   9.615  16.235  0.1125 -0.0932  0.3150
19767W        W36615   6.604  13.608   3.090 -0.3131  0.3277 -0.1631
19768W        W36616   1.235   2.150   0.313  0.0223  0.1453  0.0394
19769W        W36617   3.314   4.238   1.864  0.2436  0.2887  0.0487
19770W        W36618  12.001  12.764  12.557 -0.2881 -0.0733  0.0695
19771W        W36619  11.292  11.286   1.035  0.1410 -0.3201  0.0202
19772W        W36620   3.069  12.585  14.338 -0.1879 -0.1212 -0.0677
19773W        W36621  17.776   2.509  13.525 -0.2151  0.0943 -0.1071
19774W        W36622   4.192  14.399   4.996 -0.0490 -0.2222 -0.1222
19775W        W36623   7.629  14.081   4.335 -0.1691 -0.0119  0.3247
19776W        W36624  10.595  12.506   5.227  0.1874  0.0981  0.0110
19777W        W36625  16.979  16.480  14.700 -0.1353  0.0931  0.3320
19778W        W36626   8.919  16.312   4.078  0.0827 -0.2694 -0.0668
19779W        W36627   7.247  12.072  15.698 -0.1885  0.1508  0.0510
19780W        W36628   5.769   8.649  16.157  0.1595 -0.2637  0.0332
19781W        W36629   7.629  10.554  16.278 -0.1787  0.1720 -0.1703
19782W        W36630  12.432  14.788   0.915 -0.0106  0.0013 -0.0604
19783W        W36631   5.959  10.153   0.444 -0.1227  0.0359  0.2375
19784W        W36632  10.834   8.452   1.818  0.1302  0.1610 -0.2497
19785W        W36633   2.658   0.189   4.030 -0.2564 -0.0089  0.1989
19786W        W36634   8.260   7.073  15.487 -0.1304  0.2900  0.1684
19787W        W36635   6.913  14.220   5.546  0.4024  0.1583 -0.2357
19788W        W36636   8.040  13.029  15.822  0.1365  0.0636  0.0892
19789W        W36637   5.862   5.239   1.858  0.0606 -0.2093 -0.4060
19790W        W36638  11.953  16.277   1.704  0.1269 -0.3101 -0.1436
19791W        W36639  11.240   4.774  15.174  0.2332  0.1296 -0.2176
19792W        W36640  14.554   3.409   4.453 -0.1283 -0.3573 -0.0416
19793W        W36641   6.040  11.315   0.290 -0.0065  0.1366 -0.1185
19794W        W36642   9.463   8.144  14.162 -0.0331  0.0351  0.1828
19795W        W36643   3.221  15.676   5.207  0.0609  0.1283  0.2293
19796W        W36644   7.350   0.882   0.513 -0.0972 -0.0419 -0.0408
19797W        W36645  10.900   3.383   0.855 -0.1473 -0.0982 -0.2651
19798W        W36646   1.913   0.304   2.439  0.1620 -0.0504  0.0702
19799W        W36647  13.629   4.992   2.638  0.0859 -0.0547  0.0236
19800W        W36648   8.052  15.180  13.597 -0.0797  0.2363  0.1900
19801W        W36649   5.415  17.640  15.115  0.2450 -0.1593 -0.2100
19802W        W36650   9.782  14.618   3.881  0.3545  0.0586 -0.1817
19803W        W36651   3.063   8.914   4.840 -0.3471 -0.1193  0.2428
19804W        W36652  12.684   5.584  15.016 -0.2018 -0.0200  0.0324
19805W        W36653  15.336  15.399  13.083  0.0736 -0.0244 -0.0683
19806W        W36654   7.231   9.127  11.318 -0.3600 -0.0023  0.1969
19807W        W36655   1.426   5.991  15.934 -0.0906  0.1118  0.5764
19808W        W36656  17.362   5.448   5.140 -0.4196  0.2516 -0.0092
19809W        W36657  12.643  13.774   1.135 -0.0642  0.1197  0.0733
19810W        W36658   6.068   3.429  15.749  0.1201 -0.2683  0.0095
19811W        W36659  14.890   0.021   2.886  0.0394 -0.0433  0.0631
19812W        W36660  17.102   4.952   3.687  0.4701  0.0781  0.1675
19813W        W36661  17.645   6.365   5.714 -0.0212  0.0091  0.0685
19814W        W36662   2.101  12.661  14.651 -0.0808  0.0186 -0.1007
19815W        W36663   8.830  16.445  13.077 -0.0371 -0.0543  0.2967
19816W        W36664   7.433  10.897   1.814 -0.0916 -0.3208 -0.1574
19817W        W36665  11.670   5.853  12.130  0.3072 -0.1434 -0.0937
19818W        W36666  13.042  15.331   0.569 -0.3096 -0.0347  0.2081
19819W        W36667  12.102  17.439   4.936  0.3274 -0.0759  0.1708
19820W        W36668   8.256   9.940   2.972 -0.2544 -0.0769  0.1842
19821W        W36669   4.503   1.679   4.150  0.2137 -0.0941 -0.1991
19822W        W36670  17.643  17.035  15.076  0.1627 -0.1489 -0.4101
19823W        W36671   5.677  10.009  16.142  0.1413  0.1257 -0.2084
19824W        W36672   0.595  16.500  15.970 -0.0888 -0.3044  0.1423
19825W        W36673   2.536   0.800  12.448 -0.0946  0.0590 -0.0264
19826W        W36674  11.367  12.017   2.491  0.1289 -0.0469  0.0692
19827W        W36675   6.153   8.665  15.764  0.2251  0.1625 -0.1877
19828W        W36676   8.705   2.037  14.077 -0.0032 -0.0787 -0.1657
19829W        W36677   0.215  16.467   1.845  0.0040 -0.1538  0.0357
19830W        W36678  12.006  12.483   1.624 -0.1654  0.0765 -0.2632
19831W        W36679   8.197  12.623   5.460 -0.1944 -0.1314  0.1173
19832W        W36680   1.127   0.781  15.705  0.0243  0.2590 -0.0012
19833W        W36681  16.994   9.283   0.794 -0.0732 -0.0522  0.1561
19834W        W36682   4.569   9.159   1.169 -0.1150  0.1172  0.0292
19835W        W36683   0.741   0.501   5.529 -0.0553  0.1491  0.2546
19836W        W36684   6.825   4.551   0.399  0.0059 -0.1029 -0.1095
19837W        W36685  13.687  12.612  11.802 -0.0090 -0.0275  0.0231
19838W        W36686  15.005   1.114  13.777  0.1012  0.0212  0.1742
19839W        W36687   8.396   3.641   4.398 -0.1163 -0.2029  0.2301
19840W        W36688  11.225  10.077  12.656 -0.3090  0.0298 -0.1140
19841W        W36689  15.839  15.980   3.771  0.1621 -0.4756  0.5398
19842W        W36690  14.881   5.019   5.290 -0.0066  0.0538  0.0206
19843W        W36691   4.657  13.752   2.432 -0.2383 -0.0711  0.2952
19844W        W36692   6.901   4.165  11.645 -0.2346  0.0342 -0.0640
19845W        W36693   1.306  16.310  14.051  0.0840  0.0594 -0.0470
19846W        W36694   8.596   8.087   2.402  0.2324 -0.1963  0.1516
19847W        W36695  12.564   8.142   4.029 -0.0474 -0.0193 -0.0014
19848W        W36696  13.893   6.244  13.011  0.0582  0.2284 -0.1127
19849W        W36697  14.178   7.730  15.714  0.0506  0.3826  0.1956
19850W        W36698  10.404   1.559   3.917  0.1755 -0.1220 -0.0083
19851W        W36699  14.041  13.388   5.463 -0.0226  0.0733 -0.0842
19852W        W36700  15.932   6.835   4.112  0.1529  0.1758 -0.3242
19853W        W36701   4.056  15.899   5.294  0.0790 -0.1460  0.2058
19854W        W36702   6.166  13.103  12.489  0.2023 -0.0584  0.0643
19855W        W36703  11.244   7.431  12.605 -0.1285 -0.0867  0.0346
19856W        W36704   1.364   3.781  14.544  0.0750  0.2311 -0.2257
19857W        W36705  14.783  13.005  12.800 -0.1113 -0.2213  0.1884
19858W        W36706  12.416   9.597  13.224  0.1803 -0.1860  0.0027
19859W        W36707  16.895   3.932   4.274  0.1517  0.0002  0.0336
19860W        W36708   7.481  16.769   0.612  0.0630  0.0887 -0.0343
19861W        W36709  11.885   1.589   0.160  0.3140 -0.2163 -0.2867
19862W        W36710  15.118   5.715   2.544  0.1991 -0.0306  0.0796
19863W        W36711   0.960   8.944  12.048 -0.2951  0.1602  0.0635
19864W        W36712  14.035   1.500  15.819 -0.0313  0.0811  0.0132
19865W        W36713  13.337   6.838   1.797 -0.0749  0.2691 -0.2146
19866W        W36714   6.051   2.172  10.905  0.2227  0.0407 -0.2323
19867W        W36715   5.425  12.650  14.994 -0.1531  0.0567 -0.0746
19868W        W36716   0.709  16.982   4.698  0.3166 -0.0179 -0.0425
19869W        W36717   0.878   5.050   2.762  0.0025  0.2624  0.0401
19870W        W36718   2.592   2.746   1.362 -0.0994  0.1328  0.1182
19871W        W36719   9.101   0.673   3.599  0.0064 -0.3093 -0.0175
19872W        W36720   1.964   9.586   5.040  0.0052 -0.1009  0.2185
19873W        W36721  13.488  14.459  16.392  0.1495  0.2272  0.1007
19874W        W36722   1.629  14.406   2.512 -0.1907 -0.3302 -0.5112
19875W        W36723  15.912  11.201   3.411  0.0142 -0.0647 -0.0574
19876W        W36724  14.491   8.212  13.612  0.0679 -0.0413  0.0689
19877W        W36725  14.185   6.362  13.410  0.1169 -0.1361  0.2739
19878W        W36726   0.043   2.459  15.316  0.0830  0.0941 -0.0539
19879W        W36727   8.737   1.387   5.969  0.0075 -0.0296 -0.1554
19880W        W36728   8.545   8.958  16.631  0.1166  0.0968  0.1368
19881W        W36729  12.203   3.222   3.329  0.0049 -0.2159  0.1094
19882W        W36730   6.654  13.605  14.441  0.2766  0.1140 -0.0544
19883W        W36731  10.784   9.008  15.851  0.2654  0.0352  0.0771
19884W        W36732  11.452   1.653   2.987 -0.1331  0.4079  0.1529
19885W        W36733   6.034   1.149   0.296  0.1332 -0.0951 -0.0999
19886W        W36734   2.554   3.320   2.505 -0.1086  0.1390  0.2318
19887W        W36735   5.902  10.738  13.711 -0.2266 -0.0221  0.0683
19888W        W36736  15.373   2.316   4.916 -0.0328 -0.0616 -0.2283
19889W        W36737  10.909  15.159  14.759  0.1965 -0.0922  0.0532
19890W        W36738   2.477   2.149   0.573 -0.1217  0.1538  0.0047
19891W        W36739  14.359   7.834  14.964 -0.2120 -0.1059 -0.0212
19892W        W36740  14.273  15.476   2.743  0.1634 -0.1087  0.1837
19893W        W36741   9.631   0.578   1.111  0.0278  0.0461  0.0472
19894W        W36742  14.702  14.903   4.638  0.0017  0.0591 -0.2595
19895W        W36743   5.017   7.748  12.336 -0.0215  0.1485  0.0956
19896W        W36744  17.101   2.092  11.544  0.0523 -0.1075 -0.2021
19897W        W36745  16.345   7.025  13.829 -0.0631 -0.2037 -0.0786
19898W        W36746  11.300   7.881  12.815  0.2548  0.3462  0.1700
19899W        W36747   9.493   7.846   3.951  0.2134  0.2016  0.0976
19900W        W36748   4.845  14.829  15.752  0.2974  0.1053  0.1245
19901W        W36749   0.405   9.603   1.346  0.1423 -0.3127 -0.0181
19902W        W36750  13.169  11.383  15.509 -0.2357  0.0643  0.0985
19903W        W36751  13.558   2.358   1.306  0.2735  0.0317 -0.1789
19904W        W36752   3.537   2.369  13.036 -0.0225 -0.0060 -0.2661
19905W        W36753   0.537   8.490  13.263  0.3465  0.0338  0.0879
19906W        W36754   7.648   2.273  15.350  0.1196  0.0249 -0.2200
19907W        W36755  14.838  13.249   1.328 -0.0911 -0.0059 -0.0356
19908W        W36756  12.444   3.285   1.908 -0.0575  0.1185  0.0681
19909W        W36757   8.369  10.012  16.217  0.1109  0.0211  0.3300
19910W        W36758  16.876   1.064   0.684  0.0384  0.0637  0.2818
19911W        W36759  15.804  11.691   3.434  0.4797 -0.0110  0.3437
19912W        W36760   3.299   9.026  12.508  0.5677 -0.2661 -0.2004
19913W        W36761   4.661   6.977   6.025  0.0389  0.0658 -0.2503
19914W        W36762  14.764  17.367  15.652  0.2698  0.0597 -0.0966
19915W        W36763  12.649  11.825   3.809  0.0505  0.1254 -0.1392
19916W        W36764   7.607   4.769   0.554 -0.1911  0.2416  0.1866
19917W        W36765   5.408   2.689  13.541 -0.1499  0.0164  0.2067
19918W        W36766  10.526   3.488   2.788  0.1308  0.3776  0.0154
19919W        W36767  12.122   8.761  16.407  0.3703  0.1308  0.1592
19920W        W36768  14.239   3.616  13.377  0.2134 -0.0113 -0.2467
19921W        W36769   2.127  15.218  15.091  0.0018 -0.0373  0.3723
19922W        W36770   6.961   2.781   1.536 -0.3197 -0.4821  0.1108
19923W        W36771  10.402   1.262  14.264  0.1667 -0.1303  0.1889
19924W        W36772   9.773   2.555  13.515 -0.1861 -0.3165 -0.1897
19925W        W36773   8.929   2.279  13.688 -0.0778  0.0138  0.1858
19926W        W36774   2.920   0.456  13.373  0.0376 -0.1576  0.0076
19927W        W36775   9.062   9.832   1.240 -0.1262  0.4830  0.0400
19928W        W36776   0.787  16.992  15.294 -0.0574 -0.2183 -0.2143
19929W        W36777   5.486   0.803  14.113 -0.4558 -0.0075  0.1151
19930W        W36778   0.437   1.413   3.439 -0.4931  0.4716 -0.4629
19931W        W36779   8.682  15.972   4.456  0.1152 -0.1193 -0.2248
19932W        W36780  15.902  12.642  12.533  0.0337  0.0128  0.0104
19933W        W36781  13.914  13.063  12.218 -0.0994  0.0756  0.2885
19934W        W36782  17.417   9.782   1.199  0.1461 -0.4272 -0.0707
19935W        W36783  16.321  16.440  13.561  0.0549  0.2079  0.0975
19936W        W36784  10.419  15.653  16.050 -0.1005 -0.3866 -0.1512
19937W        W36785   3.989  12.817   2.479 -0.1312  0.1148 -0.0413
19938W        W36786   0.013   0.761  13.399  0.1401 -0.0993 -0.1924
19939W        W36787   1.159   3.898  13.608 -0.2617  0.0538 -0.1060
19940W        W36788  16.619   0.509  15.216 -0.1523  0.1039 -0.3221
19941W        W36789  10.313   7.200  13.319  0.1790 -0.0146  0.0614
19942W        W36790  16.730  11.101  15.997 -0.0917  0.0512  0.0098
19943W        W36791   6.057   1.190   1.159  0.0026 -0.1578  0.0293
19944W        W36792  13.098  14.181  15.037 -0.1871 -0.2664  0.1182
19945W        W36793  17.007   8.042   0.419 -0.0990  0.4229 -0.1811
19946W        W36794   3.240   1.133  10.979  0.2575  0.0705 -0.0412
19947W        W36795   3.502  13.081   5.557  0.2365 -0.0667  0.0296
19948W        W36796  11.847   9.536  16.353 -0.0037 -0.4013 -0.5189
19949W        W36797   9.754   4.799   5.241  0.0985 -0.1861 -0.1818
19950W        W36798   4.172  14.847   5.193  0.1483 -0.0235  0.2241
19951W        W36799   5.089   7.176  14.773  0.0397 -0.1197 -0.0540
19952W        W36800   3.996  16.289  12.429  0.1210  0.0749 -0.0817
19953W        W36801   5.631   5.974  12.168  0.0042  0.1394 -0.0144
19954W        W36802   8.492   9.861   4.653 -0.1843  0.2742  0.2257
19955W        W36803  14.918   9.150  15.773  0.1352 -0.2541  0.3246
19956W        W36804   9.068   7.470  13.801  0.1195 -0.2313  0.4690
19957W        W36805   6.368  16.620  11.809 -0.3136  0.2717  0.0647
19958W        W36806  14.957   2.232   5.393 -0.0006 -0.0099  0.1413
19959W        W36807  15.987   4.224   1.287  0.0638  0.1391 -0.1156
19960W        W36808   7.832   5.214  13.180 -0.0872 -0.0347  0.0961
19961W        W36809  17.643  16.728   1.754 -0.1323  0.2983  0.4735
19962W        W36810   9.847  16.329   2.522  0.4487  0.1345  0.0838
19963W        W36811   4.329  16.005  13.269  0.1079  0.0470  0.0950
19964W        W36812  11.649  12.154  11.622 -0.4619  0.2968 -0.1747
19965W        W36813   2.160  12.363  13.160 -0.1109 -0.0909  0.1957
19966W        W36814  11.524   3.938   3.957 -0.0062  0.0641  0.0544
19967W        W36815  16.101   9.690   0.835 -0.0933  0.2553  0.0734
19968W        W36816  13.821  12.247   4.026  0.1017 -0.1616  0.1369
19969W        W36817   7.156  12.542  15.435  0.0430  0.1155  0.1486
19970W        W36818  14.011  15.752   4.472  0.0830 -0.1569 -0.3096
19971W        W36819   9.510  11.785   3.212  0.0860 -0.1552  0.3406
19972W        W36820   3.844   9.549   1.626  0.2347 -0.2457  0.0946
19973W        W36821   9.072   5.287  16.282  0.2881  0.0637 -0.0228
19974W        W36822   9.486   1.545   3.977 -0.2184 -0.0792 -0.0305
19975W        W36823  11.661   1.394   0.963 -0.0326  0.2638  0.2472
19976W        W36824  12.255  11.590   1.957 -0.0153 -0.0666 -0.1974
19977W        W36825   0.093  10.843   3.810  0.1897 -0.0713 -0.0689
19978W        W36826   8.038  15.508   1.253  0.3676 -0.1971 -0.0736
19979W        W36827   1.128   3.495  16.400  0.0777 -0.1150 -0.0058
19980W        W36828   5.974  11.982  14.337  0.1417 -0.1878 -0.0927
19981W        W36829   3.384   2.843   3.131 -0.0473  0.2854 -0.2088
19982W        W36830  10.528   7.890   2.657  0.1368 -0.3478  0.0907
19983W        W36831  16.088  16.104  15.217  0.0790  0.2371  0.0199
19984W        W36832  11.256  11.050   3.465  0.1424  0.2537  0.0574
19985W        W36833   8.041   2.754   5.276 -0.0795 -0.0168 -0.1112
19986W        W36834   7.037  16.720  16.467  0.1066 -0.1163  0.2366
19987W        W36835  15.391  12.990  14.699  0.1025  0.3980 -0.0408
19988W        W36836   0.256  15.371  13.583  0.0336  0.0770 -0.0421
19989W        W36837   7.872  16.922  12.080  0.2985  0.2493  0.2228
19990W        W36838   3.991  10.042   1.875  0.2177  0.1143 -0.2646
19991W        W36839  17.346  14.361   2.484  0.1718 -0.1154  0.0460
19992W        W36840  10.473  13.058  14.164  0.3269  0.1231 -0.2055
19993W        W36841   2.453  14.968   3.929  0.2270  0.0631 -0.1290
19994W        W36842  16.901   7.669   4.051 -0.0715 -0.0131  0.1390
19995W        W36843   9.175   2.010  13.335 -0.1205  0.2122  0.0655
19996W        W36844   2.929  10.144   0.428  0.3095  0.1747  0.2906
19997W        W36845   8.628  10.799  13.232 -0.2770  0.3511 -0.1325
19998W        W36846  10.944  12.528   4.908 -0.1903 -0.1097  0.0498
19999W        W36847  14.470   2.904  15.878  0.0680 -0.0822  0.0968
20000W        W36848  10.075   3.613   2.506 -0.2657 -0.2199 -0.1611
20001W        W36849   1.027  13.837   3.554 -0.1612 -0.0959  0.0883
20002W        W36850  16.415   4.139   5.415  0.3601  0.0514  0.1573
20003W        W36851   6.783   4.041   0.510 -0.3124 -0.0734 -0.1100
20004W        W36852  14.812   1.185  12.889 -0.2635 -0.1328  0.0870
20005W        W36853   5.672  15.192  11.942  0.2034 -0.0887  0.3899
20006W        W36854  14.471   6.361  14.712  0.3506 -0.3580  0.0784
20007W        W36855   8.142   4.136  14.496  0.0387  0.0293  0.0489
20008W        W36856   6.053  12.076   5.051  0.0003  0.2471  0.2202
20009W        W36857  10.523  15.519  14.931 -0.1660 -0.1122  0.0387
20010W        W36858   0.421  16.205   0.116  0.4184  0.1111 -0.1618
20011W        W36859   6.693   1.058   1.808  0.0001 -0.1501 -0.1259
20012W        W36860   3.290  12.655   0.294 -0.1184  0.0870 -0.0493
20013W        W36861   6.614   1.403   3.889  0.3560  0.1226  0.2805
20014W        W36862   4.896  11.181   1.555 -0.0555 -0.0577  0.1688
20015W        W36863   3.009   8.113  14.864 -0.1370  0.0538  0.1284
20016W        W36864   4.030   8.192   2.389 -0.0553 -0.0556 -0.0704
20017W        W36865   4.350   7.967  14.415 -0.2828 -0.2391 -0.0663
20018W        W36866   7.065  14.526   2.122  0.1298 -0.1738 -0.0302
20019W        W36867  10.879   5.870  13.924  0.2612  0.0093  0.1551
20020W        W36868   8.077   8.551   2.079  0.3304 -0.2250 -0.1126
20021W        W36869   8.786  17.111  15.337  0.0674  0.1401  0.4791
20022W        W36870   6.741   5.050  15.121 -0.0282  0.1641 -0.1218
20023W        W36871   8.928   7.996  14.044 -0.2279  0.0064  0.3189
20024W        W36872   0.520   0.298  11.115 -0.0123 -0.0358 -0.2925
20025W        W36873  15.332  17.056   3.991 -0.1621  0.0395 -0.1951
20026W        W36874   0.610  17.759  13.634  0.0529 -0.0245 -0.0445
20027W        W36875  11.517   2.383   4.144 -0.2744  0.0633  0.3241
20028W        W36876  13.789  12.227   0.924 -0.1401 -0.0937 -0.1496
20029W        W36877   2.244   3.370   4.523 -0.2489 -0.1803  0.0937
20030W        W36878  10.318   4.900  11.440  0.2253  0.2992  0.1060
20031W        W36879   3.624   8.220   0.561 -0.1174 -0.0529 -0.0977
20032W        W36880  13.764  10.612  12.184 -0.2574 -0.2137  0.1507
20033W        W36881   7.686   8.793   2.335  0.0688 -0.0309  0.0045
20034W        W36882   0.184   0.237   4.195  0.0413 -0.0207  0.0016
20035W        W36883   0.950   9.932  12.889  0.4531 -0.2576  0.1146
20036W        W36884  14.170   1.957   2.646  0.2935 -0.0490  0.1903
20037W        W36885  16.785  13.831   4.635 -0.1752 -0.0253  0.0537
20038W        W36886   6.644   5.596  15.181  0.0842  0.0319 -0.0085
20039W        W36887   2.900   2.579   0.982 -0.1098 -0.0667  0.0032
20040W        W36888   7.491   3.382  15.705 -0.2379  0.3385  0.2819
20041W        W36889  14.645   8.973  12.514  0.1557  0.3099 -0.1522
20042W        W36890  15.656  17.232  13.205 -0.0662  0.0477  0.4294
20043W        W36891  17.462  13.175  13.987  0.0412  0.2278 -0.1425
20044W        W36892  13.132   8.189   1.477  0.2103  0.0122  0.0064
20045W        W36893   2.391   8.176  12.814  0.0463  0.0601 -0.0786
20046W        W36894  11.871   1.703  13.992  0.3297 -0.0250 -0.0967
20047W        W36895   7.202  10.007  16.491  0.2416  0.2521  0.2780
20048W        W36896  15.752   4.934   2.523 -0.1000  0.0445  0.0681
20049W        W36897  10.640   5.395   1.875 -0.1562 -0.2737 -0.1685
20050W        W36898  16.087  11.180  11.861 -0.0605 -0.1466 -0.2552
20051W        W36899   9.473   7.789  13.712  0.0530  0.0375  0.2070
20052W        W36900  13.603   8.103   5.999  0.1847  0.1164 -0.3172
20053W        W36901   3.823  16.543  14.914  0.1248  0.1013 -0.0802
20054W        W36902   6.859   9.121  16.494 -0.1015  0.2604  0.0236
20055W        W36903  10.552   2.960   1.414  0.3318 -0.0796  0.0089
20056W        W36904   1.946   2.119  15.693  0.0039 -0.0519  0.0337
20057W        W36905  17.858  15.034  12.563 -0.2941 -0.2678  0.1293
20058W        W36906   4.388   8.776   4.938 -0.2030 -0.0956 -0.1790
20059W        W36907  11.825   6.167  13.600 -0.1487  0.0409  0.1084
20060W        W36908   8.896   3.622   5.236 -0.4075  0.3935 -0.1186
20061W        W36909  10.069   6.629  12.002  0.1280  0.0129  0.0531
20062W        W36910  14.750  13.641  10.619 -0.3205 -0.3548  0.1824
20063W        W36911   9.173  17.667  13.052  0.0842  0.0475 -0.2525
20064W        W36912   9.931   6.230   3.376  0.0891 -0.1077 -0.3857
20065W        W36913  13.400  16.332  14.069 -0.2222  0.0032 -0.1069
20066W        W36914   7.265   5.547   2.170  0.1248  0.0965 -0.0385
20067W        W36915  10.449   5.086   4.575 -0.0193  0.2070 -0.3549
20068W        W36916   8.944  17.082   0.071  0.0649  0.1847  0.1225
20069W        W36917   3.695  10.615  12.771  0.1679 -0.1448 -0.1993
20070W        W36918  13.516  11.287   3.780 -0.0227 -0.3958  0.0183
20071W        W36919   3.800   5.702  12.659 -0.1867 -0.2311  0.3521
20072W        W36920  16.642  14.652  14.393 -0.1362  0.1879 -0.0535
20073W        W36921  10.203   9.468   1.063 -0.0145  0.0302 -0.2710
20074W        W36922   0.664  15.272   1.302  0.1973 -0.1055  0.2115
20075W        W36923   5.987  10.094   0.966  0.1670 -0.1005 -0.3344
20076W        W36924  17.017   4.011  12.479  0.1343  0.0633 -0.1328
20077W        W36925   2.758   2.036  11.104 -0.0686  0.1220 -0.0361
20078W        W36926   7.681  17.069  15.765  0.0388 -0.0463  0.0612
20079W        W36927  10.331   0.210   3.787 -0.0864  0.0005 -0.3342
20080W        W36928  13.346  10.403   0.260  0.1285 -0.0547  0.0622
20081W        W36929   6.327   8.427   3.312  0.5203  0.1220  0.1027
20082W        W36930  16.180   9.337  14.988  0.2380  0.0793 -0.1740
20083W        W36931  11.513   6.557   3.613 -0.1350  0.0218 -0.0426
20084W        W36932  15.300   9.194  13.733 -0.1589 -0.4017  0.1745
20085W        W36933   2.769   4.428   1.932 -0.1461 -0.0337 -0.2023
20086W        W36934  15.610   4.025   0.478  0.0502  0.0153 -0.3862
20087W        W36935  12.905   9.858  11.279  0.1443  0.0309  0.0306
20088W        W36936  13.304  11.005  16.089 -0.0817 -0.1848 -0.0314
20089W        W36937   4.475  10.247   4.518  0.2255 -0.1005  0.1370
20090W        W36938  12.744  14.454   4.371  0.0739  0.1309  0.0583
20091W        W36939  10.286   0.848  12.620  0.0266  0.1104  0.2381
20092W        W36940  13.623  10.265  13.898  0.0011  0.0521  0.0743
20093W        W36941   5.369   9.857   2.541 -0.0180  0.2121 -0.0741
20094W        W36942   6.620  17.778  10.796  0.1638 -0.2220 -0.1112
20095W        W36943   7.641  15.271  12.603 -0.0443  0.3215 -0.0650
20096W        W36944  11.821   0.893   0.786  0.0456 -0.1418  0.0897
20097W        W36945   9.071   8.040   1.572  0.2387  0.1277  0.1277
20098W        W36946  11.781   9.054  15.753  0.0110  0.0740 -0.2362
20099W        W36947   7.657   1.251  14.350  0.0737  0.0773  0.0901
20100W        W36948   2.801  13.597   4.034  0.0579 -0.1436 -0.2113
20101W        W36949   5.412  11.448  14.550  0.2567  0.1308 -0.0207
20102W        W36950   5.100  11.775  15.643 -0.0720 -0.0364 -0.0439
20103W        W36951   3.252  12.139  12.235  0.0100  0.1721 -0.2175
20104W        W36952  13.142  12.311   2.708 -0.0058  0.3040  0.3182
20105W        W36953   4.816  12.126  15.696  0.0445 -0.2438 -0.1415
20106W        W36954   8.195   3.704  12.500 -0.2605 -0.0008 -0.1230
20107W        W36955  15.748   1.042   5.400 -0.2377 -0.1351 -0.1967
20108W        W36956   3.898   6.380  11.126  0.1222  0.0589 -0.0926
20109W        W36957   9.240   3.127  14.135  0.0091  0.1911 -0.2230
20110W        W36958   2.949  13.491  15.391  0.2803  0.0881 -0.2105
20111W        W36959   3.218  14.802  11.841  0.0838 -0.1364  0.1361
20112W        W36960  13.594  11.857   3.167  0.2047  0.2105 -0.0275
20113W        W36961   3.292   2.737  15.792 -0.1722  0.1028  0.1900
20114W        W36962  10.215  10.761  11.380  0.0572 -0.0131  0.1520
20115W        W36963   2.781  16.510  12.591  0.3228  0.2367 -0.1864
20116W        W36964   5.678   3.153   5.924 -0.0824  0.2851  0.1457
20117W        W36965  15.316  12.072  12.472 -0.0188  0.3277 -0.2439
20118W        W36966  13.473   2.909  12.085 -0.1325  0.2878 -0.1981
20119W        W36967  11.673   0.174  13.376 -0.2076  0.0359 -0.0250
20120W        W36968  14.877   4.640   4.302  0.0776  0.4248  0.1435
20121W        W36969   8.471   3.900  16.566  0.3188  0.1013 -0.2731
20122W        W36970  13.853   2.487  15.584  0.1432  0.1185 -0.0239
20123W        W36971   6.855  13.332   3.682 -0.2183  0.0123  0.1913
20124W        W36972   5.281   6.689  14.892  0.1468  0.1600  0.2422
20125W        W36973   9.015   7.127  16.169  0.0417  0.0512 -0.3298
20126W        W36974   8.628   0.194   5.970  0.4926 -0.1891 -0.1326
20127W        W36975  11.354   3.773  12.306 -0.2902  0.1175 -0.0442
20128W        W36976  14.856   1.879  14.428  0.0337  0.0748  0.0712
20129W        W36977   3.787  13.868  12.781  0.1145  0.1497 -0.2243
20130W        W36978  13.522   3.450  12.525 -0.0281  0.2123  0.1767
20131W        W36979   3.998  15.998   4.786  0.2414 -0.0039  0.2423
20132W        W36980  17.197  11.202  14.085  0.2586 -0.0052 -0.0593
20133W        W36981   3.444   1.301   3.279 -0.0670 -0.0457  0.0437
20134W        W36982   2.886   6.484   1.000 -0.0808  0.0348  0.0251
20135W        W36983  12.013  14.536   0.875 -0.3362 -0.1032  0.1920
20136W        W36984   4.117  17.000  11.271  0.1118 -0.4945 -0.0596
20137W        W36985   1.826  11.228   4.762  0.1544  0.2877 -0.1357
20138W        W36986  14.878   9.570  11.915 -0.2860 -0.0944  0.2525
20139W        W36987   1.482   1.750   4.835 -0.0497 -0.1744 -0.1310
20140W        W36988   1.183  16.571  15.255 -0.0153  0.1781  0.3564
20141W        W36989   1.638   0.798   5.225  0.0967  0.1088  0.1196
20142W        W36990   1.060  10.135   4.090 -0.1794  0.1090  0.4906
20143W        W36991   0.385  13.833  16.017  0.1280 -0.4150  0.1521
20144W        W36992   0.932  10.248  16.201  0.2625  0.0101 -0.0241
20145W        W36993   7.361   7.464   2.114  0.4182 -0.0176 -0.2607
20146W        W36994  17.167  13.115   4.173  0.0065  0.1813 -0.0275
20147W        W36995  16.921   0.557   4.201 -0.2735  0.2080  0.2494
20148W        W36996   9.981  12.535   5.185 -0.2334 -0.0193  0.0951
20149W        W36997   5.123  10.291   5.233  0.1024 -0.1838 -0.0924
20150W        W36998   8.637   5.509  14.152  0.0285  0.2943 -0.2922
20151W        W36999  13.079   1.641   2.935 -0.0581  0.0224 -0.0468
20152W        W37000   4.956  10.014   4.830 -0.1073  0.1321  0.1210
20153W        W37001   3.203  10.652  12.792 -0.3644  0.0690  0.0710
20154W        W37002   5.165   5.858  14.751  0.2632  0.1879  0.2411
20155W        W37003  14.931  14.117   4.150 -0.2060 -0.2746  0.2958
20156W        W37004   0.180  14.440  15.054  0.0395 -0.3483  0.2163
20157W        W37005   2.107  15.304   3.849 -0.2001 -0.0273  0.0603
20158W        W37006  16.369  17.467   0.221  0.0086 -0.3656 -0.0668
20159W        W37007   8.901  17.171  13.304  0.0575 -0.3860  0.2044
20160W        W37008   5.456   9.423  14.394 -0.2594  0.0053  0.3917
20161W        W37009  10.853  12.701   1.915 -0.0308  0.1774  0.3470
20162W        W37010   1.568  12.346  12.182 -0.1948  0.0988 -0.1168
20163W        W37011  12.935   9.096   3.542  0.0378  0.1676  0.0117
20164W        W37012  10.363   0.044   0.881 -0.0466  0.2054 -0.1728
20165W        W37013   3.902   2.462  16.143 -0.3424 -0.2591  0.1370
20166W        W37014  17.050   6.250   2.037  0.3119 -0.0070  0.0325
20167W        W37015   6.253  10.685   3.057 -0.0678  0.0896 -0.0194
20168W        W37016  13.081   7.731   1.552 -0.4324 -0.0385 -0.0631
20169W        W37017   9.622  16.401  13.059 -0.0370 -0.2726 -0.0001
20170W        W37018   7.602  10.417   1.822 -0.1889  0.1008  0.2840
20171W        W37019   2.018   8.398   1.287  0.1876  0.0186 -0.0020
20172W        W37020   2.174  13.320   3.884  0.0799 -0.0407  0.2463
20173W        W37021  17.655   4.135  13.496 -0.0941 -0.1163  0.2344
20174W        W37022   0.422   7.380   4.094  0.1181 -0.1044  0.0742
20175W        W37023  16.868  12.608   0.355  0.1377 -0.0517  0.4004
20176W        W37024  10.292  16.519  15.704  0.2376 -0.2898  0.2804
20177W        W37025  10.241  14.713   3.738  0.0490  0.1851  0.0338
20178W        W37026   2.629   3.071  10.349  0.1114  0.1486  0.1419
20179W        W37027   3.251  12.220  15.942 -0.1714  0.1429 -0.2228
20180W        W37028  11.604  11.607   2.366 -0.3908  0.0388 -0.2842
20181W        W37029  10.187  15.866  15.120 -0.0930  0.0855 -0.0163
20182W        W37030   7.712  12.213  15.870  0.0093 -0.3040  0.0904
20183W        W37031  11.373  13.678  14.097 -0.1902 -0.2058 -0.0466
20184W        W37032   4.929  14.240   3.570  0.1435  0.1511  0.4150
20185W        W37033  14.646  14.702   0.249  0.1720  0.0743  0.2458
20186W        W37034  14.783   2.444   0.920  0.1512 -0.4050 -0.0078
20187W        W37035   9.262   5.928   5.267  0.2489  0.3311 -0.0104
20188W        W37036   9.336   0.830  13.888 -0.1814 -0.0252 -0.3420
20189W        W37037  11.715   7.453   4.385  0.1940 -0.0110  0.0419
20190W        W37038   6.608   9.071   0.962  0.3178  0.0046 -0.2374
20191W        W37039  16.494   0.086   0.901 -0.2402 -0.2626  0.3471
20192W        W37040  11.713   5.848   1.450 -0.0563  0.1033  0.1429
20193W        W37041  17.619  14.299   1.297  0.1240 -0.1430  0.0274
20194W        W37042   5.482  17.752  10.965 -0.0927  0.1859  0.3690
20195W        W37043  10.071   4.371  15.988  0.0524 -0.0733 -0.0687
20196W        W37044   7.441  15.436  15.917 -0.0124  0.2636  0.0658
20197W        W37045  13.958   9.137  11.487  0.0398  0.0209  0.1718
20198W        W37046   2.476   9.366   2.140 -0.1067  0.1142  0.0509
20199W        W37047   3.121   4.650  13.184  0.0349 -0.0314 -0.1033
20200W        W37048  14.800  12.978   5.469  0.2230 -0.0262 -0.0790
20201W        W37049   6.310  11.782   2.421  0.3794 -0.1372 -0.0200
20202W        W37050   9.391   9.400   1.413 -0.3063 -0.3338  0.2459
20203W        W37051   2.287  16.065   5.635  0.0575 -0.1903  0.0442
20204W        W37052  12.824   7.961  11.782 -0.1210  0.0373 -0.1012
20205W        W37053  10.759   5.805   6.217  0.1367 -0.4830 -0.0212
20206W        W37054  11.307   4.002   2.653  0.1935 -0.3556 -0.2056
20207W        W37055   7.485  17.164  12.335 -0.1454 -0.1687  0.2757
20208W        W37056   7.051  10.271  15.065 -0.2596 -0.2816 -0.0179
20209W        W37057   1.703   8.368  15.674  0.4122  0.0079 -0.1649
20210W        W37058   9.507  15.573   3.015  0.2348 -0.1117 -0.0237
20211W        W37059   1.917   2.498  11.464  0.1681  0.0877  0.0955
20212W        W37060   1.175  11.572   5.991 -0.1841 -0.2422  0.1532
20213W        W37061   3.735  13.380  15.901 -0.0515  0.0241 -0.1120
20214W        W37062   2.214  17.762   4.266  0.0814 -0.1952 -0.0495
20215W        W37063   2.819   2.762  11.564 -0.1050  0.1243 -0.0736
20216W        W37064   4.094  10.399  14.493  0.1052  0.2197  0.1524
20217W        W37065   1.565  11.280  13.128 -0.3131 -0.0010 -0.0705
20218W        W37066  12.418   6.118   1.188  0.0828 -0.1144 -0.1687
20219W        W37067   8.541  11.481  11.293  0.4497  0.1751  0.0174
20220W        W37068   2.876  10.361   3.320  0.4163 -0.0298  0.1518
20221W        W37069  10.703  13.683  16.309  0.2631  0.4473  0.2693
20222W        W37070   5.330  15.284   6.318  0.1569 -0.0095  0.2482
20223W        W37071  15.366   2.530   2.720 -0.0013 -0.1694  0.3867
20224W        W37072  17.398   3.244  15.222  0.0006  0.0575  0.0746
20225W        W37073  16.436   0.958   4.683 -0.0173 -0.0592 -0.0398
20226W        W37074   1.523   1.965  12.712  0.4164 -0.0624  0.0539
20227W        W37075   5.262   6.790   2.920  0.2801 -0.3520 -0.0425
20228W        W37076  16.203  13.397  13.406  0.0165 -0.0274 -0.1253
20229W        W37077  16.300   4.716  13.222 -0.0667  0.1656 -0.1305
20230W        W37078   5.489   0.298   0.225 -0.2322  0.2247  0.1081
20231W        W37079  13.044   3.691  14.617  0.1467 -0.1566 -0.1291
20232W        W37080   1.750  12.344   3.790  0.1846 -0.0868  0.0226
20233W        W37081   0.639  15.495  13.869  0.0778  0.2908 -0.1731
20234W        W37082   5.746  15.186  14.120  0.3998  0.1792 -0.0143
20235W        W37083   8.327  13.834  15.717 -0.4948 -0.2327  0.2072
20236W        W37084  15.205   1.058  14.215  0.0564 -0.1753 -0.1649
20237W        W37085  14.213   9.231  12.722  0.0997  0.0528  0.0957
20238W        W37086  13.278   5.791   5.355 -0.2537  0.1839  0.3173
20239W        W37087   9.813  17.569   0.219  0.1635 -0.2996  0.1667
20240W        W37088   6.313   2.306   1.594  0.2920  0.0348 -0.0790
20241W        W37089  11.905  15.493   0.714  0.6319  0.1565  0.2358
20242W        W37090   4.461   7.545  13.635  0.1575  0.3032 -0.0339
20243W        W37091   2.112   9.104  15.903  0.0801  0.0306 -0.1259
20244W        W37092   1.099  14.995  10.562  0.0445  0.0629  0.0466
20245W        W37093   0.173   9.688   5.160 -0.1825 -0.2033  0.0795
20246W        W37094   9.105   5.469   0.436  0.2141 -0.0715 -0.0896
20247W        W37095   7.337   4.239   1.814  0.0204  0.0501  0.1712
20248W        W37096  13.027  13.644   1.996 -0.0832 -0.1283 -0.4483
20249W        W37097   3.411   7.709  16.031 -0.0618  0.2256  0.0388
20250W        W37098   1.240  14.117  14.319  0.1557 -0.3808 -0.3159
20251W        W37099  16.696   4.436   4.449  0.0218 -0.0737 -0.0400
20252W        W37100   0.322  13.034   2.892  0.0260  0.1303  0.1085
20253W        W37101  17.214  14.158   4.646  0.1185 -0.3430 -0.0366
20254W        W37102   8.637   3.544   2.526 -0.1260  0.1262 -0.1835
20255W        W37103   5.942   4.461  15.918  0.0136 -0.4379 -0.1835
20256W        W37104  15.585   5.413   3.972 -0.0395  0.1299 -0.2214
20257W        W37105   3.448  13.981   4.796 -0.1251  0.1293 -0.0713
20258W        W37106   0.132  12.928   0.483 -0.1984 -0.2387  0.3338
20259W        W37107   5.217  12.622   3.868  0.0262  0.2130  0.2055
20260W        W37108  13.543   6.338   2.751  0.3465 -0.1361  0.0957
20261W        W37109   3.842   9.641  11.494  0.1650 -0.1018 -0.2426
20262W        W37110  12.657   5.458   4.747 -0.0039 -0.1965  0.0946
20263W        W37111  14.089   7.644   0.923  0.1909  0.0966  0.1124
20264W        W37112  12.414  17.614  13.864 -0.2478  0.1810  0.4589
20265W        W37113   3.242   6.830  12.158  0.0322 -0.0026  0.1698
20266W        W37114   5.580   1.284   2.689  0.2969  0.0355  0.0111
20267W        W37115  10.219   7.499  12.910 -0.0694  0.1406 -0.0355
20268W        W37116  12.438  13.070   1.539  0.0893  0.2182 -0.2032
20269W        W37117   7.804  14.596  15.565  0.0293 -0.1139  0.4058
20270W        W37118  11.798  15.938  14.415 -0.0255 -0.3274 -0.0725
20271W        W37119   7.467  13.247  13.467  0.1818  0.0308  0.3006
20272W        W37120  13.480  13.059  12.007 -0.3224  0.2300  0.1472
20273W        W37121   0.694  16.805   3.359 -0.2022  0.3033 -0.1401
20274W        W37122   1.843   3.267  14.149 -0.1423  0.5635  0.0239
20275W        W37123  16.604   4.149  15.815  0.3216 -0.1684 -0.0637
20276W        W37124  12.337  12.270   2.682  0.1023 -0.0723 -0.0515
20277W        W37125   1.216   2.489   5.178  0.0951 -0.1488  0.1980
20278W        W37126   2.244   8.814   4.319  0.1712  0.1080 -0.1387
20279W        W37127   7.710   6.793   2.927  0.0342  0.0465  0.3213
20280W        W37128   7.451   8.380   4.530 -0.1379  0.1302  0.0344
20281W        W37129   9.711   6.582  16.542 -0.0374 -0.1839  0.0202
20282W        W37130  13.656   8.340   4.590  0.3301 -0.1003 -0.0009
20283W        W37131  12.572   5.729  16.385  0.1671 -0.4433 -0.1682
20284W        W37132   9.624   3.093  16.110  0.0284  0.5388 -0.3468
20285W        W37133   8.127   4.986   4.694 -0.0465  0.0003  0.2744
20286W        W37134  15.326   6.695   0.599  0.1442  0.1499  0.2869
20287W        W37135   6.472   3.254  13.176 -0.0603 -0.3679 -0.0796
20288W        W37136   7.908  14.448   1.793  0.1282 -0.2963  0.0498
20289W        W37137   5.440  14.197  12.080  0.2029 -0.3770  0.1266
20290W        W37138   8.656  17.308   0.970 -0.0184  0.0130 -0.0060
20291W        W37139  17.055   8.580   3.003 -0.0788 -0.1292  0.0234
20292W        W37140   0.584   2.641  10.405  0.2422 -0.2854 -0.0350
20293W        W37141  13.391   2.408   0.359  0.1644 -0.3588 -0.1054
20294W        W37142  17.607  14.361   2.011 -0.0590  0.3186 -0.0008
20295W        W37143  15.137   4.417   0.280  0.2404 -0.2218 -0.1009
20296W        W37144   5.485   9.983   1.034 -0.1786 -0.1481  0.2230
20297W        W37145  10.323   1.793   5.829  0.1045 -0.1443 -0.3574
20298W        W37146   5.976  15.681   4.162  0.1340 -0.2709 -0.0799
20299W        W37147   4.955   8.870  16.112 -0.2117  0.1642  0.1502
20300W        W37148   6.546   2.851   0.817  0.3538  0.0074  0.0265
20301W        W37149   9.948  13.789  12.448 -0.0404  0.1359 -0.3659
20302W        W37150  10.593  15.862  11.184  0.3418  0.1065 -0.1876
20303W        W37151  17.020   9.514   0.359 -0.2743 -0.1305 -0.2257
20304W        W37152  13.941  15.576   3.131  0.0063  0.1158  0.1787
20305W        W37153  13.680   5.966   3.815  0.0536  0.1191 -0.1967
20306W        W37154   7.990   9.383  13.169  0.0612 -0.1812 -0.0001
20307W        W37155  16.965   9.453   1.358 -0.3144  0.2257  0.1204
20308W        W37156   6.072   5.977   0.750 -0.0338 -0.1246  0.0861
20309W        W37157  15.811   1.175   3.994  0.0230  0.0615  0.1198
20310W        W37158  16.125   3.559  15.519  0.0904  0.1898 -0.0869
20311W        W37159   0.033  12.044  12.470 -0.1631  0.2501 -0.1240
20312W        W37160   5.729  17.320   0.824  0.0658  0.0559  0.0192
20313W        W37161   8.401   5.772  14.868 -0.2123  0.1400  0.2750
20314W        W37162   9.012  13.024  11.937  0.0804 -0.1316 -0.2272
20315W        W37163  13.565   2.610   0.874 -0.1228 -0.1740 -0.1440
20316W        W37164   6.169  13.225  10.414 -0.1273 -0.2138 -0.2819
20317W        W37165  11.832   0.677  14.024  0.0510 -0.1809  0.0850
20318W        W37166   6.417   4.078  11.392 -0.0591 -0.0694 -0.0165
20319W        W37167   2.884  16.852  13.028  0.0293 -0.0995 -0.0817
20320W        W37168  10.711  10.812  13.754  0.3122 -0.1600 -0.2606
20321W        W37169   0.225   8.528  12.282  0.2249  0.2883  0.0583
20322W        W37170  13.010  10.968   5.052  0.2830  0.0185  0.0986
20323W        W37171   6.081  17.351   3.089  0.1820 -0.2264 -0.0569
20324W        W37172  10.045  16.328  14.804 -0.2850 -0.2185 -0.2299
20325W        W37173  12.206   5.083   5.069  0.2130 -0.4214 -0.0550
20326W        W37174  15.802  11.960  13.302  0.0614  0.0590  0.2112
20327W        W37175  15.200   3.572  16.602 -0.0446  0.0082  0.2500
20328W        W37176  16.215  12.045   4.809  0.0648 -0.3400 -0.0698
20329W        W37177   0.308  11.572  15.034  0.3005  0.1383  0.3111
20330W        W37178  16.827   3.039   1.882  0.2473 -0.1164 -0.1140
20331W        W37179  12.054   2.851  14.979 -0.0971  0.2616  0.2083
20332W        W37180   6.393   1.460  13.315 -0.2449  0.1330  0.4355
20333W        W37181   5.840   3.251  13.968 -0.2518 -0.0018 -0.0506
20334W        W37182   6.078  13.558  12.001  0.1151  0.0101 -0.1617
20335W        W37183   0.670  10.473   0.412 -0.2409 -0.0575  0.2573
20336W        W37184  15.291  11.801   3.640 -0.0490  0.1664  0.1893
20337W        W37185   0.437   7.765   0.844  0.1254 -0.0789 -0.3223
20338W        W37186   0.268  17.347  11.880  0.2975  0.2616  0.0999
20339W        W37187  16.804   6.622  11.368 -0.3054 -0.3214 -0.1774
20340W        W37188  14.836  14.834  10.861  0.0655 -0.2237  0.1990
20341W        W37189   1.210  11.259  13.490 -0.0341 -0.0548  0.1488
20342W        W37190   6.568  17.649   2.351 -0.2954  0.0314  0.0388
20343W        W37191   8.639   3.430   4.042  0.0139  0.2382 -0.1418
20344W        W37192  10.941   4.188  13.953 -0.1577 -0.0804 -0.1655
20345W        W37193   5.635  10.034  13.161 -0.2279  0.0243 -0.1521
20346W        W37194  17.331   7.646   4.957  0.0663  0.0112 -0.1746
20347W        W37195   9.146   6.644  12.788  0.0053 -0.1470 -0.1681
20348W        W37196  14.099   0.953  16.543 -0.1707  0.1193 -0.3157
20349W        W37197   6.240   3.137  14.747 -0.0416 -0.0785 -0.1238
20350W        W37198   3.578   8.876  12.943 -0.1440  0.1470 -0.2489
20351W        W37199  15.202   0.940  11.964 -0.3485  0.2522 -0.0606
20352W        W37200   8.271   9.810  10.519 -0.2210 -0.1391  0.0516
20353W        W37201  14.411   9.119   1.805  0.0975 -0.2802 -0.2978
20354W        W37202   5.569  13.400  14.404 -0.1320 -0.0841  0.0801
20355W        W37203   6.961   4.322  12.114  0.1016  0.3170 -0.0439
20356W        W37204  10.049   5.028   1.107  0.0854 -0.0188 -0.1496
20357W        W37205   7.347  12.548  14.043  0.1629 -0.1675  0.3209
20358W        W37206   5.924  12.526  15.053  0.1288  0.1201 -0.0485
20359W        W37207  16.485  14.999  15.885  0.1888 -0.0662  0.0064
20360W        W37208  16.240   2.239  15.119  0.0935  0.1209  0.1689
20361W        W37209  13.909  12.637   1.647  0.0349  0.0019 -0.1305
20362W        W37210   9.901   9.910  12.676 -0.2882 -0.0060  0.0201
20363W        W37211  13.297  17.399  13.377  0.0857  0.5639 -0.0976
20364W        W37212  10.397   5.116  16.594  0.0345 -0.4078  0.4940
20365W        W37213   9.510   4.691  12.000 -0.0177 -0.0231 -0.1701
20366W        W37214   5.596   2.851   0.130  0.1620 -0.2847  0.4045
20367W        W37215  13.003  14.493   0.235 -0.0635 -0.1764 -0.0060
20368W        W37216  15.453   1.485  16.241 -0.2576 -0.1070  0.2405
20369W        W37217  15.460  12.936   4.299 -0.1590 -0.1161  0.1783
20370W        W37218   3.921   0.321  12.726  0.0620 -0.2867  0.0640
20371W        W37219   4.560  10.751   0.087 -0.1185  0.0662  0.4001
20372W        W37220   3.353   1.884  15.857 -0.2860  0.0886 -0.2246
20373W        W37221   5.047  14.908   1.779  0.0091 -0.1152 -0.0064
20374W        W37222   7.171   9.969  12.363  0.0539 -0.4514 -0.1772
20375W        W37223   7.951   5.187  15.552 -0.2189  0.2322  0.1540
20376W        W37224   5.788  12.881  14.712  0.0104  0.2550  0.1224
20377W        W37225   2.627  16.462  15.065  0.2539  0.3543 -0.0007
20378W        W37226  13.214   6.689   1.345  0.2626 -0.1379 -0.0568
20379W        W37227   0.821   9.710   1.679 -0.0630 -0.0160 -0.1573
20380W        W37228   6.273  15.327   2.209  0.0860 -0.0191 -0.2692
20381W        W37229  17.126   5.228  16.033  0.1936  0.3343 -0.1300
20382W        W37230   3.769   2.277  15.633 -0.1827  0.1663 -0.4147
20383W        W37231  10.222  17.838   5.361  0.3665  0.3035 -0.1752
20384W        W37232  12.862  10.080  14.455 -0.0489 -0.0856  0.0707
20385W        W37233   7.044  14.488  12.534 -0.3216 -0.1940  0.0891
20386W        W37234  11.578  11.764  13.200 -0.0071 -0.1430 -0.0622
20387W        W37235  11.699   4.109  12.440  0.0662  0.1348  0.0655
20388W        W37236  15.997   2.678  15.208  0.0972  0.1299 -0.0641
20389W        W37237   7.165  11.016   4.023  0.1777 -0.0414 -0.1535
20390W        W37238  10.142   2.721   3.268 -0.0120  0.2418  0.1484
20391W        W37239  11.510   8.952   3.817  0.0313 -0.1244  0.2319
20392W        W37240   4.197   5.023  11.499 -0.1527  0.7305  0.1828
20393W        W37241  10.969   9.614  14.184  0.1056 -0.0551 -0.0265
20394W        W37242   4.409  12.485   0.128 -0.2250 -0.1341 -0.4415
20395W        W37243   1.745  12.898  14.371  0.1432  0.0022 -0.1341
20396W        W37244   4.471  16.865  16.233  0.0331 -0.0806 -0.1513
20397W        W37245   8.468  12.814  14.274  0.1303  0.1184  0.1078
20398W        W37246  14.183   3.359  16.547  0.2008  0.0280  0.0584
20399W        W37247  14.389   1.807  16.500  0.1059  0.0222  0.1808
20400W        W37248   5.938  13.580   2.172 -0.2121  0.0422  0.1244
20401W        W37249   7.849   5.278   4.325 -0.0933 -0.1776 -0.4077
20402W        W37250  11.569   5.342   6.476  0.0511 -0.3686  0.1340
20403W        W37251   5.155  15.430   5.841  0.1090  0.1317  0.2841
20404W        W37252  16.137   1.612   0.614  0.1348  0.2502 -0.0254
20405W        W37253   2.379   3.610   0.949 -0.0171  0.0815 -0.0214
20406W        W37254   1.204  11.043   0.076 -0.1871 -0.1606  0.5829
20407W        W37255  15.023  11.774   6.069  0.0653  0.0886 -0.1474
20408W        W37256   2.347   1.966  12.784 -0.3263  0.2419  0.0318
20409W        W37257   5.927   0.863   2.517 -0.0578 -0.1132 -0.0133
20410W        W37258   4.966  13.260   0.992 -0.0185  0.1486 -0.1470
20411W        W37259  12.508  17.579  12.278 -0.1606 -0.0029  0.0534
20412W        W37260   8.126   4.531  11.651  0.1337  0.1250  0.1528
20413W        W37261  11.470  17.208   1.480  0.2178  0.0107  0.3358
20414W        W37262  13.671   6.325  13.459  0.3193  0.3177  0.0448
20415W        W37263  17.183  10.269   4.974 -0.2188  0.0309  0.1370
20416W        W37264  10.476  13.839   2.899 -0.0396  0.3754 -0.0169
20417W        W37265   6.651   4.977   0.016  0.0191  0.2452 -0.0355
20418W        W37266   7.516   6.022   2.305  0.0258 -0.0441  0.2108
20419W        W37267  12.833  10.471   0.121  0.0234 -0.3348  0.1641
20420W        W37268   5.789  10.989   1.595 -0.0460 -0.2436 -0.1275
20421W        W37269   9.638  15.960   6.192  0.0627 -0.0175  0.1171
20422W        W37270   7.234   0.126  13.064 -0.5239  0.1158  0.1304
20423W        W37271   0.477   4.048  12.159 -0.2272  0.1270  0.1118
20424W        W37272   4.130   0.041  15.652 -0.0516  0.2569 -0.0445
20425W        W37273  10.981   1.659  13.412 -0.1002  0.0897  0.1876
20426W        W37274   8.712   7.987  16.424  0.0132  0.3862  0.1323
20427W        W37275   1.402  10.990  15.753 -0.1384  0.2055 -0.2014
20428W        W37276   1.563  12.031   1.649 -0.0559 -0.3300  0.1046
20429W        W37277   2.513   6.312   6.013  0.1417  0.3464 -0.0428
20430W        W37278   8.548  11.006   3.121 -0.2723 -0.1205  0.2172
20431W        W37279   8.544  12.431  13.288  0.2670 -0.1617  0.4099
20432W        W37280   7.757  11.414   4.696 -0.0730 -0.1014  0.0166
20433W        W37281  13.256   2.092  13.379 -0.0189 -0.3526 -0.2971
20434W        W37282   4.462   9.188   2.746 -0.1397  0.2712 -0.1616
20435W        W37283   8.526   9.245  13.333  0.1413  0.1620 -0.1276
20436W        W37284  13.731   2.633  11.743 -0.3305 -0.0628  0.1410
20437W        W37285   3.490  15.818   2.514  0.0025  0.0184  0.2500
20438W        W37286   3.027  13.115  11.965 -0.2010 -0.3576 -0.1630
20439W        W37287  15.989   0.321  13.283 -0.1351 -0.1489 -0.1589
20440W        W37288   5.474   5.414  13.974  0.0818  0.1666 -0.1027
20441W        W37289   0.180  15.392   2.076  0.1738  0.0404  0.0346
20442W        W37290  12.735  17.042   0.630 -0.0337 -0.1369  0.2701
20443W        W37291   2.945  10.163   4.646  0.0960 -0.0424  0.1567
20444W        W37292  10.090  12.789   1.803  0.0775  0.0694 -0.1020
20445W        W37293  12.145  10.068   3.029  0.1238 -0.2683 -0.0343
20446W        W37294   4.032   5.393   3.185  0.1550 -0.2395 -0.2704
20447W        W37295  16.080  13.666   2.404 -0.1005  0.0337  0.0048
20448W        W37296   2.284   9.075  14.776  0.0834 -0.1795  0.2401
20449W        W37297   0.581   3.129   1.159  0.2226  0.2397  0.1062
20450W        W37298   5.675   4.021  12.859  0.1516 -0.2577  0.3339
20451W        W37299   4.884   4.774   3.451 -0.3277  0.1057 -0.2798
20452W        W37300  14.423   4.411  10.931 -0.1273  0.3186  0.1578
20453W        W37301   2.675  15.892   3.952 -0.4142 -0.0561 -0.1072
20454W        W37302   8.424   6.175   1.506 -0.0368 -0.0244 -0.1278
20455W        W37303  11.020   4.379   2.957  0.0748 -0.1076 -0.1904
20456W        W37304  12.032   2.318   0.819 -0.0162  0.2510  0.1494
20457W        W37305  12.479   1.235  15.940  0.1856 -0.0742  0.0476
20458W        W37306   6.514   5.615  11.239  0.0180  0.2014  0.1319
20459W        W37307  15.351   6.970  15.900 -0.0169 -0.1281  0.2747
20460W        W37308  14.765  16.478  16.198 -0.0979 -0.2769  0.0304
20461W        W37309  15.901  17.220   0.116 -0.0125  0.0791 -0.0877
20462W        W37310   6.053  11.283  13.884 -0.0467  0.0746  0.0916
20463W        W37311   7.644  15.168   3.259  0.0846  0.0334  0.0054
20464W        W37312   4.097  11.233  15.504 -0.0665 -0.2018  0.0328
20465W        W37313  13.550  10.561   2.072  0.1268  0.1550 -0.0956
20466W        W37314   0.045   9.843  13.749  0.2643 -0.0984 -0.0401
20467W        W37315  12.690  13.898  12.665 -0.0262  0.0026 -0.1498
20468W        W37316   5.713  16.775   0.753  0.0245  0.0196  0.2057
20469W        W37317  15.912   0.635  11.668 -0.1230 -0.1766  0.2954
20470W        W37318   6.072   8.432  13.396 -0.0230 -0.0263 -0.0476
20471W        W37319  16.766   1.752   3.374 -0.1710  0.1742 -0.0929
20472W        W37320   7.121   8.444   4.890  0.0122  0.0627  0.1142
20473W        W37321   2.062   2.856   3.232  0.0691  0.0065  0.2949
20474W        W37322  16.101  16.451   4.144  0.3806 -0.0181 -0.0600
20475W        W37323  15.265   1.345  11.485 -0.4610 -0.0536  0.4244
20476W        W37324  16.354   6.410   0.697  0.2542 -0.0421  0.1618
20477W        W37325   2.313  13.646  12.131 -0.1129 -0.0664 -0.0704
20478W        W37326   1.411  12.344  14.216  0.2519  0.1410 -0.1078
20479W        W37327   5.893   3.420   2.028 -0.2159  0.0653 -0.2024
20480W        W37328   3.292  11.001   2.552  0.0352  0.0018 -0.0856
20481W        W37329   2.142  12.568   2.042  0.0277 -0.3081 -0.0399
20482W        W37330   4.112  11.349   0.568  0.2891  0.1368  0.0642
20483W        W37331  17.451   9.257   1.090 -0.1205  0.2287  0.2913
20484W        W37332   4.639   1.029   3.010  0.2858  0.0364  0.3339
20485W        W37333  13.851   3.034   5.609  0.3572 -0.2585 -0.0093
20486W        W37334  10.413  11.514  12.031  0.0380 -0.2631  0.1133
20487W        W37335   0.990   0.430  13.639  0.1273 -0.0647  0.2473
20488W        W37336  17.757  13.243   4.859 -0.0412  0.1117  0.1351
20489W        W37337   0.254   8.008  16.356 -0.3115 -0.0350 -0.3059
20490W        W37338  10.997   1.731   0.330  0.1659 -0.1179  0.1695
20491W        W37339  14.402  11.361   2.894  0.1385  0.1558 -0.1563
20492W        W37340  13.593  13.749  16.192  0.2540  0.3098 -0.2224
20493W        W37341   1.133  13.678  12.389  0.0406 -0.0215 -0.0563
20494W        W37342   9.675   3.525  15.834 -0.0845  0.3020  0.0037
20495W        W37343  17.484   9.139   0.609 -0.0035  0.1702  0.1697
20496W        W37344  12.959  12.086   6.031 -0.2587  0.0522  0.2718
20497W        W37345  16.313   7.765  13.162  0.0278  0.0346  0.3412
20498W        W37346  17.547  13.310  16.002 -0.1869 -0.0943 -0.1364
20499W        W37347  10.945   2.590  13.304 -0.0255  0.0044  0.0055
20500W        W37348  17.541   8.982  14.798  0.0885  0.0667 -0.1840
20501W        W37349   7.259  17.447  13.123 -0.1895  0.2096  0.1415
20502W        W37350   2.271   7.464  14.684  0.0983 -0.1292  0.0695
20503W        W37351   4.034   1.796  10.878 -0.1359  0.0775  0.1247
20504W        W37352   0.931   6.781   2.059 -0.1196  0.2657  0.2371
20505W        W37353   1.149   9.839  16.521  0.3875 -0.0880 -0.0181
20506W        W37354   7.148   8.077   3.372 -0.1239 -0.0571 -0.1124
20507W        W37355  15.861  10.358   2.002  0.1414  0.2506  0.1059
20508W        W37356   9.194   4.065  14.470  0.2746 -0.3153 -0.3352
20509W        W37357   9.018   7.858   4.819 -0.0076 -0.1228 -0.2573
20510W        W37358   8.215   9.179  12.335 -0.0149 -0.1083 -0.1123
20511W        W37359   0.045  15.722   2.901  0.4644  0.0915  0.1070
20512W        W37360   5.011  15.203   3.435  0.2488  0.2415  0.0242
20513W        W37361   3.507  10.264  15.144 -0.2705 -0.3491 -0.1572
20514W        W37362   0.950   6.853  16.007  0.0925  0.0637  0.0033
20515W        W37363   4.968   9.397  12.732  0.1009  0.2245 -0.1160
20516W        W37364  16.590  17.213  13.786  0.2223 -0.1181  0.1023
20517W        W37365  15.998   4.162   5.016 -0.0440 -0.1654 -0.0824
20518W        W37366   4.526  17.385   1.985 -0.3943 -0.0891  0.1652
20519W        W37367   8.575  10.891   4.485  0.0692  0.0493  0.1896
20520W        W37368  10.547   0.274  16.478  0.0021  0.0750  0.4330
20521W        W37369  16.625  16.555   1.072 -0.0341  0.1562 -0.2412
20522W        W37370  13.619   6.815   2.707 -0.0490  0.1461  0.1061
20523W        W37371   9.115   4.163   0.467  0.0431 -0.0548  0.0840
20524W        W37372  15.441   7.621   0.340  0.1021  0.0916  0.2024
20525W        W37373   4.771  11.754  16.605  0.0218 -0.0202  0.0779
20526W        W37374   6.439   6.500  11.599 -0.0271 -0.2948 -0.2853
20527W        W37375   6.813  13.868   2.638 -0.2503 -0.0144 -0.0310
20528W        W37376   7.559  17.642   0.280  0.2439  0.1133  0.1633
20529W        W37377   8.781  11.183  15.319 -0.3382 -0.2418  0.2209
20530W        W37378   0.460  13.714   1.639 -0.0065 -0.0351 -0.1098
20531W        W37379  11.070  13.680  11.495  0.2701  0.2229  0.1031
20532W        W37380  11.562   6.377   0.623 -0.2423 -0.1622  0.2501
20533W        W37381   9.118   4.419   1.766  0.0825  0.1621 -0.1656
20534W        W37382   5.958   4.428  13.072 -0.0666 -0.2895  0.3232
20535W        W37383   0.902   2.661  14.957  0.0687 -0.1788  0.3061
20536W        W37384   6.818  17.033   2.197 -0.2384  0.3436 -0.2525
20537W        W37385   6.033   3.135   2.764  0.5645  0.0868 -0.1175
20538W        W37386   6.756   2.197   2.703 -0.0770  0.3531  0.1878
20539W        W37387  15.968   3.295  13.916  0.0870  0.4394 -0.2236
20540W        W37388   3.998   4.520   2.863  0.2077 -0.0620 -0.3496
20541W        W37389  14.331   1.143  13.016  0.0359  0.0947 -0.2151
20542W        W37390   2.272   0.333  12.046  0.0097  0.1120 -0.0622
20543W        W37391  17.778  12.503  16.422  0.0110  0.0571 -0.1116
20544W        W37392  10.934   2.203   5.435  0.3374 -0.0400 -0.0909
20545W        W37393  13.607  11.898  13.092  0.1351  0.4577  0.0590
20546W        W37394  10.223  12.303  15.312  0.0467  0.1449  0.2744
20547W        W37395  13.756  14.232   4.786  0.3248  0.0768  0.1220
20548W        W37396  14.390  11.572   1.243  0.0175  0.0890  0.2156
20549W        W37397  15.085  14.658  14.042  0.1386 -0.2610 -0.0412
20550W        W37398   0.026   9.181  15.546  0.1725  0.0980  0.1249
20551W        W37399   7.703  13.465  10.567  0.2545  0.2502 -0.2864
20552W        W37400   1.665   0.012  14.086 -0.1505  0.0328 -0.0331
20553W        W37401   5.734   0.868   2.022  0.0766 -0.2262  0.2939
20554W        W37402   1.015   4.922  13.687 -0.0893  0.1465  0.1727
20555W        W37403  12.680   6.800   0.667  0.3613 -0.3405 -0.0403
20556W        W37404   1.148   5.888  13.626 -0.3290 -0.0037 -0.2700
20557W        W37405  12.794  13.867  16.331 -0.0802 -0.0616  0.2086
20558W        W37406   1.016   8.883   1.350 -0.2157  0.1963 -0.0722
20559W        W37407   0.454   8.542   0.233 -0.0368 -0.1728 -0.1142
20560W        W37408   0.630  14.268   4.299  0.0270  0.1980 -0.1142
20561W        W37409   6.440   1.801   3.354 -0.3471  0.0159  0.0122
20562W        W37410   4.370  11.089  16.397 -0.1888 -0.0105  0.0683
20563W        W37411   5.155   1.834   0.339 -0.1913 -0.2359  0.0379
20564W        W37412   5.213  12.127   1.135 -0.1853  0.0930 -0.0845
20565W        W37413  12.329  11.362   0.135 -0.2399 -0.1990  0.1177
20566W        W37414  14.740  12.906   4.453  0.0722 -0.3919 -0.0617
20567W        W37415  10.712  13.873   4.631  0.2653  0.2642  0.0179
20568W        W37416   0.543  14.622   5.311  0.0868  0.0840  0.2802
20569W        W37417   1.098  12.024  11.523  0.0882  0.1252 -0.0989
20570W        W37418  11.564  16.324  14.217 -0.3531  0.1812  0.1439
20571W        W37419   7.747   8.891  12.946 -0.0047  0.0089 -0.1418
20572W        W37420   6.205   5.986   2.433  0.0475  0.3191 -0.1622
20573W        W37421   0.506   6.147  10.735 -0.1766 -0.2657 -0.0410
20574W        W37422  16.284  10.541   2.131  0.2224 -0.0551  0.1042
20575W        W37423   4.433   1.079  12.269  0.2704 -0.2423  0.0529
20576W        W37424  14.821   7.736  11.441 -0.0686 -0.1006 -0.3849
20577W        W37425  13.387  16.502   4.200 -0.2588 -0.0314 -0.1550
20578W        W37426   7.662  10.173   1.312 -0.2592  0.0841  0.1740
20579W        W37427   3.857  10.203  15.525 -0.0794  0.0821 -0.2299
20580W        W37428  12.114  16.782   4.948  0.1090  0.2725  0.0989
20581W        W37429   8.047  15.580  11.386 -0.1981  0.1395 -0.1104
20582W        W37430   6.952   5.151   5.801 -0.1539 -0.2713  0.1586
20583W        W37431  10.736   9.290  15.081 -0.0174 -0.1596  0.1773
20584W        W37432  13.951  11.744   4.009  0.2316  0.1240  0.3671
20585W        W37433   6.042   0.231  15.138  0.1896 -0.0264  0.0970
20586W        W37434  17.167   8.637   3.915 -0.0959  0.1094 -0.1926
20587W        W37435   8.848  10.198  15.353  0.2423 -0.0324  0.3640
20588W        W37436   9.602  16.280  12.550  0.0487 -0.1234  0.1772
20589W        W37437   1.952  13.510  11.829 -0.0909  0.1143 -0.0351
20590W        W37438   4.650   0.494  13.606 -0.2546  0.1027 -0.1206
20591W        W37439   3.025  10.587   2.474  0.0897 -0.3896  0.1257
20592W        W37440  11.350   5.127  14.747  0.1818 -0.1661 -0.0346
20593W        W37441  13.298   1.329   5.173 -0.0025 -0.2429 -0.1363
20594W        W37442   6.089  16.412  13.450  0.0075  0.0415 -0.1279
20595W        W37443   1.324   0.325  15.892 -0.1384  0.0344  0.0451
20596W        W37444   0.535  15.720   2.085  0.3716 -0.2626 -0.0285
20597W        W37445  17.265   8.173  16.542  0.2470 -0.0369  0.0677
20598W        W37446  10.718  15.825   0.100  0.1906  0.0589  0.1978
20599W        W37447   8.031  15.740   2.046  0.0808 -0.1473 -0.2016
20600W        W37448   2.710   0.460   0.241 -0.1301 -0.1586  0.1125
20601W        W37449   8.014   4.916   0.900  0.2033  0.0306 -0.2187
20602W        W37450   0.249   4.900   1.259 -0.0723  0.1206  0.0269
20603W        W37451  12.749   7.967   1.160  0.1289 -0.0234  0.2516
20604W        W37452   9.266   6.919   4.373  0.2859 -0.0806  0.1627
20605W        W37453   5.767  11.447   1.343  0.0125  0.2007  0.1712
20606W        W37454   0.919   3.445   1.314 -0.0182  0.0941  0.2609
20607W        W37455   9.416   6.071  11.601 -0.2335 -0.1891  0.3558
20608W        W37456  14.897   9.599   3.068 -0.1695  0.1485  0.2482
20609W        W37457   6.873   0.739  12.775  0.1368  0.1169  0.2314
20610W        W37458   4.192  13.726  12.534 -0.1102 -0.3095 -0.0730
20611W        W37459   1.679   0.079   3.580  0.5262 -0.2688  0.0843
20612W        W37460   1.784   7.096   1.859  0.0482  0.0829  0.1888
20613W        W37461   0.450  15.828  13.508 -0.0532 -0.1379  0.1049
20614W        W37462  11.554   0.484  15.383 -0.0119 -0.0489  0.1679
20615W        W37463   3.110  15.960  16.456  0.0887 -0.4015 -0.0996
20616W        W37464  16.718   3.743  11.742 -0.0459  0.1496  0.3519
20617W        W37465   0.940   9.026   2.589 -0.1143  0.0472 -0.3082
20618W        W37466  14.093   4.667   5.167  0.0942  0.0050  0.0346
20619W        W37467   0.019   6.051  11.696  0.0438  0.1780 -0.1290
20620W        W37468  16.807  10.405   1.766  0.1864 -0.0005  0.0929
20621W        W37469  12.299  14.629  11.504  0.1452  0.2525 -0.0216
20622W        W37470   2.750   8.915   4.395  0.1488  0.3400 -0.1669
20623W        W37471  14.526  10.303  14.585 -0.3239  0.0719  0.1671
20624W        W37472   8.544  12.871  12.611 -0.0311  0.0685 -0.1123
20625W        W37473  17.115   8.283  12.115  0.0506  0.2843  0.0309
20626W        W37474   2.580  13.460  11.102  0.0978  0.0497  0.1307
20627W        W37475  11.616   1.367  12.373  0.1506 -0.3270  0.5116
20628W        W37476  12.978   5.980   0.490 -0.0196 -0.0276  0.2422
20629W        W37477  15.935  15.557  16.293  0.0635  0.0138  0.1074
20630W        W37478  13.092   0.888  12.209 -0.2729 -0.0214 -0.1419
20631W        W37479  15.720   0.094   5.394  0.0647 -0.0142 -0.2360
20632W        W37480   4.665   4.443  13.703 -0.1534 -0.2558 -0.0724
20633W        W37481   6.965  11.711   3.723  0.1985 -0.2570 -0.2124
20634W        W37482  14.062   1.937   0.669  0.1160  0.1570 -0.2322
20635W        W37483   3.352  14.035  12.611  0.2378  0.3211  0.1380
20636W        W37484   5.774  12.214  11.503  0.1550 -0.0926 -0.1812
20637W        W37485   1.268   8.079   0.798 -0.1120 -0.3490  0.1822
20638W        W37486  13.829   6.247   2.005  0.1850 -0.1387 -0.0998
20639W        W37487   7.387   1.160  14.846 -0.2531  0.0416 -0.1369
20640W        W37488   2.056  13.030   0.798 -0.1237  0.0108  0.1737
20641W        W37489  12.048   8.625  14.626 -0.1437  0.4530 -0.4385
20642W        W37490   9.047   3.478   4.743  0.0437 -0.0266 -0.2657
20643W        W37491   1.216  11.189  16.214  0.1565 -0.2527 -0.0185
20644W        W37492   7.635  14.806   2.113 -0.0746 -0.1354  0.1539
20645W        W37493   7.653   9.052  13.432  0.3914  0.2237  0.1661
20646W        W37494  13.469  10.877   4.931 -0.0521 -0.0356  0.0613
20647W        W37495  11.660   8.337   0.433  0.0298 -0.0487  0.0874
20648W        W37496   6.174   2.760  11.404  0.0210 -0.2422  0.0591
20649W        W37497   0.132   4.897   0.381  0.0974  0.1958 -0.0019
20650W        W37498  17.009  15.794   1.572  0.1829 -0.0429  0.0043
20651W        W37499   5.999   6.847  15.496 -0.1597 -0.0803  0.2377
20652W        W37500   3.187   6.778   4.741 -0.1457  0.2533 -0.0038
20653W        W37501  13.060   9.608  15.568 -0.1397  0.5960  0.0236
20654W        W37502  17.823  15.526   4.010 -0.1422  0.0400  0.1199
20655W        W37503  10.544   0.050   2.347 -0.0898 -0.0094 -0.1889
20656W        W37504  14.111   3.540   4.260 -0.0699 -0.2260  0.2827
20657W        W37505  14.306  11.669   1.771  0.0213 -0.3355  0.0322
20658W        W37506   5.350  10.203   3.177 -0.0665 -0.1440 -0.0580
20659W        W37507   8.487   2.419   5.188  0.1814  0.2704  0.2272
20660W        W37508  12.339   6.260  13.427 -0.0476 -0.0341 -0.3820
20661W        W37509  16.831  11.844   1.235 -0.4497  0.1188 -0.0411
20662W        W37510  12.966   2.677  14.471  0.0245  0.0756 -0.0785
20663W        W37511  11.461   6.390  12.262  0.0728 -0.0915  0.1982
20664W        W37512  10.398   0.208   2.939  0.0092  0.2800  0.0599
20665W        W37513  16.167   3.703   2.509  0.0714 -0.0185 -0.0669
20666W        W37514   0.998  11.175   0.500  0.2406  0.0264  0.0728
20667W        W37515  11.663  13.455   2.873  0.0692 -0.0507  0.2494
20668W        W37516  10.959  16.022   2.208  0.1444  0.0044 -0.1197
20669W        W37517  17.298  12.969  12.166 -0.0451  0.1364 -0.0800
20670W        W37518   6.842  10.843  11.818  0.0477  0.2070 -0.0193
20671W        W37519   1.491  13.430   0.231  0.0418 -0.0754 -0.1410
20672W        W37520   8.729   1.728   2.493 -0.1782  0.3557 -0.0652
20673W        W37521  10.491   7.215   4.906  0.2414 -0.0601  0.0613
20674W        W37522  14.380  14.466  12.329 -0.1810 -0.1537  0.1767
20675W        W37523   1.087   1.505  11.851 -0.1078  0.0135  0.0138
20676W        W37524   3.334  10.148   3.366 -0.2038 -0.4187  0.1551
20677W        W37525  10.416   0.475   0.665  0.0741  0.0555  0.0293
20678W        W37526   9.031   3.977  15.946 -0.3650  0.4467 -0.0563
20679W        W37527  14.692   6.858   1.932 -0.0447 -0.1994  0.0509
20680W        W37528  10.049  16.593  11.796 -0.0436  0.1891  0.2674
20681W        W37529   3.714   8.104   4.632  0.0913  0.3563 -0.1594
20682W        W37530  15.697   2.083  13.431 -0.0813 -0.0593  0.1257
20683W        W37531  10.147  14.122   3.760  0.3654 -0.0854  0.2309
20684W        W37532   4.790  14.575   4.234 -0.2119 -0.2782  0.1626
20685W        W37533   3.003   2.946  12.004  0.3214 -0.1449  0.1029
20686W        W37534  13.432  14.505  10.925  0.0685 -0.2330  0.2207
20687W        W37535  11.398   1.254  14.197  0.0805  0.1321 -0.1336
20688W        W37536  13.076   5.254  14.869  0.0353 -0.1001 -0.0810
20689W        W37537  12.076   0.181   4.707  0.0223  0.1899 -0.1038
20690W        W37538   8.795   0.921   0.053  0.2331  0.0815 -0.1025
20691W        W37539  14.695   5.973   4.948 -0.2843 -0.1533  0.0926
20692W        W37540   9.711   6.808  13.450  0.0811 -0.0229 -0.0281
20693W        W37541   3.426   6.322  11.361 -0.0923  0.0100  0.0312
20694W        W37542   8.164  15.130  16.433 -0.3611  0.1653  0.0813
20695W        W37543   9.506   0.558   0.540  0.0484  0.1441 -0.1181
20696W        W37544  10.201  14.172  12.537 -0.0820 -0.0771 -0.3133
20697W        W37545   8.652  11.271   5.115 -0.3839  0.0269 -0.1057
20698W        W37546   2.376   7.398   0.622  0.0208 -0.0166 -0.4245
20699W        W37547   6.175   5.606  14.855  0.0580 -0.0898  0.2158
20700W        W37548   7.506   9.841  14.320 -0.2746 -0.1599 -0.0229
20701W        W37549   9.571   7.656   0.707 -0.1890 -0.1113 -0.1402
20702W        W37550   8.450   9.298  14.276  0.3155 -0.0883 -0.5384
20703W        W37551   9.803   0.790   2.400 -0.0724  0.0751  0.1115
20704W        W37552  15.134   3.298  12.308  0.2745  0.2070 -0.1731
20705W        W37553   9.216   2.703   3.972 -0.1876 -0.0666 -0.1085
20706W        W37554   6.418  17.485   1.526  0.0474 -0.0350  0.0582
20707W        W37555   7.251  16.936  13.387 -0.0825  0.0986 -0.0812
20708W        W37556   8.144  17.484   2.431 -0.1936 -0.0239  0.2322
20709W        W37557  11.066  10.326  11.782  0.2911 -0.4775 -0.1296
20710W        W37558  10.277  13.479  15.405 -0.2005  0.1133 -0.2109
20711W        W37559  12.114  13.872   0.980  0.5135 -0.0654 -0.0863
20712W        W37560  15.135   5.350   4.991  0.2949 -0.2301  0.2406
20713W        W37561   2.634   2.366  15.042  0.0464  0.0630 -0.0390
20714W        W37562  13.307   0.507  12.464 -0.1292 -0.0244  0.0282
20715W        W37563  17.312  15.124   0.802  0.2054  0.0911 -0.0197
20716W        W37564   9.793  12.686   3.383 -0.0591 -0.2631  0.0106
20717W        W37565   9.724   9.748   1.966 -0.2227 -0.2020  0.1423
20718W        W37566   0.893   5.710  14.050  0.0942  0.0353 -0.0394
20719W        W37567  17.675  10.155  13.098 -0.1382  0.2614  0.1763
20720W        W37568   0.896   5.905   4.650  0.3007 -0.2125  0.0738
20721W        W37569   4.177  16.985  14.905 -0.0017 -0.1415  0.1131
20722W        W37570   1.042   7.084  14.404 -0.0209 -0.1228  0.1776
20723W        W37571  14.852   6.620  11.327  0.1188  0.0490  0.0246
20724W        W37572   3.200   5.681   2.607 -0.0738  0.0390  0.0040
20725W        W37573   5.929   8.049   4.764 -0.0325  0.1508 -0.2274
20726W        W37574   1.790   2.168   3.910  0.2086  0.0934  0.0437
20727W        W37575   9.601   4.357   0.631  0.1479  0.1907  0.0735
20728W        W37576   2.908  13.730   1.605 -0.1830  0.0821 -0.2467
20729W        W37577  13.291  15.946   0.181 -0.0087  0.0203  0.0843
20730W        W37578  14.950  12.106  13.617  0.1209  0.1901  0.1610
20731W        W37579  14.138   4.336   3.172  0.0028 -0.3033  0.2717
20732W        W37580  14.454   6.064   3.345 -0.3230 -0.1330  0.1729
20733W        W37581  13.424  10.559  16.146 -0.1478  0.1224  0.1264
20734W        W37582  14.579   4.073   2.428  0.0560  0.4636  0.1666
20735W        W37583   5.129   3.587  11.537  0.2430 -0.1650  0.0704
20736W        W37584   0.501   3.942  16.132  0.0979  0.0106 -0.0497
20737W        W37585  15.628  16.142   4.768 -0.0017  0.1490  0.2395
20738W        W37586   4.214   6.324   1.846 -0.2027  0.0394  0.1432
20739W        W37587   7.880  15.771  15.963 -0.1030  0.1860  0.4033
20740W        W37588   4.936   6.115   1.636 -0.1436 -0.3070 -0.1117
20741W        W37589   6.916  11.784  14.211  0.1336 -0.2113 -0.2867
20742W        W37590  10.838   1.334   0.592  0.1016 -0.0069  0.0402
20743W        W37591  15.654   3.440  15.178 -0.1027 -0.3907  0.0313
20744W        W37592   7.858   4.671  15.490 -0.1295  0.1613  0.2296
20745W        W37593   4.427  16.039   1.208 -0.0757 -0.0367 -0.1551
20746W        W37594  13.989  15.144  12.241  0.1431  0.3042  0.1744
20747W        W37595   4.833   0.212   3.188 -0.2392 -0.0475  0.1061
20748W        W37596  15.310  11.794  13.448 -0.4472  0.1915  0.3126
20749W        W37597  14.195  12.545   4.180  0.0659  0.3408 -0.1380
20750W        W37598   4.414  11.348   5.406 -0.0172  0.0028 -0.4518
20751W        W37599   7.911   1.467   3.454  0.0519 -0.2279 -0.0649
20752W        W37600   0.595  11.046   1.386  0.1923  0.3538  0.1762
20753W        W37601   0.130   6.404   1.449 -0.3218 -0.4339 -0.1063
20754W        W37602  17.129  16.564   1.101  0.0635 -0.0565  0.4491
20755W        W37603   4.343   3.574  14.027  0.0005 -0.2025  0.0640
20756W        W37604  14.636  10.137   4.815 -0.1894 -0.2468 -0.0542
20757W        W37605  11.529  12.632  13.809  0.0341  0.1011 -0.2337
20758W        W37606   0.627   5.810  10.374 -0.0614  0.0576 -0.0360
20759W        W37607   2.464   6.337   4.305 -0.1818 -0.1704 -0.3685
20760W        W37608  16.544  10.883  14.868 -0.1908 -0.0241  0.2220
20761W        W37609  13.069  13.509   5.389  0.1421 -0.0611 -0.0691
20762W        W37610  10.376  11.845   2.615 -0.0813 -0.3476  0.1595
20763W        W37611   9.723  13.956  13.294 -0.2623 -0.1372 -0.2973
20764W        W37612   9.495   0.256  13.945 -0.0176  0.0791  0.0874
20765W        W37613  13.888   8.742   1.715  0.2089 -0.0072  0.0379
20766W        W37614   8.508  17.006   4.490  0.0092 -0.1009 -0.1563
20767W        W37615   6.164  16.364   2.547  0.1648 -0.0297 -0.1034
20768W        W37616  11.850   2.173   2.699 -0.2119 -0.1120  0.2969
20769W        W37617  15.085   6.298  11.574  0.1763 -0.1125  0.0090
20770W        W37618   0.113  17.155   5.208 -0.0010 -0.3076 -0.0005
20771W        W37619  14.927   7.132   1.027  0.0786  0.1068 -0.0982
20772W        W37620  16.036  14.456   2.886  0.3102  0.1921 -0.1875
20773W        W37621   3.784   1.974   2.243 -0.2854 -0.0854 -0.0713
20774W        W37622  15.636   2.310  14.337 -0.0167  0.4926  0.1329
20775W        W37623  12.738   8.071  10.780 -0.1952 -0.1884  0.0437
20776W        W37624   2.515   9.818  12.295  0.0789  0.1120  0.2025
20777W        W37625   5.138   1.269  11.557  0.0087 -0.0162 -0.0693
20778W        W37626   6.314   0.313  16.461  0.0066 -0.2259  0.2889
20779W        W37627  11.245  15.999   0.587  0.1225 -0.1955 -0.0504
20780W        W37628  15.456  11.991  15.261  0.2034  0.1043  0.1382
20781W        W37629   4.747  12.812  13.441 -0.0859  0.0610 -0.2193
20782W        W37630   0.111   5.986  15.753 -0.0732 -0.0145  0.0401
20783W        W37631  12.032   6.073   5.460  0.1126 -0.2094 -0.0057
20784W        W37632   3.741  16.179  14.322  0.2967  0.2731  0.2855
20785W        W37633   9.544  17.633  13.393  0.1259  0.1346  0.0656
20786W        W37634   1.145  14.282   3.929 -0.0499  0.0760  0.1087
20787W        W37635  14.861  14.741   5.072  0.0773  0.0716 -0.2026
20788W        W37636  15.969   3.278  12.821 -0.2332  0.1724 -0.2267
20789W        W37637   5.206  12.365   0.637 -0.2795 -0.1327  0.0376
20790W        W37638  15.683  16.884   1.027 -0.3211  0.0956 -0.3316
20791W        W37639   8.605   8.196   4.771 -0.1563  0.1201 -0.0860
20792W        W37640   3.444  14.838  12.754  0.0288  0.0833 -0.2537
20793W        W37641   0.861  16.021  13.263  0.0507 -0.0725 -0.2292
20794W        W37642   9.441  17.595  12.623 -0.3722 -0.0831 -0.3398
20795W        W37643   9.022   8.119  15.545  0.0245  0.0944  0.0576
20796W        W37644   8.558   5.149   1.825  0.2877  0.1611 -0.1421
20797W        W37645   5.979   5.839  11.246  0.2895 -0.2310  0.0582
20798W        W37646   7.954  16.656   2.845  0.2937 -0.0291  0.2645
20799W        W37647  14.259  15.021   2.617  0.2026  0.0955 -0.0453
20800W        W37648   7.840  16.275   2.292  0.1185 -0.0204 -0.3357
20801W        W37649   2.471   1.121  14.387  0.3745 -0.0486 -0.1754
20802W        W37650  12.085  15.520   2.791 -0.2426 -0.0399  0.2426
20803W        W37651   8.356  11.125  13.602  0.2009 -0.0414  0.1888
20804W        W37652  15.631   6.957   0.819 -0.2470 -0.0947 -0.0504
20805W        W37653  15.876  15.651  13.804 -0.0243  0.1473 -0.1087
20806W        W37654   1.163   5.326  12.756 -0.1108 -0.0571 -0.1390
20807W        W37655   6.159   4.026   3.731 -0.0186  0.0070 -0.0693
20808W        W37656  10.041  10.749  12.597  0.1223  0.0412  0.0828
20809W        W37657   2.735  12.581   5.534 -0.0221 -0.3692  0.1400
20810W        W37658   9.433  14.450   0.144 -0.0895 -0.1682  0.0218
20811W        W37659   6.046  14.742  12.280 -0.1309 -0.0645 -0.3301
20812W        W37660   6.296  11.304  11.657 -0.0437 -0.1557  0.0433
20813W        W37661   8.091   5.321   1.817  0.3083 -0.2161  0.2858
20814W        W37662  11.130  15.263  15.789 -0.0483 -0.0734  0.1084
20815W        W37663   7.827  11.147  14.981  0.1404  0.0118  0.0263
20816W        W37664   4.837  16.217   1.345  0.1315  0.2566  0.0192
20817W        W37665  12.882  14.667   3.493  0.1791 -0.1762  0.1590
20818W        W37666   4.466  14.196   4.522  0.1343 -0.3337  0.0036
20819W        W37667   9.780  16.869   1.913 -0.0199  0.0544 -0.0488
20820W        W37668   8.357  14.502   2.175  0.2038 -0.0858  0.0193
20821W        W37669   9.610   7.869  11.760  0.1896  0.0133 -0.0611
20822W        W37670  11.716  13.529  14.915  0.2228  0.1663 -0.1160
20823W        W37671  15.478  16.938  16.283 -0.0914 -0.1063  0.2314
20824W        W37672   8.299   8.125  16.179  0.0252  0.2053  0.1007
20825W        W37673  17.061   4.539  11.655 -0.1381 -0.0099 -0.0953
20826W        W37674   9.390   5.349  10.735 -0.1264  0.0022 -0.2742
20827W        W37675   6.205  11.684   1.281 -0.0401 -0.2609 -0.0754
20828W        W37676  16.750   9.396  13.656 -0.1774 -0.0752  0.1231
20829W        W37677   0.616  17.699   1.211  0.0916  0.1794  0.0325
20830W        W37678  14.850  11.258   3.170 -0.1740  0.0469  0.3660
20831W        W37679  14.990   4.049  16.504 -0.3258 -0.1046  0.0312
20832W        W37680  16.005   0.550  14.294  0.1218 -0.0721  0.1124
20833W        W37681   1.551   4.475  15.842 -0.1179 -0.0706  0.1252
20834W        W37682   3.520   0.633   0.192  0.0439 -0.1446 -0.1744
20835W        W37683  15.257   8.448  12.970  0.1631 -0.0681  0.0780
20836W        W37684   9.929  16.408   3.162 -0.3516 -0.3649  0.0516
20837W        W37685  13.663   2.607  12.437 -0.1376  0.1777 -0.0885
20838W        W37686   8.455   4.478  12.878  0.2802  0.2924 -0.0011
20839W        W37687  11.348  15.043   1.250 -0.2458  0.2277  0.3299
20840W        W37688   9.824  12.067  15.163  0.0661  0.1587  0.0115
20841W        W37689   1.121   3.446  13.998 -0.0017 -0.0078 -0.2384
20842W        W37690   8.913  13.621   4.740  0.0006 -0.0995  0.2772
20843W        W37691  14.576   4.565  11.436 -0.2292 -0.0561  0.0297
20844W        W37692  17.671  17.734   4.277  0.1800 -0.1141  0.0122
20845W        W37693   8.217  12.510  15.156  0.1768 -0.0259  0.2851
20846W        W37694  17.849   6.656  11.843 -0.5212 -0.3721  0.0793
20847W        W37695   0.624   8.664   4.133 -0.3142 -0.0489 -0.3512
20848W        W37696  10.697  10.662   1.265 -0.3822  0.3510 -0.0570
20849W        W37697  15.051   8.160   3.227 -0.0036 -0.0425 -0.0241
20850W        W37698  13.968   6.449   3.007  0.1985  0.0242  0.1714
20851W        W37699  14.694  16.893   2.560  0.1958 -0.0555  0.0266
20852W        W37700  13.226   4.142   5.081  0.1688  0.1331  0.3143
20853W        W37701   5.746   4.789   1.594 -0.1018  0.2244  0.0062
20854W        W37702   2.168  10.748  15.190  0.0462 -0.2255  0.0249
20855W        W37703   2.959   8.781   3.037 -0.1524 -0.0742 -0.0395
20856W        W37704   9.560   2.991   0.184  0.1555  0.1818  0.2776
20857W        W37705  10.491   6.811  11.237 -0.2891 -0.0236 -0.1955
20858W        W37706  11.571  17.231  16.595  0.1676 -0.2133 -0.3776
20859W        W37707   4.236  13.746   2.128 -0.1127 -0.2481  0.0824
20860W        W37708   7.107   4.078  16.216 -0.2495  0.2925 -0.1382
20861W        W37709   7.071   7.800   4.265 -0.1384 -0.2861 -0.1108
20862W        W37710  10.701   3.287  15.038  0.0809  0.2331 -0.0708
20863W        W37711  16.589  11.703  11.732  0.2157 -0.1199 -0.1929
20864W        W37712   0.457   1.550   0.537 -0.2154  0.2218 -0.0925
20865W        W37713  13.923   2.186   1.577 -0.1732  0.0056 -0.0980
20866W        W37714   8.951  14.000   0.629 -0.0622  0.0675 -0.4055
20867W        W37715   8.437   4.705   0.580  0.0400  0.2263  0.0057
20868W        W37716   1.786   0.320  12.341  0.2057  0.1007 -0.0635
20869W        W37717   0.446  10.381  13.050  0.1770  0.0335  0.1829
20870W        W37718   1.331  17.298   1.544  0.2737 -0.2067 -0.2174
20871W        W37719   7.786  13.096   2.373  0.0563  0.2023 -0.0726
20872W        W37720   7.071   5.428  12.583  0.0398  0.1476 -0.1227
20873W        W37721   5.986   9.204  16.232  0.0065  0.0449 -0.2084
20874W        W37722   7.399   2.021  12.115 -0.1407  0.1204 -0.1447
20875W        W37723  13.846   1.784  14.810 -0.2649 -0.2631  0.4381
20876W        W37724  11.988  16.868  12.447 -0.0071 -0.0809  0.1881
20877W        W37725  10.146  15.045  12.372  0.1521 -0.0649 -0.0640
20878W        W37726  15.559   0.730   0.467 -0.2862  0.0872 -0.1899
20879W        W37727   9.136   1.939  15.339 -0.1539 -0.2928  0.2775
20880W        W37728   5.860  17.545  11.735  0.0466 -0.0595 -0.1174
20881W        W37729   7.432  10.130   0.782  0.1439 -0.0830 -0.0302
20882W        W37730  11.553   0.617  12.960 -0.0160  0.1747 -0.3144
20883W        W37731  11.778  10.719  15.492 -0.1125 -0.0604 -0.1043
20884W        W37732  12.998   3.202   5.337 -0.0913  0.2267 -0.1749
20885W        W37733  17.196  14.527  11.452  0.2112 -0.1683 -0.2618
20886W        W37734  14.729   2.136   3.731 -0.3382 -0.2633  0.0145
20887W        W37735  12.574   3.510   2.493 -0.0008 -0.3330 -0.1948
20888W        W37736   4.755  12.527  14.330 -0.1656  0.1386 -0.1721
20889W        W37737   1.029   6.828   2.935 -0.2339  0.0122  0.0861
20890W        W37738   3.478   4.042   0.604 -0.0625  0.0052  0.0779
20891W        W37739   8.563  13.677   3.872  0.0933 -0.0050  0.0265
20892W        W37740  10.813   2.815   3.592 -0.1006 -0.0943  0.0305
20893W        W37741   6.460   3.782  12.538 -0.0147  0.2376 -0.4104
20894W        W37742   1.294   9.223  13.529 -0.2761 -0.1174 -0.1667
20895W        W37743   7.721   0.205   2.773  0.0189  0.0459  0.0314
20896W        W37744   5.472  10.352  11.973  0.0567 -0.1904  0.2296
20897W        W37745  10.664   1.120  15.491 -0.2208 -0.1790  0.1559
20898W        W37746   3.963  13.309   3.259  0.0952 -0.0972 -0.1421
20899W        W37747   2.470   5.941  14.961  0.2729 -0.2151 -0.1290
20900W        W37748   3.384  15.806  13.094 -0.0799  0.0341  0.0468
20901W        W37749   2.369  14.387   1.922  0.3223 -0.0509 -0.0361
20902W        W37750   0.804   9.482  15.540  0.0827  0.3929 -0.1708
20903W        W37751  15.818   0.356   0.650 -0.3111 -0.1636  0.3521
20904W        W37752   0.524   8.719  13.761 -0.0582 -0.1116 -0.1867
20905W        W37753   0.592  10.304  11.671 -0.1982 -0.1937  0.3360
20906W        W37754  13.914   8.097  14.985  0.2204  0.0603 -0.1807
20907W        W37755  13.518   6.798   0.923  0.0372  0.0162  0.0789
20908W        W37756  14.564  13.549   4.768  0.0281 -0.1007 -0.0561
20909W        W37757  11.573   1.626   5.018 -0.2141  0.0761  0.4335
20910W        W37758   2.563  14.527  14.889  0.3975 -0.2259 -0.1777
20911W        W37759  11.539   6.563  13.456 -0.0371 -0.0651  0.1440
20912W        W37760  15.116   7.900  13.673 -0.1229  0.3126 -0.0260
20913W        W37761   5.684  12.059   5.787  0.1612 -0.1538  0.0572
20914W        W37762   4.780  16.170  15.229  0.0741  0.1911  0.0614
20915W        W37763   4.565  11.153  15.495  0.0146  0.0221  0.0931
20916W        W37764   1.132  10.365  13.856 -0.0552  0.2610  0.0746
20917W        W37765   1.406  12.948   2.668 -0.2131  0.1632 -0.0248
20918W        W37766   7.224  17.614   4.792 -0.0246 -0.3539  0.3224
20919W        W37767  16.891   7.478  13.273 -0.1222 -0.0154  0.0545
20920W        W37768  15.339   9.634   3.805  0.1712 -0.0054  0.0725
20921W        W37769  12.899   7.683  11.201 -0.2968 -0.0787 -0.0300
20922W        W37770   5.334   1.093  16.233 -0.1454  0.0648  0.0432
20923W        W37771   7.112  17.717   0.628 -0.0777 -0.4092  0.0465
20924W        W37772   7.611   7.968   1.687 -0.2030  0.0669 -0.0811
20925W        W37773   8.045  13.360   0.945  0.1804  0.2076 -0.1236
20926W        W37774   5.277  14.281   6.452  0.4126  0.0990  0.0027
20927W        W37775  12.109  17.575  15.231  0.3197  0.0976  0.1155
20928W        W37776   4.866   3.639   5.133  0.0355 -0.0819  0.0104
20929W        W37777   3.961  15.239  15.658  0.0639  0.2245  0.4562
20930W        W37778   5.445   0.809   3.503  0.2384  0.3819  0.1541
20931W        W37779   1.438   6.716   0.178 -0.2843 -0.1051 -0.0691
20932W        W37780   5.703   2.737   2.797 -0.1513 -0.2367  0.0291
20933W        W37781  14.436   4.176   3.567  0.0563  0.3339 -0.0735
20934W        W37782   5.396   7.910   5.313  0.4846  0.2482  0.0885
20935W        W37783   0.961   2.980  16.430 -0.1652  0.0251 -0.2102
20936W        W37784   0.358   7.286   4.628 -0.1743  0.0967 -0.3069
20937W        W37785   8.516  10.725   5.110  0.1212  0.2337  0.1840
20938W        W37786   8.598   6.934  14.641 -0.0461  0.0387 -0.1371
20939W        W37787   2.582   9.207   0.445 -0.0034 -0.1526 -0.2190
20940W        W37788   1.109  11.264  12.819 -0.1315 -0.0365  0.2896
20941W        W37789  15.254   2.281  13.498 -0.2078  0.0354 -0.1064
20942W        W37790   3.141  15.291   0.172 -0.0489  0.0084 -0.0262
20943W        W37791  16.256  12.071   1.010  0.2456  0.3351  0.1805
20944W        W37792  10.825  16.630  12.724  0.0943  0.2787 -0.0658
20945W        W37793   0.172   9.714  14.748 -0.1150  0.0564 -0.3096
20946W        W37794   6.704   6.644   1.702 -0.2478 -0.0598 -0.1472
20947W        W37795   1.591  17.843   2.627 -0.0074  0.1519 -0.1643
20948W        W37796   2.013   1.670  14.893  0.2392  0.0456  0.0365
20949W        W37797   5.418   6.063  15.134 -0.2898  0.1838  0.1657
20950W        W37798  11.067  16.573  14.202 -0.0158  0.0453  0.1673
20951W        W37799   5.765   2.662  13.940  0.0567 -0.0751 -0.1339
20952W        W37800   4.355  13.348  14.588 -0.1161  0.1718 -0.3243
20953W        W37801   6.326   5.726  14.379  0.0263 -0.1871  0.0315
20954W        W37802   9.265  12.336  14.248  0.1395 -0.2811 -0.1977
20955W        W37803   9.848  13.034  14.215 -0.0639 -0.1583 -0.0105
20956W        W37804  15.485  15.389  16.625  0.1250  0.0946  0.1552
20957W        W37805   1.326   9.414   4.814  0.0894 -0.3515 -0.0608
20958W        W37806   2.032   2.660  15.802  0.0059  0.0413 -0.0756
20959W        W37807   2.251  11.097   1.547  0.1209 -0.2290 -0.1696
20960W        W37808  10.321  11.893  15.026  0.1855 -0.1678  0.0701
20961W        W37809   9.208   3.290  12.889 -0.5697  0.1298 -0.0012
20962W        W37810  10.192  15.094   0.139  0.0102 -0.2487 -0.1313
20963W        W37811   5.980  17.049   0.432  0.1689  0.0981  0.2939
20964W        W37812  16.789   7.949  16.567 -0.0378  0.3048 -0.2354
20965W        W37813  17.110  13.947   0.724 -0.1537 -0.0726 -0.0998
20966W        W37814  12.942   2.665  12.122 -0.1010 -0.3644 -0.1919
20967W        W37815   7.466  17.833   3.180 -0.0797 -0.1754 -0.0323
20968W        W37816  13.960  11.360   2.562  0.2425  0.1474  0.0710
20969W        W37817   0.864   4.976  12.994 -0.1227 -0.0301 -0.1020
20970W        W37818   8.193   8.615   3.234 -0.2003 -0.2655 -0.1422
20971W        W37819   1.187  12.367   3.369 -0.0050 -0.5138  0.3115
20972W        W37820  13.508   7.326  15.040 -0.1935 -0.0740 -0.2861
20973W        W37821  10.214   1.102  15.661  0.2944  0.1968  0.0919
20974W        W37822  15.121   2.565  14.368  0.1817 -0.2481  0.0806
20975W        W37823  16.321  12.529   3.633  0.3939 -0.0707  0.1991
20976W        W37824  12.243   8.276   3.353  0.1000 -0.2694 -0.1650
20977W        W37825  15.749   8.767   2.325 -0.4727  0.0427  0.3413
20978W        W37826   4.441  16.870   3.048  0.1451  0.2716  0.0920
20979W        W37827  17.299   2.339  13.688 -0.0604 -0.1184  0.0636
20980W        W37828   3.415   3.739  14.225  0.1568 -0.0581 -0.0941
20981W        W37829   3.295   5.595  14.490 -0.0518 -0.1468 -0.0724
20982W        W37830   3.825   7.550   4.880 -0.2266 -0.1925 -0.0862
20983W        W37831   8.664   1.284  15.892  0.1445  0.0776  0.3064
20984W        W37832   3.498   4.431  14.686  0.0673  0.1209 -0.3498
20985W        W37833   4.522  13.261   4.077  0.2040  0.1740 -0.0346
20986W        W37834   4.911   6.514   2.643  0.3720 -0.5518  0.0245
20987W        W37835  15.892   7.546   4.198  0.0285 -0.0174 -0.0146
20988W        W37836   3.206   5.647   0.958 -0.0291 -0.1065  0.2790
20989W        W37837   1.321   0.342   2.275  0.0116 -0.2764  0.1366
20990W        W37838  10.383   8.746   3.464 -0.2305  0.0239  0.0802
20991W        W37839  13.959   6.086   1.199 -0.0561 -0.1121  0.3002
20992W        W37840   2.367   9.869  14.134 -0.0015 -0.1107  0.1429
20993W        W37841   7.718   1.833  15.146 -0.1126  0.0107  0.0048
20994W        W37842  10.713   2.820  11.194  0.4058 -0.1251  0.0107
20995W        W37843  17.734   8.495  14.928 -0.1583 -0.0821 -0.0919
20996W        W37844  17.755  11.017   6.136  0.0610 -0.0889  0.2190
20997W        W37845   1.006  14.568   0.681  0.0907 -0.2492  0.0762
20998W        W37846   0.711   5.038   1.430 -0.0258 -0.2864  0.0522
20999W        W37847   3.178   5.430  14.941  0.0705  0.2745  0.0256
21000W        W37848   5.142   6.554   1.662  0.1003  0.2415  0.1491
21001W        W37849  17.100   9.817   4.226 -0.1074 -0.4248  0.1350
21002W        W37850   3.382  13.673   0.591 -0.1713  0.1131 -0.1740
21003W        W37851   3.654   5.366   0.775  0.1702 -0.2116 -0.0215
21004W        W37852   9.437   2.088   4.023  0.0193 -0.1208 -0.0142
21005W        W37853   9.437   8.294  11.473  0.1689 -0.1655 -0.5490
21006W        W37854   4.976  10.965   1.037 -0.1912  0.0267 -0.0305
21007W        W37855  11.214   8.801  14.384 -0.1232 -0.1845  0.1190
21008W        W37856   8.670  17.823  14.677  0.5729  0.0788 -0.0369
21009W        W37857   9.248  14.510   3.841  0.1379 -0.2918  0.0217
21010W        W37858   8.116  15.976   3.301  0.1896  0.0114 -0.0943
21011W        W37859  17.507  15.432   4.887 -0.3077 -0.2767 -0.0308
21012W        W37860   3.346   3.670   2.941 -0.0320 -0.1295  0.1702
21013W        W37861  17.038  14.368   3.292  0.0010 -0.1195 -0.2487
21014W        W37862  14.069  11.124   0.574  0.2236  0.0442 -0.1227
21015W        W37863  10.205   9.187   3.161 -0.0450  0.2339 -0.3146
21016W        W37864   0.223   9.484  14.214  0.3140  0.3771 -0.0658
21017W        W37865   0.884   5.117  10.549  0.0565  0.0022 -0.0031
21018W        W37866  14.611   9.333  13.416 -0.0194 -0.0216 -0.0799
21019W        W37867   2.856   7.075  13.905  0.0951 -0.1731  0.1406
21020W        W37868   8.235  14.246  14.075 -0.0096 -0.3024  0.1523
21021W        W37869   6.610  12.599  14.318 -0.3792  0.2991 -0.0873
21022W        W37870   3.005   8.796   3.618 -0.2811  0.0211 -0.0824
21023W        W37871   8.931   4.975   1.476 -0.1505  0.0670 -0.1908
21024W        W37872   5.999   4.343  11.411 -0.1268 -0.0190  0.1573
21025W        W37873  13.355   8.879   3.307  0.1237 -0.1830 -0.1302
21026W        W37874   8.099   9.114  16.413 -0.3704  0.0579  0.3577
21027W        W37875  11.038   3.739   4.616  0.2499  0.0322  0.0291
21028W        W37876  10.047   3.052   0.964  0.0610  0.2018  0.0679
21029W        W37877  14.434   1.046   2.850 -0.0919 -0.0761 -0.2062
21030W        W37878   2.079   3.254  12.163  0.0316 -0.0291  0.0260
21031W        W37879   6.674   7.966   3.328  0.1523  0.1394  0.0347
21032W        W37880  16.551  14.712  14.993 -0.2690 -0.0993 -0.0590
21033W        W37881   3.816  16.394   0.025  0.3702 -0.0448 -0.0498
21034W        W37882   4.113   9.961   0.714  0.2834 -0.1113  0.1599
21035W        W37883   1.207  13.104  15.623  0.0212  0.0368  0.3273
21036W        W37884  11.561  13.352  11.330 -0.1535 -0.1995 -0.0309
21037W        W37885   0.821   2.173  14.019 -0.2145 -0.1869  0.0086
21038W        W37886   1.588   5.806  11.238 -0.2232 -0.0772 -0.0457
21039W        W37887   6.034   8.186   2.571 -0.1324  0.0235  0.3749
21040W        W37888  14.051   0.938  12.595 -0.2295 -0.1355  0.1210
21041W        W37889   1.157  10.534   2.601  0.1422 -0.2589  0.1545
21042W        W37890   4.892   4.109  12.388 -0.0811  0.0665  0.1073
21043W        W37891   1.022   7.027   1.566 -0.2984 -0.1684 -0.0655
21044W        W37892   5.608   4.706   5.596 -0.4419 -0.1501  0.0582
21045W        W37893   5.236   8.441  12.219  0.0298  0.1596 -0.0986
21046W        W37894  10.261  17.350   4.912  0.1363  0.2268 -0.0757
21047W        W37895   2.535  17.156   2.469  0.1106 -0.2489  0.2871
21048W        W37896  11.722  13.769  16.268 -0.0141  0.0578  0.1579
21049W        W37897   9.422   4.450   5.000 -0.0559  0.0256 -0.2472
21050W        W37898   3.964   4.052  15.443  0.3802  0.3862 -0.2805
21051W        W37899   3.322   3.865  13.321  0.0489 -0.1609  0.0681
21052W        W37900   2.157  17.834   2.056  0.2401  0.0943  0.0209
21053W        W37901   1.898  15.811   1.721 -0.0612  0.2146  0.0760
21054W        W37902   5.468  11.568  10.343  0.3432  0.1336 -0.1418
21055W        W37903   7.486  13.749  11.840 -0.1638 -0.2545  0.0629
21056W        W37904  17.713   3.239   1.931 -0.1508  0.1964 -0.0357
21057W        W37905  11.404  12.390   3.231  0.1685  0.1404 -0.0623
21058W        W37906   1.841   3.781  14.403  0.2083 -0.0588  0.1827
21059W        W37907   7.844  11.015  11.909  0.1821 -0.2563 -0.2193
21060W        W37908   9.056  14.911  13.063  0.1899 -0.2491  0.1090
21061W        W37909  17.643   9.456  13.936  0.3704  0.0285 -0.1766
21062W        W37910  16.540  12.078   4.399  0.1114  0.0970  0.0749
21063W        W37911  10.832   5.352   1.343  0.0805  0.3685 -0.1224
21064W        W37912   9.477  12.727   1.133 -0.5803  0.1995 -0.4407
21065W        W37913   8.198   3.650   2.761 -0.0760 -0.0801  0.2224
21066W        W37914  16.253  11.853  14.227  0.4036  0.0358 -0.4262
21067W        W37915   4.531   2.583   2.098 -0.0528  0.0475 -0.1574
21068W        W37916   4.725  11.699   1.604  0.1331 -0.3872  0.2562
21069W        W37917  12.036  13.023  15.701  0.1615 -0.5373  0.0659
21070W        W37918  11.152   7.198  14.563  0.1181  0.3496  0.0776
21071W        W37919  10.065  16.437  12.299 -0.0935  0.1143 -0.1792
21072W        W37920  11.934   3.216   1.984 -0.1392  0.0648 -0.1561
21073W        W37921  10.811   0.229  14.965 -0.1471 -0.1572  0.1208
21074W        W37922   5.273  11.824  14.280  0.2549  0.2281  0.4318
21075W        W37923   9.579  16.803   2.445 -0.0455  0.0790  0.2491
21076W        W37924   2.906   1.779  15.398  0.0536  0.2823 -0.1348
21077W        W37925   4.670   7.345   3.226  0.0612 -0.1494  0.2731
21078W        W37926   9.644   3.748  12.826 -0.0930  0.1841  0.1553
21079W        W37927   9.063  17.295  12.148  0.2328 -0.1343 -0.1268
21080W        W37928   7.683   0.281   6.114 -0.2646  0.0659 -0.2403
21081W        W37929  17.678   0.454   2.865  0.0040  0.0885 -0.2605
21082W        W37930  11.685   4.518  15.203  0.1042 -0.2507  0.0020
21083W        W37931   2.755   1.357  10.267 -0.6033 -0.0580  0.2198
21084W        W37932   7.352  13.350   1.463 -0.2540  0.1359 -0.3665
21085W        W37933   8.689   1.628  13.366  0.0171 -0.2916 -0.2381
21086W        W37934  16.664   7.379  13.947  0.1029 -0.0316  0.1891
21087W        W37935  14.091  17.271   0.866  0.0650 -0.3363  0.1093
21088W        W37936  11.873   5.767  11.324 -0.1282  0.0127  0.1522
21089W        W37937   2.973  10.523   5.001  0.0619 -0.4834 -0.0329
21090W        W37938  14.665   6.910  14.986 -0.0476  0.1766  0.1559
21091W        W37939  16.856  13.540   3.934 -0.1387 -0.0217 -0.3004
21092W        W37940   0.803  11.302  12.129 -0.1093 -0.2841  0.1059
21093W        W37941   5.115  13.317   0.433  0.1252  0.0115  0.0220
21094W        W37942  12.315   6.898  16.049  0.0153  0.0845  0.0399
21095W        W37943   2.288   6.306   0.690  0.1662  0.0530  0.0559
21096W        W37944   1.853  14.950   3.091 -0.1345 -0.2924 -0.0958
21097W        W37945   4.328   2.310  12.516 -0.1371 -0.1149  0.1510
21098W        W37946   9.558   5.855  14.918 -0.2497 -0.1042  0.5258
21099W        W37947  15.510   0.259   0.209 -0.1566 -0.4439 -0.1009
21100W        W37948  10.327  11.369  14.569  0.1731 -0.3026 -0.1716
21101W        W37949   0.071  16.507   0.835  0.0427  0.1719  0.1473
21102W        W37950   1.037   8.979   4.051 -0.0954 -0.1229  0.3570
21103W        W37951   5.977   5.332   2.424  0.0924  0.2904 -0.3970
21104W        W37952   9.208   2.243   4.422 -0.2197  0.2070 -0.0956
21105W        W37953  16.722   6.046  14.361 -0.1523  0.3412 -0.1047
21106W        W37954   9.708   1.657   1.451 -0.1422  0.1584 -0.1004
21107W        W37955  16.287  17.276  12.867 -0.1245  0.1092  0.2598
21108W        W37956  12.238   0.625   1.163 -0.0327 -0.0138 -0.2132
21109W        W37957   0.540   4.429  15.918  0.3734 -0.0375  0.1971
21110W        W37958   6.496   2.949  14.314 -0.0335 -0.2007 -0.0112
21111W        W37959   2.171  10.442  13.210 -0.1058 -0.1351 -0.0641
21112W        W37960  12.847  12.359  13.373 -0.1218  0.1024 -0.0843
21113W        W37961   0.666   3.692  15.725  0.2622  0.0618  0.0913
21114W        W37962   6.386  16.517  15.988  0.0990  0.0757 -0.1297
21115W        W37963   2.182  10.432   2.812  0.0056  0.0249  0.2405
21116W        W37964  12.871   6.904  16.118  0.1098 -0.1727  0.3923
21117W        W37965   5.257  10.102  13.986 -0.2814 -0.2968  0.0367
21118W        W37966   1.949   5.623  13.105  0.0114 -0.3501  0.3415
21119W        W37967  10.980   0.457   3.233 -0.1951  0.0825 -0.2170
21120W        W37968   6.996  13.386  13.503  0.1833  0.3115  0.3380
21121W        W37969  11.528   6.744  11.879  0.0218  0.0935 -0.0929
21122W        W37970   2.173  12.232  13.708 -0.1916  0.0261 -0.0396
21123W        W37971  16.134  10.719  13.295 -0.0922  0.0448  0.0787
21124W        W37972   4.028   9.719  13.064  0.0408  0.2347  0.0681
21125W        W37973  13.136   9.046  15.523 -0.0300 -0.0157  0.1961
21126W        W37974  13.717  12.727   1.185 -0.2469  0.1876 -0.0999
21127W        W37975  11.589  13.248  11.998 -0.0752 -0.1469 -0.2607
21128W        W37976   5.923  17.781   5.091 -0.0272  0.0235  0.1315
21129W        W37977   9.597  13.932   0.206  0.0503  0.0205 -0.1369
21130W        W37978   6.374   8.282   3.838  0.3685 -0.3737  0.0034
21131W        W37979  16.284   7.287  11.515 -0.2788 -0.3920 -0.1472
21132W        W37980  13.414  13.118  15.166 -0.2629 -0.1738 -0.1179
21133W        W37981   7.291   3.188   1.984  0.1107 -0.2489 -0.0331
21134W        W37982   4.170   4.694  12.933  0.0332  0.0551 -0.1638
21135W        W37983  16.726   2.439   1.143  0.0757  0.0038  0.0244
21136W        W37984   7.488  15.398  15.327 -0.4993  0.1720 -0.0397
21137W        W37985  14.443  13.994   2.726 -0.2749  0.1408  0.3443
21138W        W37986   7.091   1.971   1.658  0.0185 -0.2846  0.1755
21139W        W37987   7.755  14.730  13.484  0.0112  0.0308 -0.1219
21140W        W37988   5.530  17.453   4.127 -0.1172  0.0684 -0.1531
21141W        W37989   0.914  12.904  16.495  0.0342 -0.2066  0.0574
21142W        W37990   1.157   8.339  14.627 -0.0593  0.1033 -0.2466
21143W        W37991  13.643  12.399  11.330 -0.1596  0.0332  0.0954
21144W        W37992  13.377   2.290  13.818  0.0339  0.1941  0.0887
21145W        W37993   6.805   2.674   3.466  0.0189  0.0954  0.0197
21146W        W37994   9.119   4.623  16.361 -0.0080  0.0613 -0.1177
21147W        W37995  11.650   8.734  14.074 -0.0257  0.2146 -0.0690
21148W        W37996   7.525   1.848  16.172  0.0733 -0.0038 -0.1256
21149W        W37997  13.857   4.067  10.541 -0.1313  0.1418  0.2028
21150W        W37998   2.460   0.301   5.216  0.1178  0.3205 -0.1348
21151W        W37999  11.296   5.161  16.007 -0.3643 -0.0493 -0.0768
21152W        W38000  17.604   5.700  12.562  0.0650 -0.1081 -0.2887
21153W        W38001  15.349   0.343  12.675  0.0477  0.2520  0.3553
21154W        W38002  16.220  11.566  13.168 -0.0210  0.2104 -0.0305
21155W        W38003  15.741   1.015   4.811  0.0597 -0.2276 -0.1738
21156W        W38004   4.321   3.116   3.406 -0.0180 -0.0457  0.1619
21157W        W38005   4.814   5.921  12.950  0.2611 -0.1119  0.1320
21158W        W38006   7.784   9.336  12.678 -0.1548  0.0413 -0.3961
21159W        W38007   3.070   6.335   0.149  0.2450  0.1448 -0.2207
21160W        W38008  10.282  14.490   1.705  0.0926 -0.2527 -0.1119
21161W        W38009   7.799   8.367  15.879 -0.1035  0.1115  0.0580
21162W        W38010   1.782   9.645  13.039 -0.2642  0.2478  0.1564
21163W        W38011   3.641   3.768  11.098 -0.3100  0.2110 -0.0143
21164W        W38012   0.849  11.239  14.429 -0.1372  0.0844  0.1935
21165W        W38013   9.580   4.771  13.399  0.2869  0.1549  0.0030
21166W        W38014   6.931   4.249   3.883  0.1803  0.0362  0.3855
21167W        W38015  16.938   6.293   2.539  0.5121 -0.2906  0.0107
21168W        W38016   2.390   6.486  12.233 -0.1308 -0.1486 -0.0315
21169W        W38017  13.825  14.183   0.038  0.0100  0.2417  0.0454
21170W        W38018   1.727   6.770  15.397  0.1673 -0.2504  0.1715
21171W        W38019  11.264   7.341  11.555 -0.1582  0.2329  0.1727
21172W        W38020   9.751  15.245   0.261  0.1199  0.2772 -0.0356
21173W        W38021   2.094   9.210  13.305 -0.1845 -0.1997 -0.3378
21174W        W38022   8.754  12.194   1.162 -0.1320  0.0610 -0.1510
21175W        W38023   7.261   7.048  15.819  0.0283 -0.0774  0.3708
21176W        W38024   3.071   7.629  11.010  0.0503 -0.0486 -0.2182
21177W        W38025   2.760   5.708  14.549 -0.5123  0.0627  0.0970
21178W        W38026   2.447   1.655   2.083  0.1816  0.0362 -0.3250
21179W        W38027   6.773  11.485   4.927 -0.1787  0.1087  0.1483
21180W        W38028   2.411   0.891  11.925  0.0025  0.0557  0.2995
21181W        W38029   8.045  14.729  15.157  0.2240  0.3201  0.0356
21182W        W38030   8.835  17.226  14.597  0.2569 -0.0158  0.0468
21183W        W38031   1.348  17.216  11.153 -0.4189 -0.1295 -0.0628
21184W        W38032   1.038   7.728  16.148 -0.0619 -0.1450 -0.0317
21185W        W38033   7.916  14.297   3.512 -0.0842 -0.2645  0.0517
21186W        W38034  17.631   4.665  13.456 -0.1452  0.0748  0.0892
21187W        W38035  11.831  10.612   4.696 -0.0968  0.2026 -0.0958
21188W        W38036  14.300   2.854  11.716  0.1287  0.1208  0.2268
21189W        W38037  17.662   1.059   5.226  0.2824  0.0043  0.0240
21190W        W38038   9.799   0.047  15.903 -0.1852 -0.2121 -0.0810
21191W        W38039   6.491   9.375  11.745  0.1613  0.0330  0.0489
21192W        W38040   1.453   7.800   0.243 -0.1164 -0.0174  0.1692
21193W        W38041  10.194   3.611   3.146 -0.0589  0.1924  0.0735
21194W        W38042   6.557  17.780  14.059  0.0075  0.0872  0.0244
21195W        W38043   9.376   8.007   1.946 -0.2387 -0.2124 -0.2059
21196W        W38044   3.896  13.851  13.903  0.0366 -0.3308 -0.1877
21197W        W38045   4.521   0.613  12.125 -0.0206 -0.4368  0.0185
21198W        W38046  17.073  14.638   4.722  0.2953 -0.0260 -0.2196
21199W        W38047  14.590  10.820  15.934 -0.0149  0.1034 -0.1709
21200W        W38048   6.459  12.683  11.700 -0.3189 -0.0414  0.0896
21201W        W38049   9.047  13.473   3.451  0.1380  0.2102  0.1304
21202W        W38050   6.962   0.589  14.499 -0.2432  0.2601  0.1259
21203W        W38051  10.470  13.519   2.033  0.1738 -0.0205  0.1484
21204W        W38052   0.779  13.167   1.497  0.1150 -0.1056 -0.0518
21205W        W38053  16.274  17.391   4.314  0.0503  0.0383 -0.0880
21206W        W38054   7.066  10.040  15.525 -0.0284  0.1626  0.0983
21207W        W38055   5.289  16.480  14.854  0.1197 -0.0255  0.0990
21208W        W38056  15.572  16.504  12.085 -0.2349 -0.2092  0.2982
21209W        W38057   0.304   8.909  16.032  0.0266 -0.0118 -0.2636
21210W        W38058   2.589   8.367  10.422 -0.3909 -0.2049  0.1336
21211W        W38059  16.972   0.192   2.196  0.3284 -0.0730  0.0799
21212W        W38060   9.988  14.945   0.789  0.4406 -0.2207 -0.1629
21213W        W38061  13.196   7.491   2.425 -0.0919  0.1679 -0.2456
21214W        W38062  13.860   3.402  15.618  0.0861 -0.3248 -0.1270
21215W        W38063   1.030   1.042   4.897 -0.1321 -0.2399 -0.0126
21216W        W38064   6.295   9.857   2.936 -0.2431  0.3523 -0.2436
21217W        W38065   4.851  17.697  15.228 -0.3561  0.2121 -0.0586
21218W        W38066  16.913   7.101   2.990 -0.0895 -0.3267 -0.0218
21219W        W38067  12.622   0.228  14.411 -0.1382 -0.4132 -0.1841
21220W        W38068  16.900   0.883   3.280 -0.0703 -0.1257  0.2481
21221W        W38069  15.353  16.121  11.255 -0.0324 -0.2140 -0.1628
21222W        W38070  14.427  11.728  15.205 -0.3992  0.0897  0.3806
21223W        W38071   5.683   5.678   0.579  0.0239 -0.1678  0.0125
21224W        W38072  17.600   0.677   5.558 -0.1726 -0.0151  0.0993
21225W        W38073   8.541  17.125   1.629 -0.0095  0.0519  0.0464
21226W        W38074  17.445   1.277  12.032 -0.1111 -0.0680 -0.2133
21227W        W38075   4.206  10.381   4.048 -0.3918 -0.1740 -0.0846
21228W        W38076  10.159   2.435  12.992  0.5694  0.1573 -0.0003
21229W        W38077   9.929   2.097   4.012 -0.0500 -0.2091 -0.0143
21230W        W38078   0.143   1.252  13.512  0.3788 -0.3893 -0.0316
21231W        W38079   3.874   6.831  15.480  0.0887 -0.1060 -0.0486
21232W        W38080   9.034  11.817   3.561  0.1100  0.0008 -0.2223
21233W        W38081   2.808   9.640   0.185  0.1885  0.0332 -0.0729
21234W        W38082  16.924  13.768   5.123  0.2573 -0.3349 -0.0779
21235W        W38083  10.459   5.351   0.991  0.1541  0.3405 -0.1610
21236W        W38084   2.182   2.948   2.343  0.0829 -0.2533 -0.0312
21237W        W38085  17.706  16.405  16.399 -0.2326  0.1016 -0.0664
21238W        W38086   3.579   3.044   5.972 -0.0713 -0.4609 -0.1008
21239W        W38087   5.020   4.063  11.381  0.1093 -0.0059  0.1636
21240W        W38088   2.962   1.114   3.184 -0.1260 -0.1403 -0.1664
21241W        W38089   4.407   4.740  13.386  0.2721 -0.0272 -0.0587
21242W        W38090   9.218  11.363   3.406 -0.1084  0.3282 -0.0935
21243W        W38091   6.747   1.838  15.190  0.2908 -0.2081 -0.0087
21244W        W38092  12.034   2.823  16.412 -0.0359  0.0182 -0.2063
21245W        W38093   1.000  12.288  12.311  0.1959  0.1321 -0.2724
21246W        W38094  11.808   0.559  14.858 -0.2364  0.1897  0.1811
21247W        W38095  12.079   2.785   0.543  0.1252 -0.1622 -0.4392
21248W        W38096  16.562  15.633   3.678 -0.3558 -0.0340 -0.0669
21249W        W38097  13.692   2.818   1.360 -0.1044 -0.1551  0.2018
21250W        W38098  15.872   5.903  14.519 -0.3540  0.2724 -0.1659
21251W        W38099   0.780   2.363  13.084 -0.1696  0.3022  0.2156
21252W        W38100   7.989   7.132   1.637 -0.1726  0.6112  0.0422
21253W        W38101   0.585   6.597  15.833 -0.2272 -0.1993  0.1770
21254W        W38102  15.769   8.623  10.949 -0.3888 -0.1290  0.5017
21255W        W38103   9.144  16.027   4.962 -0.2597 -0.0820  0.0222
21256W        W38104   5.580   5.205   1.366  0.0283 -0.3708 -0.0265
21257W        W38105  11.524   7.906  16.314 -0.3201  0.1025 -0.0113
21258W        W38106  16.272  11.050   3.756  0.2202 -0.2961  0.0613
21259W        W38107   4.763  11.342  16.253 -0.0000 -0.0115  0.1713
21260W        W38108  10.159  11.447   2.080 -0.2042  0.0099 -0.1276
21261W        W38109  14.836  15.171  12.617  0.1769  0.2029  0.1542
21262W        W38110  14.533  10.360   0.703  0.2450  0.0374 -0.1360
21263W        W38111  11.746   5.671   3.329 -0.2686  0.0674 -0.0257
21264W        W38112   2.177   1.269   3.020 -0.1168 -0.1927 -0.2093
21265W        W38113  14.270  11.767   2.340  0.0916  0.0321  0.0309
21266W        W38114  11.039   9.959   2.117 -0.1497  0.2212 -0.5739
21267W        W38115   4.563  10.376  11.744  0.0550  0.2233 -0.3750
21268W        W38116  13.413   4.416  14.218 -0.1989  0.2302  0.1913
21269W        W38117   2.259  10.884  15.819  0.1439 -0.0083 -0.0064
21270W        W38118  15.296   1.860   2.345  0.1480 -0.0647  0.1538
21271W        W38119   9.291   4.150   0.967 -0.0440 -0.0054  0.0010
21272W        W38120   5.049   4.515  15.025  0.0162 -0.3751 -0.0039
21273W        W38121  14.352  16.526  14.319 -0.3067  0.0020  0.1260
21274W        W38122  13.762   5.279  14.321 -0.1963  0.1318  0.2394
21275W        W38123   1.004  16.876   4.321 -0.3624  0.0556  0.0316
21276W        W38124   7.596   2.108   1.399  0.2896 -0.1361  0.0621
21277W        W38125  15.773  11.450   0.426  0.1253 -0.2238 -0.1834
21278W        W38126   6.419   1.164  12.556 -0.1417 -0.2122  0.1775
21279W        W38127  11.430  12.270   4.628  0.2225 -0.1284  0.1028
21280W        W38128   9.631  13.444   0.155  0.2619  0.2565 -0.0145
21281W        W38129  10.602  14.850   2.731  0.0730 -0.2865 -0.0371
21282W        W38130  13.346  14.932   2.997 -0.0912 -0.3274 -0.1256
21283W        W38131   7.865   1.539  16.026  0.1204  0.2052  0.3186
21284W        W38132  13.627  12.035  13.691  0.1142  0.1080 -0.0657
21285W        W38133  14.809   7.407   3.873 -0.3293 -0.3162 -0.1275
21286W        W38134  13.648   4.413   2.531  0.1025  0.0294 -0.0808
21287W        W38135   1.691  12.443  15.566  0.0139 -0.1441 -0.0806
21288W        W38136  13.550   7.139   3.618  0.1371 -0.0423  0.2496
21289W        W38137  13.176  10.004  13.783 -0.1153 -0.2593 -0.0158
21290W        W38138  14.746   5.962   4.480  0.1464 -0.0070  0.0430
21291W        W38139   8.327   2.786  12.121  0.2522  0.1041  0.2034
21292W        W38140   1.862   5.268   3.773  0.0098 -0.4483 -0.0938
21293W        W38141   8.731  16.807   4.074 -0.0545 -0.0264  0.0639
21294W        W38142  15.319   8.758   4.429 -0.1127  0.0932 -0.1461
21295W        W38143  10.946   2.104  14.048 -0.0256  0.0447 -0.2041
21296W        W38144  12.269   7.178  11.606 -0.0572 -0.0282 -0.0611
21297W        W38145   1.584  12.603  16.575  0.2243  0.3940  0.3082
21298W        W38146   3.897   9.080   4.160  0.0176  0.3335  0.2831
21299W        W38147  16.587   3.041  14.668 -0.1364  0.1083  0.1633
21300W        W38148  17.409  11.716   4.014 -0.0429  0.3737 -0.0541
21301W        W38149  14.571   6.044  12.142  0.0693  0.1899 -0.2629
21302W        W38150   7.840  10.833   2.068 -0.1507  0.0780  0.0379
21303W        W38151   8.186  10.401   3.834 -0.1784 -0.4887 -0.1543
21304W        W38152  14.145   0.498  16.133  0.0861 -0.0286  0.0498
21305W        W38153  16.523   3.381   2.322 -0.2505  0.2765 -0.3200
21306W        W38154  15.140   3.885  13.519 -0.0905 -0.1945 -0.2017
21307W        W38155   9.983   7.876  16.526 -0.1644 -0.3081 -0.0619
21308W        W38156   4.568  17.647   4.623  0.5993  0.2179 -0.1583
21309W        W38157   7.220  17.321  13.778 -0.0120  0.1893 -0.0133
21310W        W38158   6.520  13.120  13.800  0.0278  0.2260  0.1633
21311W        W38159  15.578  14.700  11.622 -0.1934  0.2338 -0.3324
21312W        W38160   1.230  15.459  12.569 -0.1093  0.1621 -0.0951
21313W        W38161   4.849  14.278   2.640 -0.0997 -0.0032  0.0401
21314W        W38162  14.206  17.743   3.543  0.0906  0.1245 -0.2126
21315W        W38163   8.729   3.210   5.048  0.0692  0.1676  0.1661
21316W        W38164   4.136  17.276  16.213 -0.1864  0.1359 -0.0788
21317W        W38165   1.346   0.353   4.563  0.2371 -0.1996  0.1270
21318W        W38166  16.739  11.976  14.730 -0.0364  0.0679  0.2277
21319W        W38167   5.421   4.679   2.434  0.1442 -0.0616  0.0371
21320W        W38168  16.495  15.603   5.451 -0.3000  0.0511  0.2525
21321W        W38169  16.054   9.706  15.685 -0.1398 -0.1262  0.2727
21322W        W38170  16.562   7.804  13.678 -0.0640 -0.1993  0.0095
21323W        W38171  13.765  17.264  12.102  0.1238  0.1445 -0.2569
21324W        W38172   7.538  16.263   1.880 -0.0595  0.0697  0.1382
21325W        W38173   5.193  11.836   0.179  0.1895  0.0097 -0.1393
21326W        W38174  13.059  16.472   1.090 -0.1879  0.1413  0.3577
21327W        W38175   2.614   1.383   1.173 -0.0952 -0.1402 -0.1042
21328W        W38176  17.297   2.279   2.985 -0.1908 -0.0672 -0.0830
21329W        W38177  10.133   5.880   0.526 -0.0040  0.1586 -0.0804
21330W        W38178   3.766  15.113  14.289 -0.0783  0.3221  0.2409
21331W        W38179   4.362   0.825   1.803 -0.2294 -0.0379 -0.3493
21332W        W38180  15.580  16.054   2.176 -0.0411  0.1176  0.3318
21333W        W38181   2.266   8.912   0.102 -0.0468 -0.0501 -0.0871
21334W        W38182  17.847  11.042   4.596 -0.0146  0.2583 -0.2859
21335W        W38183   6.954  15.975   0.737  0.0593 -0.4061  0.2598
21336W        W38184  12.722   0.470   1.316  0.1338 -0.0422 -0.1531
21337W        W38185   0.751   8.508  15.481 -0.1956 -0.3632  0.1552
21338W        W38186  15.723   6.548  13.846 -0.2299  0.1212  0.1410
21339W        W38187   8.277  12.375  12.241 -0.3485 -0.0128 -0.1480
21340W        W38188   7.574   9.900  12.927  0.0128 -0.1014 -0.0163
21341W        W38189   0.529   4.796   0.099  0.0780 -0.2487 -0.1640
21342W        W38190  12.741   5.537  14.025  0.1640 -0.1990 -0.1745
21343W        W38191   8.185   8.100   3.338  0.0935 -0.1569  0.2571
21344W        W38192  16.350   7.876   3.937  0.0273 -0.1766  0.3537
21345W        W38193   5.826   2.496   1.314  0.1009  0.1799  0.0603
21346W        W38194   0.578  11.908   1.490  0.1406 -0.2606  0.0574
21347W        W38195   2.181  11.979  12.660 -0.1784 -0.1922  0.1419
21348W        W38196   8.039   0.875  13.207 -0.3954 -0.1318 -0.2043
21349W        W38197   6.553  12.390   1.614  0.2437 -0.0588 -0.1248
21350W        W38198   3.567  17.346  15.378  0.0852 -0.0865 -0.1232
21351W        W38199  13.199  15.722   1.919 -0.0454 -0.2174 -0.2399
21352W        W38200  10.059  14.509  15.143 -0.2153  0.2380 -0.4617
21353W        W38201   3.112  11.432   4.261 -0.0372 -0.0856  0.0393
21354W        W38202   0.835  15.454   0.745 -0.0913  0.2006 -0.1807
21355W        W38203   5.472  10.996  13.123 -0.1888 -0.5142  0.2916
21356W        W38204   4.607   3.751  13.237 -0.0222 -0.1672 -0.1936
21357W        W38205  13.605   9.856   1.410 -0.1276  0.0933  0.0317
21358W        W38206   3.332   2.687  10.778 -0.0700  0.3274 -0.0047
21359W        W38207  10.107   4.375  11.240  0.3294  0.0015 -0.3566
21360W        W38208   0.911  17.818  14.474 -0.1533 -0.0873  0.1574
21361W        W38209   6.552   4.254  16.188 -0.1973  0.2828  0.0154
21362W        W38210   4.648   0.788   1.143  0.0751  0.2047  0.1399
21363W        W38211   2.525   7.328  16.125 -0.1551  0.1703  0.1473
21364W        W38212   1.103  14.459   4.466  0.0045 -0.2098 -0.3173
21365W        W38213   1.379   7.557   4.154 -0.0496  0.2144  0.2293
21366W        W38214   0.647   1.654  15.205 -0.5778  0.1067  0.0468
21367W        W38215   4.046  15.498  14.899 -0.5244  0.2187 -0.0080
21368W        W38216   0.349  17.819  15.179 -0.0907 -0.1037  0.0476
21369W        W38217  16.346  13.713   1.046 -0.0930  0.1009 -0.0495
21370W        W38218  15.614  12.375  14.144 -0.2425  0.0650 -0.3441
21371W        W38219   1.122   4.488   1.057  0.3672 -0.0907 -0.1412
21372W        W38220   0.691   6.950   4.191  0.2131  0.0426 -0.2564
21373W        W38221  12.079  13.380   1.783 -0.1393  0.0272  0.1516
21374W        W38222   5.780  17.543  15.870 -0.1105  0.1638  0.0840
21375W        W38223  14.993  14.780  12.317 -0.1730 -0.3069  0.3722
21376W        W38224   0.462  17.305  13.880  0.0301  0.0724 -0.0524
21377W        W38225  15.483   5.993   3.941 -0.0010 -0.2973  0.1501
21378W        W38226  17.089  16.983   0.305 -0.0911 -0.0309 -0.1122
21379W        W38227   3.800  13.689   1.920  0.1523 -0.0502 -0.0073
21380W        W38228   3.389  12.359   0.682  0.2208  0.0437  0.5028
21381W        W38229   2.236   2.474   2.169 -0.0263  0.0519 -0.0784
21382W        W38230   9.775   7.898   5.206  0.2644  0.0619  0.0394
21383W        W38231   5.128   4.240  15.421 -0.1077 -0.1572  0.0610
21384W        W38232  16.541   2.512  15.439  0.2711  0.0562 -0.0319
21385W        W38233  12.873   4.452  15.810  0.0153 -0.1698 -0.0334
21386W        W38234   6.788  11.284  11.492 -0.2143  0.1168  0.1348
21387W        W38235   8.307  17.621   3.728  0.2896 -0.4741  0.1828
21388W        W38236   1.879   3.639  15.993 -0.1612 -0.3247 -0.2689
21389W        W38237   0.978   6.641   3.394 -0.1296  0.2285 -0.2035
21390W        W38238  14.286  17.855   0.736  0.3295 -0.1895  0.1344
21391W        W38239  15.658  12.406   4.115  0.0177 -0.1715  0.2529
21392W        W38240  16.613   4.306  12.346  0.0460 -0.1528 -0.2428
21393W        W38241  11.922   8.062  15.379  0.0012 -0.0034 -0.1012
21394W        W38242   8.382  10.436   1.353 -0.0865 -0.0907 -0.0141
21395W        W38243   9.206  16.129  16.437 -0.2812  0.2225  0.1361
21396W        W38244   0.862  13.019   2.816 -0.1904 -0.0570  0.0174
21397W        W38245   5.907  14.414   5.069 -0.3370  0.0519  0.1377
21398W        W38246  11.807  14.891   1.084 -0.1222 -0.0731  0.1162
21399W        W38247   9.768   8.453   1.135  0.0704 -0.0837 -0.3528
21400W        W38248  15.006   3.434   3.157 -0.2586  0.0241  0.2657
21401W        W38249  16.206  10.322   2.999 -0.1315 -0.0954  0.2280
21402W        W38250  14.732   5.036  11.599 -0.2021 -0.1819 -0.1375
21403W        W38251   8.773  12.613  16.288  0.1255  0.0096 -0.0564
21404W        W38252  12.628  10.993   5.582 -0.1885 -0.0969  0.0699
21405W        W38253   1.332   1.124  11.600 -0.0050  0.3107 -0.0561
21406W        W38254  14.304   6.636  15.799  0.2776  0.0171  0.1095
21407W        W38255   5.409  13.398   2.253  0.3309 -0.0439  0.0882
21408W        W38256  11.167  10.201   3.518 -0.0496  0.0558  0.0747
21409W        W38257  15.732   8.472  15.049 -0.1743 -0.3184  0.1002
21410W        W38258   9.739   8.134  12.300  0.3217 -0.1561 -0.1484
21411W        W38259   4.314  12.076   1.612 -0.0234  0.0882  0.1154
21412W        W38260   0.219   1.734   1.839  0.0289  0.0397  0.0221
21413W        W38261   3.488   8.894   2.910  0.2289  0.0641 -0.0569
21414W        W38262  14.385  15.239  12.979 -0.2053  0.0492  0.0353
21415W        W38263   5.640   7.644   4.991  0.5923 -0.0458 -0.1530
21416W        W38264   7.248   4.744   1.694 -0.1009 -0.4070 -0.1219
21417W        W38265   7.279   0.949   1.900  0.1019  0.4468 -0.0893
21418W        W38266  15.897   4.971   3.874 -0.1487 -0.0494 -0.0110
21419W        W38267  12.528   6.588  11.694  0.0554 -0.0010  0.0491
21420W        W38268   3.831  15.610   4.078  0.1474  0.1241  0.2949
21421W        W38269   8.458   6.955   1.752 -0.0042  0.1434 -0.5597
21422W        W38270  12.381   8.271  14.425 -0.1489  0.2619 -0.0864
21423W        W38271  11.469  11.387   3.196 -0.1797 -0.1043  0.2251
21424W        W38272   0.455   8.322  15.938  0.0169  0.1243 -0.2313
21425W        W38273   1.024   5.686  12.311  0.1770 -0.0453  0.1706
21426W        W38274   4.149  14.501   1.532  0.2232 -0.2847  0.2339
21427W        W38275  11.483  12.293   5.149  0.2996  0.0082  0.0405
21428W        W38276  14.679   7.634  13.553  0.3681 -0.0459 -0.1528
21429W        W38277  14.459   8.739  13.522  0.0442  0.0758 -0.6046
21430W        W38278   7.519  11.933   1.339 -0.0666 -0.2416  0.2078
21431W        W38279   4.256  10.157  14.027 -0.2314  0.1701  0.1656
21432W        W38280   5.113   3.220   2.562  0.1260  0.0439 -0.2560
21433W        W38281   3.716   5.129  16.625  0.1523  0.1327  0.0019
21434W        W38282   2.801   4.171  15.957 -0.0173  0.1939 -0.0307
21435W        W38283   3.347  13.571   4.485  0.0851 -0.0852  0.2148
21436W        W38284  11.305   3.866  12.922  0.0665 -0.3275 -0.1890
21437W        W38285  16.172   6.420   3.921  0.1900  0.0223  0.0933
21438W        W38286   9.153  10.672   2.086  0.2411  0.1320  0.3166
21439W        W38287  14.367  17.855   4.037  0.1024 -0.1751 -0.1081
21440W        W38288  16.830   7.601   1.400 -0.1066 -0.1773 -0.1741
21441W        W38289   6.194  15.757   0.394  0.2645  0.0345  0.0853
21442W        W38290   8.415  14.188   3.956 -0.2393  0.0927 -0.0587
21443W        W38291   2.099   2.039   1.361 -0.0306  0.0660 -0.2507
21444W        W38292  12.113  11.526  16.318 -0.1519 -0.1274 -0.2592
21445W        W38293  14.045   2.721  12.114 -0.0327  0.1911 -0.1126
21446W        W38294   9.611   0.912   4.756 -0.0195  0.0295 -0.0954
21447W        W38295  13.440  17.404   0.614 -0.1383 -0.1212  0.1251
21448W        W38296   4.630   7.652  10.515 -0.1296 -0.0061  0.1361
21449W        W38297   4.971  13.701   5.814  0.0637 -0.1962  0.1326
21450W        W38298  16.990  11.248   4.532  0.0864 -0.0082 -0.0372
21451W        W38299   8.267   1.325  16.292  0.0633 -0.0687 -0.1478
21452W        W38300   6.861  12.360   4.644 -0.2469  0.1380  0.3734
21453W        W38301  10.428   2.176  14.716  0.0063  0.1461  0.0301
21454W        W38302   6.807   9.583  12.591  0.0943  0.2661 -0.2571
21455W        W38303  17.411   1.922  12.644  0.2485 -0.2898  0.1329
21456W        W38304   6.476  16.875   5.279 -0.2182 -0.0995 -0.1902
21457W        W38305   0.151  17.107  13.101  0.0945 -0.2682 -0.1419
21458W        W38306  13.004  13.170   2.806  0.1039 -0.1072 -0.1508
21459W        W38307  14.069  15.663  16.091 -0.0162 -0.0286 -0.0999
21460W        W38308  10.202   4.038   5.029  0.0103  0.2286 -0.0880
21461W        W38309   2.660   2.977   5.217 -0.2325  0.0221  0.0549
21462W        W38310   2.751   1.994  14.560  0.0315  0.1295  0.0659
21463W        W38311  14.985  15.846   4.065  0.4520 -0.3263 -0.2974
21464W        W38312  10.297  14.162   1.293  0.1236  0.0058  0.0710
21465W        W38313  12.826   9.413   1.743 -0.0522 -0.1049  0.0477
21466W        W38314  15.073   9.643  15.734  0.2980 -0.1442  0.3283
21467W        W38315  12.856  16.786  12.134 -0.0347  0.0552  0.0685
21468W        W38316  10.914  12.092  10.557  0.1616  0.1009  0.4757
21469W        W38317   2.659  12.657  10.996 -0.2320 -0.1017  0.3763
21470W        W38318   0.527   3.329   2.944  0.2409 -0.0934  0.2438
21471W        W38319   1.472  13.858   3.942  0.0334 -0.0897 -0.0177
21472W        W38320   3.455  11.340   3.926 -0.0218 -0.3197  0.1680
21473W        W38321   4.585   4.517  16.370 -0.2511 -0.0955  0.2403
21474W        W38322  14.742   3.967   1.410  0.0374 -0.2427 -0.1219
21475W        W38323   1.859  11.933  15.953  0.1803  0.0198  0.3863
21476W        W38324  15.336   4.629  15.448 -0.1471  0.5050 -0.2228
21477W        W38325   2.714   6.307   2.342  0.1767  0.1922  0.1962
21478W        W38326  16.087   0.945   4.341  0.0883 -0.6312  0.1069
21479W        W38327   3.672   6.925   2.458  0.0910  0.0982  0.2317
21480W        W38328  17.506   6.404   3.425 -0.2006  0.0662  0.4783
21481W        W38329  10.964  14.487   3.970  0.2668  0.3121  0.2453
21482W        W38330   3.781   2.319   1.848 -0.1067 -0.0044  0.1688
21483W        W38331  14.135   0.432   0.027  0.2238 -0.1532  0.0732
21484W        W38332  11.410   3.852   1.370 -0.0187 -0.0882  0.0598
21485W        W38333   5.890   6.067  14.955 -0.0287  0.1140 -0.2894
21486W        W38334   0.672  13.781  11.976 -0.0328  0.1020 -0.3666
21487W        W38335   5.424   0.855   2.446  0.0626  0.2981  0.0262
21488W        W38336   6.377   3.270   1.748  0.0594  0.1624  0.1184
21489W        W38337   9.681   5.079   2.164  0.3154 -0.1670  0.2147
21490W        W38338  14.886   0.370   3.328  0.2837  0.0016  0.1361
21491W        W38339  11.711  17.070   2.936  0.1354  0.2521  0.2101
21492W        W38340  10.463  16.294  15.183  0.2393 -0.1498  0.1693
21493W        W38341  14.911  13.791   1.319 -0.0256 -0.0854 -0.1974
21494W        W38342   0.923   2.772   1.848  0.3095  0.6533  0.1716
21495W        W38343  12.812  13.298   1.223  0.0976  0.0047 -0.1105
21496W        W38344   4.163   8.587   3.522  0.0658 -0.1359  0.2455
21497W        W38345   8.694   8.238  12.713 -0.0501  0.2372 -0.1171
21498W        W38346  14.432  17.274  14.038 -0.2561 -0.0761  0.1344
21499W        W38347   1.480   6.176   1.034  0.2055 -0.0676 -0.1819
21500W        W38348   4.945   6.945   0.763 -0.1901 -0.3809  0.2861
21501W        W38349   2.610   6.325  15.479  0.2706 -0.0220  0.0488
21502W        W38350  15.247   8.644   1.498  0.2178 -0.2304 -0.0688
21503W        W38351  16.426   6.978  11.872  0.0980  0.0543  0.1462
21504W        W38352   7.054  11.801   4.663 -0.0825 -0.2412  0.1229
21505W        W38353   6.750   3.668  11.580  0.2364  0.2817  0.3321
21506W        W38354   8.338   9.048   2.505  0.0329 -0.0821 -0.0546
21507W        W38355  12.629   7.333  16.054 -0.0487 -0.2153  0.2128
21508W        W38356   3.238  11.406  15.896  0.2419 -0.1287 -0.2937
21509W        W38357   4.069   4.752  16.014  0.2048  0.0474 -0.0563
21510W        W38358  12.795   4.990  12.679 -0.1686  0.0196 -0.1260
21511W        W38359  13.986   9.479  14.487  0.0951  0.0513 -0.3888
21512W        W38360  10.396  17.367  15.089 -0.1994 -0.0635 -0.0672
21513W        W38361   5.931   1.298  12.557 -0.3016 -0.1247 -0.4129
21514W        W38362  17.164  10.002   0.536 -0.1572  0.0823 -0.2947
21515W        W38363  12.225   1.768   3.448 -0.2168 -0.1225  0.1148
21516W        W38364  16.159   3.788   4.698 -0.1437 -0.0650  0.1703
21517W        W38365   8.948  17.289   4.390 -0.2466  0.1980  0.4737
21518W        W38366  13.530  14.812   1.911 -0.1069 -0.1858  0.5045
21519W        W38367  16.282   7.749  15.101  0.0264  0.1410  0.0307
21520W        W38368  10.792  11.572  15.937 -0.0545  0.0774  0.1735
21521W        W38369   5.551   1.790  15.826  0.1359  0.0014  0.1463
21522W        W38370   6.102   4.403   2.302 -0.1278  0.0741 -0.1050
21523W        W38371   3.975  14.277  14.260 -0.2605  0.0796 -0.2479
21524W        W38372  11.297   3.093   1.161  0.1958  0.2396  0.1511
21525W        W38373   0.622  10.676   2.960  0.1535 -0.2139  0.0533
21526W        W38374  16.964   0.996   4.598 -0.0188  0.0694  0.0856
21527W        W38375   6.581   3.101   3.850 -0.1048  0.1286  0.2295
21528W        W38376   9.561   8.386  12.773  0.1000 -0.2399  0.0730
21529W        W38377  16.345  17.542   0.703  0.1319  0.0475 -0.1119
21530W        W38378   8.089   6.557  14.227  0.0602  0.2914 -0.1662
21531W        W38379   1.028  12.413  16.515 -0.4164 -0.2112  0.0531
21532W        W38380   8.762  13.119  12.943  0.1193  0.0937  0.1528
21533W        W38381  13.143   2.841   0.908 -0.2398 -0.0532 -0.0794
21534W        W38382  14.284  16.169  15.093 -0.0007  0.0503  0.1335
21535W        W38383   1.964   4.984   4.833  0.1240  0.0656 -0.0729
21536W        W38384   6.519   6.753   2.229  0.2065  0.0244 -0.3966
21537W        W38385  13.455   4.366  15.257  0.1586 -0.1734  0.2080
21538W        W38386   1.625   1.819   0.138 -0.0391  0.1826  0.0088
21539W        W38387   0.276  17.143   3.740 -0.0761 -0.4344  0.0874
21540W        W38388  12.187   8.763   2.756 -0.3218  0.3239 -0.1015
21541W        W38389   0.336  10.604  15.539  0.1360 -0.1269  0.0359
21542W        W38390  15.501  10.691  15.933 -0.0957 -0.0157 -0.1321
21543W        W38391   7.842   6.738  16.296 -0.3405 -0.1460 -0.0374
21544W        W38392   3.722  15.143   3.239  0.0004 -0.2985  0.1474
21545W        W38393  13.594   3.542   4.440 -0.0681 -0.0259  0.0411
21546W        W38394   0.697   3.203  13.152  0.5032  0.0528 -0.0684
21547W        W38395   1.216  14.138  15.750  0.1565 -0.2466 -0.1608
21548W        W38396   0.991   0.996   2.767  0.0818  0.4301 -0.1575
21549W        W38397   3.666  14.290  16.072 -0.1705 -0.1530 -0.2587
21550W        W38398   3.480   5.155  10.745  0.5231 -0.2129  0.2542
21551W        W38399  12.477   9.150   3.846 -0.0257 -0.1048  0.0755
21552W        W38400   8.326  17.002  14.390 -0.1944 -0.0854 -0.4772
21553W        W38401   5.517  16.957  10.446  0.1602  0.0281 -0.0449
21554W        W38402   5.321   5.503  15.679 -0.3180 -0.0100 -0.0982
21555W        W38403  12.900   3.996   3.397  0.4213  0.1746 -0.1439
21556W        W38404  14.823   6.107  14.512 -0.3335 -0.0334  0.1184
21557W        W38405   5.632   8.272  13.682 -0.0244 -0.2342  0.1330
21558W        W38406  13.418   8.343  15.224  0.0719  0.3027  0.1991
21559W        W38407  16.813   0.681  11.222 -0.2217 -0.0981 -0.0788
21560W        W38408  12.163  13.981   3.953 -0.0781  0.0214  0.0746
21561W        W38409   1.554   7.815   2.439  0.0402 -0.0473  0.0293
21562W        W38410   4.902  14.586  16.214 -0.2483  0.2875 -0.0859
21563W        W38411   1.902   4.413  11.739  0.1644  0.2412 -0.1942
21564W        W38412  17.847  17.198  16.056 -0.0292 -0.1304 -0.4309
21565W        W38413   0.653  13.637  13.232  0.0213 -0.5351  0.2307
21566W        W38414   9.772   7.032  16.235 -0.1816  0.2671 -0.2360
21567W        W38415  16.379  16.683   3.221  0.0093 -0.0422 -0.1322
21568W        W38416  16.252  16.059   0.304 -0.0151 -0.1160  0.3118
21569W        W38417  15.691  12.791  12.119 -0.0127  0.2940 -0.0079
21570W        W38418   6.374  15.736  12.288 -0.0872  0.0808  0.5685
21571W        W38419   8.465  12.512  14.701  0.2338  0.0222  0.2186
21572W        W38420  14.033   0.808   1.315 -0.0323  0.1073 -0.0210
21573W        W38421  12.139   4.163  11.406 -0.0843  0.1015 -0.1905
21574W        W38422   1.501   3.652   3.665 -0.3860  0.1233 -0.0283
21575W        W38423   5.775   1.913   1.085 -0.0496 -0.0045  0.1808
21576W        W38424  17.170  11.490  16.209  0.0223 -0.0807  0.1158
21577W        W38425   8.163   6.995   0.816  0.1952  0.0109  0.2431
21578W        W38426   4.934  17.202  15.553  0.1234 -0.1494 -0.1001
21579W        W38427   8.154  15.781   3.784 -0.0794 -0.3389 -0.1012
21580W        W38428   2.586   7.257  14.307 -0.3047  0.0473  0.1694
21581W        W38429   7.441  16.297   1.398  0.2571 -0.1832  0.0576
21582W        W38430  12.843  11.236   2.054 -0.2022 -0.0178 -0.2508
21583W        W38431  13.845   3.131  16.316 -0.0138  0.3173  0.1358
21584W        W38432   7.382   9.044   1.525 -0.0713  0.0618  0.2845
21585W        W38433   9.181   6.575  16.477  0.2735  0.3794 -0.2608
21586W        W38434   9.982   8.249   1.535 -0.0596  0.2324 -0.1671
21587W        W38435  10.425   5.832   5.009 -0.0136  0.2148 -0.0880
21588W        W38436   7.630  11.741  16.042  0.0290  0.3771  0.1683
21589W        W38437  12.778  11.232   1.119 -0.3252 -0.0458 -0.2766
21590W        W38438   5.430  13.854  14.086 -0.0038 -0.0521 -0.2444
21591W        W38439  14.388  11.938   3.713  0.4099  0.0694 -0.0527
21592W        W38440   6.839   6.177   1.568 -0.1566 -0.1352 -0.1631
21593W        W38441  16.342  10.395  11.059  0.0615  0.0446 -0.1026
21594W        W38442   6.111  14.513   0.766  0.0953 -0.1762  0.2885
21595W        W38443   0.154   7.806  13.287  0.0353  0.0441  0.0164
21596W        W38444  10.800  17.808   2.786  0.0337  0.1679  0.3521
21597W        W38445  17.100   0.471  15.062  0.1373 -0.0422 -0.0218
21598W        W38446   3.201  10.035  13.654 -0.1144  0.1442  0.0514
21599W        W38447   2.666   8.156  13.261  0.1388  0.0281 -0.1965
21600W        W38448  13.704   4.671  14.895  0.2018  0.1690 -0.1442
21601W        W38449   8.315  12.189   0.874 -0.1196  0.0750 -0.1306
21602W        W38450   9.338  14.040  11.993  0.3141 -0.1100  0.0013
21603W        W38451   2.142  10.104  12.069  0.0129  0.2044 -0.0522
21604W        W38452  10.156  17.576   1.204  0.0927  0.0751 -0.1097
21605W        W38453   8.122   1.231  14.082  0.3760  0.3149 -0.2367
21606W        W38454  16.219  12.647  11.514  0.1020  0.2179  0.0798
21607W        W38455   0.017  10.490  15.910 -0.2472  0.0782  0.0102
21608W        W38456  16.147  13.379   0.776 -0.2353 -0.1106  0.0160
21609W        W38457   6.513  16.700   3.986  0.1369  0.2137  0.0787
21610W        W38458   5.928   8.569  12.032 -0.0395 -0.0166 -0.0344
21611W        W38459   1.215  15.217   4.363  0.0319  0.2452  0.2766
21612W        W38460  11.256  14.732  15.918  0.2519 -0.4259  0.0176
21613W        W38461   6.095  14.942  16.113  0.2966 -0.4372 -0.1288
21614W        W38462   9.825   3.792  12.206 -0.3455  0.1305 -0.2705
21615W        W38463   4.980   0.937  15.876 -0.1244  0.0830 -0.0766
21616W        W38464   6.776  17.142   1.627  0.0715  0.1921  0.1767
21617W        W38465  11.141   7.025   2.072 -0.0480 -0.1313 -0.2143
21618W        W38466   6.575   8.961  12.111 -0.1236 -0.1625 -0.0791
21619W        W38467  10.293  10.067   2.830  0.1586 -0.2421  0.2921
21620W        W38468   6.994   2.234   2.243 -0.0064 -0.0041 -0.0493
21621W        W38469  16.450  11.602   4.512 -0.1824 -0.1625  0.0540
21622W        W38470  13.919  12.612  15.028 -0.1214  0.1490 -0.0500
21623W        W38471  14.265   0.793   0.373  0.3705 -0.0096 -0.1345
21624W        W38472   8.898   6.238  12.966 -0.0490 -0.1974 -0.0995
21625W        W38473   9.904   8.815   4.478  0.1671  0.3367  0.1213
21626W        W38474   1.007  17.109  13.045 -0.0835  0.2333 -0.1541
21627W        W38475  10.643  17.111  12.370 -0.1668  0.2407 -0.2472
21628W        W38476  14.952   0.849   5.505  0.2355 -0.1649  0.1486
21629W        W38477  10.280   2.364  13.471 -0.2750  0.0353  0.0014
21630W        W38478  13.646   8.901   0.755 -0.0311  0.0012  0.1495
21631W        W38479   1.604  15.449  11.822  0.2511 -0.0998  0.1676
21632W        W38480   9.974  14.933  15.397 -0.0135  0.2149 -0.1843
21633W        W38481   6.417   7.027  12.382 -0.0657 -0.1937 -0.0061
21634W        W38482   3.296  13.374   1.545  0.1273 -0.1438 -0.1788
21635W        W38483  15.949   9.131  12.752 -0.1836 -0.1175  0.2128
21636W        W38484   4.707   9.808   5.981 -0.1514  0.2914 -0.4077
21637W        W38485  16.570   6.959  15.211 -0.1542  0.0735 -0.1634
21638W        W38486  16.110   8.853  15.156  0.0058  0.2047 -0.0722
21639W        W38487  12.149  11.394  14.217  0.0293  0.1307  0.0290
21640W        W38488  17.600   8.102   1.964 -0.0468  0.0464  0.0458
21641W        W38489  15.273   6.119   4.383 -0.1369 -0.1979 -0.1413
21642W        W38490   6.852   9.857   0.492 -0.1854  0.2154 -0.1143
21643W        W38491  16.802   1.603  12.719 -0.0778 -0.1048 -0.2527
21644W        W38492  10.111   7.765  11.678  0.0227  0.1648  0.0857
21645W        W38493   4.749  15.153  12.184  0.0562 -0.1092 -0.0860
21646W        W38494   9.619   4.362   3.100  0.1240 -0.0763 -0.1395
21647W        W38495  15.334  16.867  13.376 -0.0421 -0.2014  0.2204
21648W        W38496   8.847   7.366   1.743 -0.1019 -0.2932  0.1887
21649W        W38497  14.208  15.175   3.696 -0.0196 -0.0582  0.0927
21650W        W38498  17.016   5.929  15.806 -0.2066 -0.1052  0.1662
21651W        W38499   9.805  16.646  15.882  0.0612  0.0262 -0.4104
21652W        W38500  11.526  10.257   2.234  0.2010 -0.2772 -0.0222
21653W        W38501  12.086   1.927  14.947  0.3633 -0.4869  0.3901
21654W        W38502  12.265  17.083  15.081 -0.0512  0.0342 -0.0139
21655W        W38503  13.928   7.798  12.983 -0.2030 -0.4053  0.0230
21656W        W38504  17.125   8.066  12.964 -0.0370 -0.0339  0.0028
21657W        W38505  11.500  11.821   5.384  0.1021  0.0410  0.2414
21658W        W38506   9.023  11.093  14.883 -0.0286 -0.0209 -0.4914
21659W        W38507  14.573   8.397  15.405  0.1379 -0.2244 -0.1101
21660W        W38508  10.212  17.577  12.193  0.2017 -0.0194  0.0489
21661W        W38509   0.133   1.705   5.647 -0.1817  0.2598 -0.0097
21662W        W38510  10.571   0.850   3.074  0.1162 -0.1686  0.3659
21663W        W38511   6.071   7.534   4.837 -0.1202  0.1088 -0.1362
21664W        W38512  10.616   9.606  12.018 -0.3807  0.4570 -0.1985
21665W        W38513   1.028  12.070  13.958  0.1030  0.2517  0.2231
21666W        W38514  14.663  11.928   4.654  0.0924 -0.1163  0.2431
21667W        W38515  14.536  11.740  16.574  0.0362  0.0692 -0.1426
21668W        W38516  14.095   8.268  14.496 -0.0238 -0.1430  0.0603
21669W        W38517  16.370  10.209  15.050 -0.1367  0.0040  0.2906
21670W        W38518   7.475   6.209  15.389 -0.0940  0.4747  0.0228
21671W        W38519  14.005  10.371  15.371 -0.0569 -0.1430  0.0952
21672W        W38520   8.636   9.245  13.812  0.1203 -0.1513 -0.2057
21673W        W38521  14.113   3.827   0.234 -0.4214 -0.0198  0.0955
21674W        W38522  17.507   1.998   3.842  0.0290 -0.2416 -0.6308
21675W        W38523  16.617  13.920   4.156  0.3615  0.0819  0.3939
21676W        W38524  14.023   1.428  13.334 -0.0996  0.0958 -0.2038
21677W        W38525  13.721  14.734   4.813 -0.1239  0.0305 -0.1471
21678W        W38526  10.186   9.579   1.932  0.0969 -0.1331  0.0230
21679W        W38527  12.340  14.775   5.455 -0.0232  0.0579  0.0560
21680W        W38528   5.780  15.286   2.245 -0.1487 -0.0451  0.1079
21681W        W38529  13.677   8.492  15.715  0.1748  0.0460 -0.1996
21682W        W38530  14.394  16.037  16.057  0.1133 -0.0575  0.0588
21683W        W38531   3.451   0.080   1.260  0.2947 -0.0619  0.0166
21684W        W38532   1.002   7.749   4.650 -0.0368 -0.1243 -0.0981
21685W        W38533  14.350   4.111  14.933 -0.2378  0.0324 -0.0182
21686W        W38534   7.406   5.043   2.226  0.0928  0.0666  0.1130
21687W        W38535  10.651   7.084  14.498 -0.1393  0.0479  0.0024
21688W        W38536   4.159   0.310   2.170 -0.1054 -0.1937  0.0419
21689W        W38537   8.324   5.631  11.888  0.0341 -0.2012 -0.0205
21690W        W38538  15.118   5.681  14.986 -0.2099  0.0942  0.0244
21691W        W38539  12.066  14.297   2.788  0.0167 -0.0685  0.2761
21692W        W38540  13.242   0.055  14.367 -0.1022  0.3602 -0.1632
21693W        W38541   2.041  10.703  16.393  0.1437  0.1377 -0.2965
21694W        W38542  12.336  11.507  12.128 -0.1314  0.0063 -0.2866
21695W        W38543   5.899   4.411   4.068 -0.0018  0.1575 -0.0014
21696W        W38544   1.753   0.349   0.193  0.0361 -0.2021 -0.0059
21697W        W38545   6.230  17.777  15.700  0.1897 -0.0199 -0.1320
21698W        W38546   8.517   6.663  11.269 -0.4212 -0.1836  0.0616
21699W        W38547   8.067   3.239  12.188 -0.3167 -0.0431  0.0468
21700W        W38548  16.141   2.443  15.653  0.4418  0.1922  0.0636
21701W        W38549  11.835  14.404   3.812 -0.1355  0.0133  0.3077
21702W        W38550   9.012  12.726  11.508  0.0167 -0.0277  0.0564
21703W        W38551   6.018  14.871   0.422 -0.1671  0.2578 -0.2337
21704W        W38552  10.820  10.137   4.668  0.0002 -0.1627  0.1277
21705W        W38553  13.310   9.486  12.928 -0.0797  0.3383  0.0919
21706W        W38554  11.438   9.633  13.960  0.4050  0.1045  0.0869
21707W        W38555   5.263   1.132   3.150 -0.0005 -0.0494 -0.0519
21708W        W38556   6.365   5.347   5.124 -0.4099 -0.1483  0.0932
21709W        W38557  15.735  16.657  16.604 -0.0512  0.2183  0.2223
21710W        W38558  16.549   5.181  13.193 -0.2053  0.2520  0.1805
21711W        W38559   9.990   8.612  14.949 -0.1951 -0.0255  0.0558
21712W        W38560   6.291   5.368   4.623 -0.1768 -0.0877 -0.0177
21713W        W38561  10.509   4.408   2.877  0.1516 -0.2682  0.0171
21714W        W38562  10.325   8.303  13.313 -0.1450  0.0578  0.0211
21715W        W38563   6.771   1.264   3.041 -0.1187 -0.0216 -0.1225
21716W        W38564   6.127   0.367   4.090  0.2397  0.2165 -0.2028
21717W        W38565  11.006  14.591   0.018 -0.3946 -0.0179 -0.0335
21718W        W38566   3.446   2.404  14.044  0.0206  0.0222  0.0668
21719W        W38567  11.553   7.261   5.619  0.1014  0.0102  0.1855
21720W        W38568   7.494   6.923   3.807 -0.1163 -0.0694 -0.0053
21721W        W38569  11.243   2.133  12.465  0.1288  0.2459 -0.0161
21722W        W38570   9.415  10.658  12.902 -0.3237  0.1084  0.0603
21723W        W38571   2.444  16.070  12.984 -0.0907 -0.1002 -0.1473
21724W        W38572   8.234   8.125  12.318  0.1922 -0.1851  0.0978
21725W        W38573  10.613   9.460  12.800 -0.0733 -0.1371 -0.1249
21726W        W38574  15.020   1.616  12.795 -0.1049  0.1319 -0.0479
21727W        W38575   4.401   6.497  11.442  0.2390  0.2320 -0.1733
21728W        W38576   4.292   2.493   0.511 -0.3347  0.0299 -0.0958
21729W        W38577  12.310  11.090  13.045  0.1111  0.2880 -0.1463
21730W        W38578  12.529   4.507  11.584  0.1213 -0.0244 -0.1123
21731W        W38579  10.766   0.765  15.811 -0.1610 -0.3227  0.0613
21732W        W38580   7.215   5.330   2.983  0.1526  0.0272 -0.0639
21733W        W38581  15.436   9.831   1.179  0.0050  0.0605  0.0593
21734W        W38582   3.799   4.669   4.255 -0.1501 -0.1073 -0.2306
21735W        W38583   9.328   9.281  13.151 -0.0771  0.0717  0.0720
21736W        W38584   1.776  16.833   3.072 -0.0042  0.2907 -0.1341
21737W        W38585  11.947   5.516  11.830 -0.3171  0.3033  0.2394
21738W        W38586  15.497  10.717   3.560  0.1158  0.3524  0.1822
21739W        W38587   5.114  12.866   4.330  0.2357  0.1604  0.0218
21740W        W38588   4.179  15.874  12.713 -0.1724  0.3689 -0.0381
21741W        W38589  17.537  16.729  13.640  0.2088  0.1650  0.3072
21742W        W38590   2.247  17.341   3.298  0.1181 -0.2673  0.2896
21743W        W38591  15.971  12.209  14.488  0.0348  0.2191 -0.3253
21744W        W38592   7.607   0.137  16.581 -0.1391  0.2818 -0.0523
21745W        W38593   6.835  17.435   3.203 -0.0672 -0.2370 -0.1720
21746W        W38594  11.191  12.430  12.382 -0.3391  0.2703 -0.2218
21747W        W38595  13.945   6.240   3.433  0.0690  0.1199  0.0782
21748W        W38596   7.831  13.414   0.244  0.0748  0.0911  0.2745
21749W        W38597   3.805  15.578  12.278  0.0575 -0.1484  0.2254
21750W        W38598   0.782   1.996   1.049  0.1267  0.3866  0.1125
21751W        W38599   1.358   0.768  13.772 -0.0185 -0.3136  0.1382
21752W        W38600  13.369  11.104   3.237  0.0476  0.0939  0.1539
21753W        W38601  16.918  11.156   1.677 -0.1895  0.1495  0.0050
21754W        W38602  11.400  10.454  12.995  0.0021  0.2769  0.0737
21755W        W38603   7.040   0.903   0.947 -0.0258 -0.1747  0.0977
21756W        W38604  15.541  15.406   1.992  0.1937  0.4145 -0.2318
21757W        W38605  11.706   3.234   4.470  0.2405  0.1480 -0.1556
21758W        W38606   2.676   8.030  15.374 -0.0299 -0.1356 -0.0148
21759W        W38607   6.209   3.589  11.791  0.0839 -0.0204  0.0186
21760W        W38608  11.684  13.883   2.548 -0.1331 -0.0575  0.3653
21761W        W38609  14.111   1.566  13.911  0.2728 -0.2583  0.1273
21762W        W38610  17.582  16.857  13.018 -0.0225  0.1097  0.0991
21763W        W38611  15.732  10.379   4.295 -0.2401  0.1962  0.0881
21764W        W38612  10.906  14.585   4.929  0.0560  0.0667 -0.0433
21765W        W38613   3.018   4.292  11.755  0.0046  0.2864  0.2552
21766W        W38614   7.324   1.519   5.074  0.2514  0.1734  0.0048
21767W        W38615  12.228  13.125  12.745 -0.0954 -0.0590 -0.0368
21768W        W38616   6.612   3.406   0.882  0.2892  0.2981  0.0245
21769W        W38617  17.469   6.368   0.408 -0.1574 -0.1302 -0.3050
21770W        W38618   0.398   4.952  15.737  0.2187 -0.0521 -0.0512
21771W        W38619   7.239   5.549   5.011 -0.1799 -0.0320  0.2234
21772W        W38620   0.226   5.266   4.759 -0.0007 -0.2436 -0.0610
21773W        W38621  17.282   4.903  13.050  0.0584  0.0409 -0.2105
21774W        W38622  14.818  14.006  15.204  0.3249  0.1624 -0.1013
21775W        W38623   1.391   6.084   4.829 -0.0974  0.0820 -0.1281
21776W        W38624   6.268   9.698   1.199  0.1389  0.3079 -0.1315
21777W        W38625  17.748  11.842  14.786  0.2597  0.2628 -0.2602
21778W        W38626  17.383  13.779  12.062 -0.0656  0.2258 -0.0695
21779W        W38627   8.930   2.515   0.678  0.2479 -0.1791  0.1299
21780W        W38628   0.777  10.810  14.747  0.0717  0.0050  0.2427
21781W        W38629  10.774   7.541  14.815 -0.1883  0.0762 -0.2323
21782W        W38630   1.285   0.410   6.178 -0.0197 -0.1703  0.0192
21783W        W38631  16.285   6.903  13.261 -0.2178  0.0226  0.0407
21784W        W38632   0.957  14.635  16.458 -0.1677 -0.0228 -0.1490
21785W        W38633   3.276   0.007   4.522  0.1176 -0.1402  0.0536
21786W        W38634   4.491   1.016  13.419 -0.1571 -0.1442  0.0015
21787W        W38635  15.023   5.591  14.488 -0.0280 -0.1693 -0.2833
21788W        W38636   7.703  16.468   0.186  0.0243 -0.0630 -0.0126
21789W        W38637   5.562  16.785   4.810  0.1446 -0.1279  0.1218
21790W        W38638  13.878  10.013   5.189  0.1549  0.1102  0.1539
21791W        W38639   9.770  10.579  11.358  0.0968 -0.0464 -0.2664
21792W        W38640   9.534   7.093   5.197 -0.3799 -0.1817  0.0691
21793W        W38641  14.724  11.157   1.155  0.2805  0.2025 -0.0013
21794W        W38642   2.028  16.647   1.177 -0.2532 -0.3315 -0.0660
21795W        W38643  15.669  12.646   0.350 -0.0617  0.0047  0.1445
21796W        W38644  13.686  16.479  11.947 -0.1192  0.1351 -0.2980
21797W        W38645   2.088   5.472   5.002 -0.2418  0.2536  0.2294
21798W        W38646  11.293   2.563   3.292 -0.2533 -0.1029  0.1387
21799W        W38647   2.905   4.560   4.736 -0.3301  0.0996  0.1860
21800W        W38648   8.781  12.938  11.037  0.0017 -0.0131 -0.0443
21801W        W38649   5.510  13.920   0.604  0.0618  0.0879  0.2213
21802W        W38650   2.677   4.673  12.442 -0.0450 -0.1540  0.0142
21803W        W38651  12.677   3.561   0.984  0.1499  0.2328 -0.1891
21804W        W38652   4.705   1.868   3.424  0.1687 -0.3309  0.1971
21805W        W38653  16.691  12.308   1.159 -0.0194 -0.1062 -0.1071
21806W        W38654  12.667   2.752   2.271 -0.3246 -0.1817 -0.0712
21807W        W38655   4.687  10.534   0.590 -0.1396  0.2300 -0.1565
21808W        W38656   9.350  12.195  11.342  0.0588 -0.2300 -0.2705
21809W        W38657   9.338   0.810   1.516  0.1275  0.1335  0.0901
21810W        W38658   8.865   9.682   2.078  0.1168 -0.2488  0.2519
21811W        W38659   9.121  12.680   0.463 -0.0574 -0.0636 -0.2282
21812W        W38660  17.572  14.974  15.582  0.0840 -0.1068 -0.0692
21813W        W38661   3.781   9.511   5.051  0.2934 -0.1867  0.1487
21814W        W38662  17.655  11.516  15.164 -0.2093  0.0146 -0.0178
21815W        W38663   1.595   6.676   4.229  0.1726  0.2518  0.0266
21816W        W38664   1.373   9.249   3.654  0.2130  0.0233 -0.0559
21817W        W38665   4.175  15.185   2.951  0.1079  0.0112 -0.1307
21818W        W38666   7.220   6.462   1.686  0.5313  0.0862  0.1364
21819W        W38667   2.957   0.309  14.355  0.1916  0.1355 -0.0560
21820W        W38668  12.400   6.202   5.786 -0.1186  0.0485 -0.1228
21821W        W38669  16.074   1.327   3.611  0.0030  0.1389 -0.1637
21822W        W38670   9.068  14.707  11.533  0.1758 -0.1380  0.0384
21823W        W38671  13.658  13.131   4.537  0.1977 -0.1833  0.1143
21824W        W38672  11.139   7.981  13.684 -0.0697 -0.1574 -0.1634
21825W        W38673   2.665   0.532   4.829  0.0163  0.1267 -0.1766
21826W        W38674   6.549  13.959  14.824 -0.1742  0.0272 -0.0974
21827W        W38675   5.673   5.187  14.895  0.1351  0.0340  0.0615
21828W        W38676   4.669   8.140  11.255 -0.2332  0.1539 -0.2380
21829W        W38677   0.162  14.662  12.842  0.0573  0.1648 -0.2077
21830W        W38678  12.314  17.679  15.942 -0.0246 -0.1943  0.3709
21831W        W38679  12.392  14.771  12.967 -0.2766  0.1984 -0.2855
21832W        W38680   4.534   1.192   4.137 -0.1010 -0.0506 -0.1010
21833W        W38681  16.536   6.190  13.934 -0.2517  0.1052 -0.1266
21834W        W38682  12.549  13.279  13.506 -0.0920 -0.3489 -0.1365
21835W        W38683   2.007   0.978  14.348 -0.1116  0.2419 -0.0049
21836W        W38684   2.392   8.848  16.244 -0.2962  0.1503  0.0124
21837W        W38685   5.470   6.750   0.494  0.3323 -0.3080  0.1510
21838W        W38686   8.428   1.217  15.384 -0.0006 -0.4622  0.4017
21839W        W38687  15.524   1.206   2.965  0.0545 -0.1121  0.0020
21840W        W38688   9.158   3.141   1.292 -0.0208  0.0888  0.1138
21841W        W38689  11.994   0.115  13.781  0.0685 -0.0233 -0.0700
21842W        W38690  13.381  17.647  11.727  0.2623  0.0669  0.1290
21843W        W38691  12.868   5.125  14.292 -0.1049 -0.2227  0.2162
21844W        W38692   3.275   6.518  12.756  0.0591  0.1564  0.3331
21845W        W38693   6.888   3.313   1.736 -0.0391 -0.5133  0.0865
21846W        W38694   0.435   7.487  15.507  0.2253 -0.1152 -0.2688
21847W        W38695   8.395   5.660   1.681  0.0388 -0.0949  0.1419
21848W        W38696   5.525   7.674  13.184  0.4039 -0.0515  0.0650
21849W        W38697  14.501   4.479  15.284  0.0702 -0.0201 -0.0368
21850W        W38698   0.917   1.583   3.502 -0.1609 -0.1323 -0.1633
21851W        W38699   8.418   8.567  14.880 -0.0435 -0.0873 -0.1362
21852W        W38700  11.049   6.383   2.714  0.1515 -0.2615 -0.2016
21853W        W38701  12.395   2.183  13.927  0.1746 -0.1212 -0.1434
21854W        W38702   9.994   3.969   1.757 -0.0936 -0.0058  0.1971
21855W        W38703  13.942   8.869  13.732 -0.0820 -0.2445 -0.0078
21856W        W38704  15.773   0.113   4.897 -0.2230 -0.0925 -0.0907
21857W        W38705  17.576  13.199   1.591 -0.0507  0.0247 -0.1259
21858W        W38706  14.631  12.523  15.491 -0.2305 -0.0264 -0.3070
21859W        W38707   1.714  10.086   1.367 -0.1441 -0.1334  0.0649
21860W        W38708   0.278  17.165   2.456 -0.0278  0.0717  0.0166
21861W        W38709  15.369  16.239   0.602  0.2237 -0.1012  0.1124
21862W        W38710  12.537   9.340   3.171  0.0677 -0.1216  0.0361
21863W        W38711   5.470   6.401  11.932 -0.2031  0.0174 -0.1496
21864W        W38712  12.300   6.511  14.715  0.0958 -0.0862  0.1962
21865W        W38713   2.762  12.326   1.296  0.1641 -0.0369 -0.3804
21866W        W38714   0.172  16.389   5.326 -0.2451  0.0373  0.1594
21867W        W38715  17.191   5.979  13.421 -0.3589 -0.0496  0.0407
21868W        W38716  13.926   0.084   3.180 -0.3714  0.0308 -0.0085
21869W        W38717   8.356   4.211  12.429 -0.1111  0.3365 -0.0656
21870W        W38718   1.073  12.829   3.251  0.2312 -0.2153 -0.0661
21871W        W38719  14.946   4.810   1.924 -0.3566 -0.0337  0.2244
21872W        W38720  13.315   6.666  12.191 -0.3134  0.1151  0.0304
21873W        W38721   5.909   2.172  14.866  0.2541 -0.0601  0.1810
21874W        W38722   6.719  15.782   3.566  0.2813 -0.0498 -0.0615
21875W        W38723   7.684  16.771  13.453  0.0267  0.0792 -0.1777
21876W        W38724  17.149  14.538  16.244 -0.3522  0.1110 -0.1644
21877W        W38725   6.772  12.336   3.784  0.1135 -0.1343  0.0908
21878W        W38726   6.551   4.533  13.792 -0.0459 -0.0770  0.0386
21879W        W38727   3.055   5.915  15.041 -0.3005  0.2958  0.3027
21880W        W38728   7.017  17.230  11.978 -0.1233  0.1134 -0.0028
21881W        W38729   8.407   7.524   3.993 -0.1580 -0.1942 -0.2991
21882W        W38730   7.433  16.498  13.083 -0.2226 -0.0512 -0.0576
21883W        W38731  15.373  15.688   2.396 -0.1068 -0.2319  0.0090
21884W        W38732   7.278  13.586  13.881  0.0400 -0.2929  0.1763
21885W        W38733  10.944   8.453   3.180  0.1619 -0.3477  0.0180
21886W        W38734  16.652  14.363   3.834 -0.2982  0.3770 -0.1676
21887W        W38735   5.816   7.579  11.169 -0.1630 -0.1135 -0.2021
21888W        W38736   1.840   0.730   2.821  0.1958 -0.0027 -0.1062
21889W        W38737  17.692  16.657   3.309 -0.1025 -0.1283 -0.1282
21890W        W38738  12.590   8.464  11.761  0.0431 -0.0114 -0.0313
21891W        W38739   7.229  15.386   4.671 -0.2611 -0.2359  0.0056
21892W        W38740  14.998   6.257   2.628 -0.0457  0.2515  0.0960
21893W        W38741  12.286   6.330   4.295  0.0442  0.0034 -0.0154
21894W        W38742   1.057   3.151   2.137 -0.1127  0.1120 -0.2178
21895W        W38743   7.924  14.132  13.525  0.0840  0.0849 -0.2440
21896W        W38744  13.815  17.182  12.639  0.0492  0.0403  0.1702
21897W        W38745   6.544  13.130  14.262 -0.3519 -0.0191 -0.2705
21898W        W38746   9.721   5.387  16.236  0.1415  0.1053 -0.0210
21899W        W38747  10.362  17.389   0.353 -0.0926  0.1467  0.2055
21900W        W38748   7.315  16.198   2.339 -0.1467 -0.2288 -0.0534
21901W        W38749   1.346   2.111   0.934 -0.1632  0.0868  0.0984
21902W        W38750  15.131   8.882  16.172  0.0134  0.0317  0.3222
21903W        W38751   9.164  13.534  15.353  0.0802  0.2527  0.1218
21904W        W38752  13.111   7.167   3.235 -0.2133 -0.0733  0.2642
21905W        W38753  11.692  11.804   2.899  0.3287  0.0034 -0.0422
21906W        W38754  15.867  14.292  13.266 -0.0383 -0.0580  0.0196
21907W        W38755   4.285   7.574  15.879  0.2700  0.2892  0.0912
21908W        W38756   1.045   7.547   1.740 -0.1061  0.1371  0.0719
21909W        W38757  11.704   1.986   3.267 -0.1218  0.0300  0.3060
21910W        W38758   8.383  16.891   3.117 -0.1625  0.3517 -0.1584
21911W        W38759   4.890   4.400   5.104 -0.0528 -0.2614 -0.1496
21912W        W38760  17.817   3.234  12.148 -0.3745  0.1617  0.1725
21913W        W38761   5.412  11.533  12.111 -0.3489 -0.3484  0.1931
21914W        W38762  12.429   1.687  15.515  0.0409 -0.3318  0.0564
21915W        W38763   3.539  13.348   2.990  0.2073  0.0852 -0.0130
21916W        W38764   7.351   9.050   3.179  0.0496  0.0641 -0.1791
21917W        W38765   5.698   5.511  12.359 -0.0007  0.2269 -0.0823
21918W        W38766  16.761  11.135   4.942  0.0582  0.2438  0.1022
21919W        W38767   7.545  17.311  11.791 -0.1341  0.1292  0.1783
21920W        W38768  16.644  10.295   0.790  0.1274 -0.0590  0.0260
21921W        W38769  13.292   3.738  13.481 -0.0031  0.1987 -0.1968
21922W        W38770  14.948  16.213   3.689 -0.0152 -0.0311 -0.0673
21923W        W38771  17.826   7.825  11.998  0.4074  0.0713  0.0735
21924W        W38772  12.339   4.981   1.402 -0.1862 -0.0209 -0.1709
21925W        W38773  17.667  13.983   2.317 -0.2675  0.0840 -0.3635
21926W        W38774  15.309   5.333  11.523  0.2655 -0.0303  0.2176
21927W        W38775   5.107   3.567   3.947 -0.0992 -0.3532  0.1222
21928W        W38776   1.335   8.609  14.300 -0.1096  0.1438 -0.1182
21929W        W38777   4.081   1.299   4.203  0.3963  0.0060 -0.0818
21930W        W38778  15.953  10.484   2.564  0.1789  0.1738  0.0404
21931W        W38779  14.845  17.529   3.385  0.1679  0.0422 -0.0000
21932W        W38780   4.333  13.990  15.601 -0.2268  0.1075 -0.2908
21933W        W38781   2.564  11.160  14.361  0.2527 -0.1104  0.1889
21934W        W38782   0.340   2.718  13.286  0.2512  0.0501  0.2392
21935W        W38783  14.860  17.552   2.458  0.1899  0.1424 -0.1197
21936W        W38784  13.932   2.449   4.421  0.3316 -0.0116  0.1163
21937W        W38785   8.222  13.975   5.323 -0.1938  0.2234  0.1250
21938W        W38786   1.412   2.563   4.199 -0.1827  0.0379 -0.1248
21939W        W38787  16.702   3.306   1.112 -0.1687 -0.0515 -0.0738
21940W        W38788   6.458   3.701   4.942 -0.0382  0.3029 -0.0760
21941W        W38789  13.718   3.409   5.018 -0.3198 -0.1089 -0.0854
21942W        W38790   2.223   5.136  12.598 -0.1575 -0.3796 -0.0825
21943W        W38791   0.284   3.209   4.144 -0.0695 -0.1790 -0.0705
21944W        W38792  14.568   1.268  15.759  0.0929  0.0534 -0.1633
21945W        W38793   0.782   8.685  16.481  0.1425 -0.0267 -0.0571
21946W        W38794  15.327   6.809  12.974 -0.3603  0.0436 -0.0139
21947W        W38795   3.911  16.050   1.091 -0.2376  0.2238  0.4107
21948W        W38796  10.778  13.425   2.627 -0.0054 -0.1601 -0.1801
21949W        W38797   1.894   3.305   1.016  0.1508  0.2536  0.2112
21950W        W38798  13.969   7.256   1.305 -0.0144  0.1797 -0.0037
21951W        W38799   3.907   9.156  11.190 -0.0319  0.1291  0.0803
21952W        W38800   0.950   7.854   5.140 -0.0631 -0.0428 -0.0496
21953W        W38801  15.568  12.598  11.295 -0.1486  0.3970 -0.1665
21954W        W38802  14.664  13.707  14.406  0.2063  0.1845 -0.2379
21955W        W38803  15.649   3.567  16.220 -0.1366  0.1404  0.2271
21956W        W38804   8.766  15.837   3.826 -0.3459 -0.1121  0.4482
21957W        W38805  15.748   8.409   0.778  0.2027  0.0713  0.0261
21958W        W38806   7.293   7.219  14.051  0.1832  0.1654  0.0869
21959W        W38807  16.509   7.010  10.993 -0.0827 -0.4041  0.0863
21960W        W38808  10.462   4.572  11.783  0.1717  0.1422  0.2707
21961W        W38809   0.647  10.837   2.426 -0.1536 -0.0190  0.1643
21962W        W38810  14.748   9.253  15.267 -0.3466 -0.1656  0.2630
21963W        W38811   3.477   9.876   1.990  0.0197  0.1200 -0.2538
21964W        W38812   5.501   7.278   0.404 -0.1884  0.0014 -0.2410
21965W        W38813   0.430  15.086   1.787  0.4321 -0.0766  0.0171
21966W        W38814   3.756  15.860   5.858  0.4338  0.0639 -0.3324
21967W        W38815   4.637   5.542   2.173 -0.2126  0.0359 -0.0744
21968W        W38816   7.867  17.178   0.384  0.3793 -0.0344  0.0059
21969W        W38817   5.614   6.286  14.162  0.0905 -0.0298  0.4189
21970W        W38818   9.125   4.027   4.934  0.2289  0.0554  0.1837
21971W        W38819   6.086  11.849   5.524  0.0631  0.2214  0.0140
21972W        W38820   5.740   2.497  14.509  0.0882  0.1493  0.0678
21973W        W38821   2.025   5.164  14.405 -0.1739  0.0431  0.2690
21974W        W38822  13.265   3.866   3.086  0.1116  0.4037  0.2184
21975W        W38823  16.079  16.624   2.824  0.1417 -0.1388  0.1101
21976W        W38824   4.551  13.570   3.260  0.0140 -0.0249  0.1946
21977W        W38825   0.082   5.067   2.714 -0.0517  0.1004  0.1921
21978W        W38826   6.946   0.720   3.197 -0.0153 -0.3687  0.1333
21979W        W38827   6.746  15.923  12.816  0.0465 -0.0793  0.1241
21980W        W38828   4.985  12.917  14.990 -0.0974 -0.0370  0.2106
21981W        W38829  10.964  11.481  12.628 -0.3021 -0.2808 -0.3172
21982W        W38830  16.616  11.834  10.833  0.0695 -0.2348 -0.0242
21983W        W38831   2.731  16.965  14.952  0.0580  0.0231  0.0584
21984W        W38832   9.025   0.547   1.780  0.0637  0.2302 -0.0340
21985W        W38833   5.456  12.372   3.450 -0.1670 -0.0408  0.2811
21986W        W38834  15.585   6.260  11.499  0.0563  0.0173 -0.1199
21987W        W38835   9.671  12.380  15.940 -0.0033 -0.1780  0.2181
21988W        W38836  13.218   6.183   3.771  0.2597  0.1884 -0.0778
21989W        W38837   5.389  16.401  15.319 -0.0400 -0.2590 -0.3913
21990W        W38838  13.386   8.898  12.246 -0.2873 -0.3857  0.1899
21991W        W38839   0.385   9.712  15.376  0.1180 -0.0674 -0.0529
21992W        W38840   5.676   2.919   3.599  0.1317  0.1116 -0.1888
21993W        W38841  11.805  13.202  12.501 -0.0141  0.0168 -0.1132
21994W        W38842   6.675   6.672  14.670 -0.1656 -0.1413 -0.1716
21995W        W38843   3.893   1.647  13.175  0.2517  0.0136 -0.0392
21996W        W38844   3.030   0.542  11.625 -0.0031 -0.3182 -0.0719
21997W        W38845   0.624   6.688  12.810 -0.1205  0.3639 -0.2164
21998W        W38846   4.880  13.799  15.622  0.2053  0.2165 -0.0903
21999W        W38847   8.969   2.684   2.863  0.2598 -0.1063 -0.0219
22000W        W38848   4.939   5.195  15.360 -0.1258  0.0365  0.1498
22001W        W38849   6.429  10.715  11.551 -0.2925  0.2906 -0.3123
22002W        W38850   1.941  14.013   3.197 -0.0521  0.2423 -0.2067
22003W        W38851   0.588  16.129  14.671 -0.1135 -0.5381  0.1702
22004W        W38852  12.095   3.638   2.369  0.2419  0.2190 -0.0026
22005W        W38853   5.270   0.854  11.806  0.4467  0.0842 -0.1699
22006W        W38854   7.762  11.439   4.167  0.0693  0.1659  0.2625
22007W        W38855   7.085  16.616  14.295 -0.2432 -0.0027 -0.0611
22008W        W38856  14.175   1.602   4.109 -0.0241 -0.0934 -0.0652
22009W        W38857   7.004  17.185   0.018  0.1640 -0.0872  0.2392
22010W        W38858  15.625   0.290   1.139 -0.0627 -0.0462  0.1957
22011W        W38859  11.254   8.345   3.550 -0.2411 -0.5918 -0.2127
22012W        W38860   8.626  16.479  11.971 -0.0993 -0.3161 -0.0300
22013W        W38861   8.535   8.881   4.955  0.0590 -0.3431 -0.1241
22014W        W38862   2.999  17.463   1.664 -0.1710  0.0637 -0.0788
22015W        W38863  15.495   4.418  15.041  0.1664  0.1043  0.2527
22016W        W38864   3.116   6.730  14.200  0.1741  0.1848 -0.1935
22017W        W38865   5.605   9.146  13.300 -0.2160  0.4240  0.0177
22018W        W38866  11.848  15.066   0.455 -0.2994  0.1906 -0.1256
22019W        W38867  15.902   2.702   2.687  0.3915  0.1208  0.0164
22020W        W38868   2.941  10.426  13.785 -0.1347 -0.0485 -0.3758
22021W        W38869   3.238  12.555   4.936  0.0860 -0.0038 -0.0221
22022W        W38870   1.547   1.121   3.750  0.3159  0.0547  0.4457
22023W        W38871   1.722   8.025   0.587 -0.3321  0.0411 -0.0626
22024W        W38872   7.526   8.116  14.539 -0.1855 -0.1449 -0.3367
22025W        W38873   0.598  11.899  15.890 -0.0142 -0.0343 -0.0640
22026W        W38874   0.252   0.581  15.552 -0.2771 -0.1990  0.0254
22027W        W38875   0.318   0.612  14.592  0.4803 -0.2327 -0.0111
22028W        W38876  11.937   7.145   1.881 -0.0669 -0.1273  0.0027
22029W        W38877   9.991  11.157  12.174 -0.0252 -0.2642 -0.4876
22030W        W38878  15.502  14.967   4.188  0.1643 -0.0567 -0.0321
22031W        W38879  13.688   2.106  14.356  0.1819  0.2581 -0.1419
22032W        W38880  15.764  13.359   2.243 -0.2447 -0.0475 -0.0069
22033W        W38881   2.921   3.633   2.613  0.3560 -0.2462 -0.0353
22034W        W38882  10.266   6.347  15.144  0.1053 -0.2983  0.1730
22035W        W38883  17.732  13.234  12.103  0.2375  0.0520 -0.1621
22036W        W38884  12.342   1.597  16.332 -0.1441 -0.1354  0.0786
22037W        W38885   1.236  11.582  14.379  0.1967  0.0880  0.1590
22038W        W38886  10.588  17.414   0.903  0.0763  0.2110  0.0459
22039W        W38887   6.121  15.954  15.064 -0.1162 -0.1617  0.1043
22040W        W38888   2.191   1.559   1.272  0.0064  0.0527 -0.1866
22041W        W38889   0.165   0.687   5.084  0.0164 -0.1474 -0.1071
22042W        W38890   7.944   6.275   3.071 -0.0536  0.1757 -0.2828
22043W        W38891   3.673   8.276  13.733 -0.0762  0.1625  0.4095
22044W        W38892  13.634  11.128   2.297  0.2260 -0.1259  0.0012
22045W        W38893   7.144   0.853  10.600 -0.1145  0.2416  0.1750
22046W        W38894  10.813   6.152  14.687 -0.1038  0.3074 -0.0670
22047W        W38895   9.172  15.339  14.353  0.2395 -0.0986  0.3223
22048W        W38896  14.833   8.029  13.284 -0.0803  0.2492  0.1872
22049W        W38897   9.666  14.036   2.556  0.1361  0.3753 -0.1448
22050W        W38898   3.679  15.381  15.260 -0.0239 -0.0032  0.2503
22051W        W38899   9.466   3.008  10.581 -0.2659  0.1577 -0.4071
22052W        W38900  12.373  14.186  11.934 -0.1385  0.3177  0.1979
22053W        W38901   5.750  11.960  16.601 -0.4862  0.3386  0.3628
22054W        W38902   8.891  11.400  12.693  0.0968  0.0729  0.0395
22055W        W38903   3.976   0.612   0.463 -0.0108  0.4108  0.1028
22056W        W38904   7.434   4.521  15.159 -0.2866 -0.0592  0.2163
22057W        W38905   2.974   2.074   5.185 -0.0586  0.0602  0.0883
22058W        W38906  10.906   4.891   3.750 -0.2380  0.2223 -0.4325
22059W        W38907  16.936  12.621   2.454 -0.1228 -0.0224  0.3668
22060W        W38908   3.662   4.546  16.255 -0.2497 -0.0954  0.0854
22061W        W38909  15.194   6.177  15.221  0.4910  0.1034  0.0279
22062W        W38910   4.042   5.501  13.130  0.0021  0.1584 -0.3021
22063W        W38911  13.649  11.288  15.007 -0.1811 -0.1464  0.0629
22064W        W38912   2.076   3.626   5.246  0.0466  0.1953 -0.0488
22065W        W38913  15.653   2.406   1.699 -0.0969  0.0210  0.0421
22066W        W38914  10.788   5.143   0.325  0.2219 -0.0480  0.1079
22067W        W38915  12.176   2.248   4.785 -0.1711 -0.0904  0.0976
22068W        W38916  14.695  15.215   3.589  0.2812 -0.1173 -0.1882
22069W        W38917   8.710   3.823  12.406  0.0434 -0.0409  0.2555
22070W        W38918   0.224  15.666  11.200 -0.2004  0.3779 -0.1782
22071W        W38919   5.070  10.740  13.298  0.0160  0.0138 -0.1833
22072W        W38920  12.228   1.103  16.420  0.0957 -0.1632  0.2285
22073W        W38921  17.529  14.382   3.358  0.2649 -0.1435  0.0348
22074W        W38922  10.925   3.294   3.784 -0.2327 -0.3169 -0.0674
22075W        W38923  16.061   7.639   0.896 -0.0780  0.1226 -0.1369
22076W        W38924  12.974   4.614  14.465 -0.1606  0.1790  0.1949
22077W        W38925  17.060  16.359  16.178  0.1329  0.0314  0.1499
22078W        W38926  16.565   4.681   3.294  0.1900 -0.3807  0.0956
22079W        W38927   0.032  11.981   5.274  0.0576  0.2435  0.0659
22080W        W38928   9.065  11.457   3.874  0.1228  0.0593 -0.2680
22081W        W38929  13.098   3.363  12.320  0.0733 -0.1780 -0.1409
22082W        W38930   7.276  16.397  13.604  0.1523 -0.0986 -0.1771
22083W        W38931  10.940  15.842   5.208 -0.4520 -0.1027 -0.0954
22084W        W38932  15.620   0.282  11.356 -0.0997 -0.2494 -0.2943
22085W        W38933  15.114  14.391  14.868 -0.0645 -0.1061  0.1608
22086W        W38934  11.931   4.083  12.966  0.1520  0.1379  0.0259
22087W        W38935  15.695  10.896   0.208  0.0372  0.3244 -0.2570
22088W        W38936   7.795  14.557   0.953  0.0824  0.0450  0.3400
22089W        W38937   3.367  11.711  11.675  0.1505  0.0803  0.0503
22090W        W38938  12.120   3.791  11.729 -0.0880  0.1297  0.0496
22091W        W38939  17.679   0.061   3.767 -0.1130 -0.0593  0.1653
22092W        W38940   8.743  10.760   2.624 -0.0823  0.0357  0.0098
22093W        W38941   2.359  12.083  16.523 -0.0415  0.0589 -0.0735
22094W        W38942   6.175  17.477  12.149 -0.1517 -0.1251 -0.3140
22095W        W38943  15.907  14.606   4.993  0.0368 -0.1858 -0.1750
22096W        W38944   8.986   9.425   0.319 -0.0551 -0.1136 -0.1217
22097W        W38945  13.111   8.655  16.623 -0.1054 -0.2699  0.1684
22098W        W38946  12.837   4.779   4.002  0.1036  0.1520  0.0057
22099W        W38947  16.976   8.634  13.132  0.2720  0.1066  0.1856
22100W        W38948   6.086   9.066  12.083 -0.2713 -0.1557 -0.0591
22101W        W38949  15.079   6.861  16.297 -0.1835 -0.0177 -0.0925
22102W        W38950   6.811   1.394  16.401  0.1818  0.1757  0.4727
22103W        W38951  14.759  10.361  11.817  0.0182 -0.2161 -0.0160
22104W        W38952  12.247   3.237  12.073  0.2954 -0.1130 -0.1493
22105W        W38953  15.430  16.245   3.370  0.1532 -0.0790 -0.0898
22106W        W38954  14.400   1.979  14.775  0.3767 -0.4357 -0.2312
22107W        W38955  11.495   8.533  12.069  0.0191 -0.2210 -0.1962
22108W        W38956   7.673   2.788  14.499 -0.1259  0.1199  0.0766
22109W        W38957  13.849  12.265  16.619 -0.1158 -0.2750  0.0891
22110W        W38958   4.226  12.164   3.659 -0.1111 -0.2585 -0.0807
22111W        W38959   4.213   7.564  14.839 -0.3789  0.1537  0.1869
22112W        W38960  17.555   4.125  16.586 -0.0354  0.2334 -0.1401
22113W        W38961   4.254   0.526  15.825 -0.0305  0.0238  0.2040
22114W        W38962  13.849  10.112  12.298  0.4767 -0.0921  0.2115
22115W        W38963  10.868   9.068   4.397  0.0472 -0.1114 -0.0377
22116W        W38964  12.623   3.433   0.101 -0.1040  0.2398  0.0822
22117W        W38965   6.461   0.310   0.887  0.1318 -0.3348 -0.0030
22118W        W38966   5.397  13.464   3.476  0.0540 -0.1532  0.0881
22119W        W38967   5.792  12.816   2.745 -0.0489 -0.0885  0.1313
22120W        W38968   1.065  16.282  16.063 -0.0285 -0.2156 -0.0746
22121W        W38969  14.867  15.425  13.063  0.2603  0.2197  0.1019
22122W        W38970   9.133   4.184   3.011  0.2217 -0.1625  0.0810
22123W        W38971  14.505   9.428   5.019 -0.0121  0.0434  0.0015
22124W        W38972   7.966  10.026  13.302  0.4066  0.0269  0.0478
22125W        W38973   0.575   4.382  16.424  0.1941  0.2628  0.0547
22126W        W38974   6.059   7.810   5.228  0.2870 -0.3023 -0.4179
22127W        W38975  13.417  14.745  15.541  0.0889 -0.1194  0.3481
22128W        W38976   2.678   3.604   3.952  0.2400 -0.1109  0.0379
22129W        W38977   3.516   2.762   1.798 -0.0114 -0.0015  0.2226
22130W        W38978   6.590  11.139  12.620 -0.2448  0.1316 -0.1597
22131W        W38979   7.064  12.852   4.596  0.2497  0.2202 -0.0797
22132W        W38980  17.555   6.992   4.394  0.3446 -0.2228 -0.1110
22133W        W38981  13.690  17.277   1.590  0.0392  0.1762 -0.0470
22134W        W38982   9.862  17.661   1.622 -0.0385  0.0015  0.0213
22135W        W38983   6.542   9.381  14.222  0.2719  0.0182  0.0994
22136W        W38984   2.660   1.806   2.811  0.0240 -0.4343  0.0082
22137W        W38985  14.617   6.254   4.074 -0.2238  0.0524  0.0636
22138W        W38986   8.949   8.495   2.243 -0.2911  0.2409  0.3651
22139W        W38987   5.386   4.264   0.097 -0.0244  0.2126  0.1109
22140W        W38988   8.751   1.769  16.629  0.0919  0.0580  0.3125
22141W        W38989   1.354  16.226   0.115  0.1086 -0.3517  0.2224
22142W        W38990  13.605  11.596  14.002 -0.2581 -0.1965 -0.1266
22143W        W38991  13.594   8.543   0.246 -0.1821  0.0668  0.2155
22144W        W38992  12.833   0.108   0.530 -0.0368  0.1491  0.1579
22145W        W38993  13.434  12.976   3.523 -0.0982  0.0655 -0.1816
22146W        W38994   0.745  14.223  13.329  0.3319  0.0647 -0.2927
22147W        W38995   3.708  10.884  15.860  0.1557 -0.0519 -0.0697
22148W        W38996   8.233   5.104   5.205  0.2616 -0.1385  0.0237
22149W        W38997   9.456  13.485  14.953 -0.2170  0.3269 -0.1375
22150W        W38998   6.367   4.519  15.703 -0.2707 -0.1875  0.1350
22151W        W38999  13.671   8.472   2.544  0.0794  0.0688 -0.0209
22152W        W39000   4.670   9.010  15.304 -0.0508  0.3064 -0.0561
22153W        W39001   8.002  15.270   4.072  0.0132 -0.0836 -0.2506
22154W        W39002  16.721   1.700  16.595  0.0320  0.0291 -0.1858
22155W        W39003  14.921   5.614  15.872  0.1301 -0.0055  0.1383
22156W        W39004  12.054   2.637  14.233  0.4152 -0.0149 -0.1131
22157W        W39005   1.396   0.316   1.593 -0.1258 -0.1035 -0.0557
22158W        W39006   3.552   3.175  16.624 -0.1386 -0.0028  0.0901
22159W        W39007   1.249  16.877  16.025 -0.3534  0.2948 -0.2077
22160W        W39008   8.925   5.096   4.534  0.0443 -0.1345  0.3624
22161W        W39009   3.615  15.128   4.031 -0.0320  0.2346  0.0286
22162W        W39010   9.493   9.793   5.147  0.0815 -0.0140  0.0409
22163W        W39011   9.814  10.480  15.427  0.0590  0.1283  0.1429
22164W        W39012   9.215  10.352  14.252 -0.0191 -0.1383 -0.3101
22165W        W39013  12.589   5.815  13.260 -0.1922  0.0418 -0.1146
22166W        W39014   6.930   5.976   9.655  0.0288 -0.0801 -0.0207
22167W        W39015   9.255   2.054  14.113  0.1134  0.2075 -0.3784
22168W        W39016   1.501   7.943  14.604  0.0483  0.1815 -0.1685
22169W        W39017   5.020   5.490   4.081 -0.0254  0.1650  0.0743
22170W        W39018   6.376   2.870  11.866  0.0570 -0.0215 -0.3596
22171W        W39019   5.639  15.344   5.904  0.1456  0.0160  0.0380
22172W        W39020   4.175   0.932  14.949 -0.1249  0.0636 -0.0332
22173W        W39021   2.737   9.854  14.653 -0.1516  0.2047  0.1553
22174W        W39022  14.879  13.982   1.808  0.0657  0.0948 -0.3145
22175W        W39023   7.552   8.543  16.524  0.3093  0.1350  0.0856
22176W        W39024   1.577  14.411   3.022  0.0654  0.2130  0.1582
22177W        W39025   5.595  17.845   2.492  0.2521 -0.1032 -0.2600
22178W        W39026  10.337  15.013  16.217  0.0751 -0.0698 -0.1481
22179W        W39027  14.060   6.919  12.529 -0.0739 -0.3208 -0.1380
22180W        W39028   1.679   5.393  11.738  0.2541  0.0613  0.0491
22181W        W39029   3.877  15.962   3.747  0.1800  0.0662 -0.0596
22182W        W39030   5.790   7.913  14.697  0.1638 -0.0219 -0.1091
22183W        W39031   9.842  10.856  13.032  0.0233 -0.0544  0.3317
22184W        W39032   4.254   6.714   4.482  0.3053 -0.2075 -0.0904
22185W        W39033  13.596   5.973   1.615 -0.1911 -0.1276  0.1084
22186W        W39034   6.953   4.836   2.106 -0.0709  0.2950  0.0175
22187W        W39035  17.251   6.757  12.510 -0.0523 -0.1152  0.2545
22188W        W39036   5.034   4.091   2.920 -0.0412  0.1589  0.1695
22189W        W39037   4.016  14.673   3.009  0.3515 -0.2130 -0.1220
22190W        W39038  12.263  13.305   3.373 -0.2409 -0.3103 -0.0845
22191W        W39039  16.694   2.593   4.172 -0.0390 -0.3081 -0.0130
22192W        W39040  13.555  10.466  15.579  0.1573 -0.4970 -0.0017
22193W        W39041   1.585   8.749  15.283 -0.3774  0.0430 -0.1639
22194W        W39042   6.126   8.662  11.060  0.0392 -0.0069  0.3117
22195W        W39043  11.661  10.012  13.851 -0.4614 -0.0213  0.1801
22196W        W39044   9.391  17.303  11.680  0.1383 -0.1056  0.0762
22197W        W39045  11.653  13.755   4.153  0.1513 -0.3352 -0.2253
22198W        W39046   0.162   5.475  15.784  0.2201  0.1824  0.1109
22199W        W39047   3.879   2.835  15.709 -0.3219  0.0500 -0.0433
22200W        W39048   6.459   7.285  13.737  0.1381  0.0590  0.1443
22201W        W39049   1.926   4.851  15.384  0.2674 -0.3355  0.3321
22202W        W39050   9.795   3.296  11.962 -0.2448 -0.0594  0.1044
22203W        W39051   4.991  10.529  13.755 -0.1279 -0.1113 -0.1087
22204W        W39052  12.321   5.064   4.597  0.0755 -0.2380 -0.1092
22205W        W39053  12.049   5.655   0.598  0.0979 -0.0525  0.3556
22206W        W39054  14.376  11.589  16.019  0.1712  0.0124 -0.0182
22207W        W39055   1.188   7.916  13.596 -0.3014 -0.2055  0.2297
22208W        W39056  15.776  12.474  15.353  0.1773 -0.1215 -0.2713
22209W        W39057   9.276   9.696   0.033  0.3972  0.0663  0.0253
22210W        W39058   1.784   8.903   3.865  0.0634 -0.1634  0.1482
22211W        W39059   9.357  17.681   1.335  0.0491  0.4047 -0.0488
22212W        W39060   0.028  14.672  11.809  0.3167 -0.1766  0.3184
22213W        W39061   6.373  12.532  14.783  0.1773  0.2633 -0.1374
22214W        W39062  12.535  17.487  14.503 -0.3464  0.4194  0.1747
22215W        W39063   3.468  10.891   3.800 -0.0142 -0.0935 -0.2189
22216W        W39064   7.127  10.010   1.218 -0.1642 -0.0926 -0.0753
22217W        W39065   5.432  15.221   1.816 -0.3108  0.2808 -0.0765
22218W        W39066   1.051  16.554   0.971 -0.3630  0.2073  0.0865
22219W        W39067   6.930   1.988  12.106  0.0164 -0.0747  0.3588
22220W        W39068   9.905  10.596   4.536 -0.0550  0.1089 -0.1825
22221W        W39069   9.363   8.183  14.736 -0.1555  0.0746 -0.1334
22222W        W39070  11.325  17.568  16.193 -0.0076  0.0694 -0.0026
22223W        W39071   9.032   2.694   2.393 -0.0506 -0.2104  0.1638
22224W        W39072   9.809   8.214   3.871 -0.1107  0.1706  0.2133
22225W        W39073  12.720  14.140   0.706  0.1485  0.0191 -0.2207
22226W        W39074  10.472  13.339   4.858 -0.3133 -0.5447 -0.1565
22227W        W39075   6.457   9.457  12.222  0.2477  0.0949  0.0089
22228W        W39076  16.552  13.040  11.644  0.0904  0.0743  0.0926
22229W        W39077   7.876  14.554   0.248 -0.2087 -0.3380 -0.0585
22230W        W39078   2.194  12.359   1.369  0.0653  0.0917 -0.0068
22231W        W39079   9.529   0.407  15.613 -0.1961  0.2761 -0.0692
22232W        W39080  14.035  15.105   0.999  0.0627 -0.0120 -0.2097
22233W        W39081   1.628   9.374  16.148  0.3546 -0.3232 -0.1144
22234W        W39082   6.838   0.058   4.445  0.0999  0.0381  0.1371
22235W        W39083   2.263   5.750   4.394  0.1678 -0.1788 -0.1305
22236W        W39084   0.807   9.982   1.275  0.1102 -0.0066 -0.2706
22237W        W39085  14.203   2.262   3.582 -0.0008  0.0681  0.1690
22238W        W39086   6.225   0.034  13.716  0.0273 -0.1285 -0.4113
22239W        W39087   4.493  12.699   4.816 -0.0349 -0.0093 -0.0290
22240W        W39088   0.010   7.036   2.913 -0.0308  0.1603 -0.1113
22241W        W39089   9.152  15.327   2.566 -0.1068  0.0869  0.1753
22242W        W39090   0.254  16.294  15.034 -0.0486  0.0304  0.0884
22243W        W39091  17.519   8.900   4.135  0.2991  0.2800 -0.0920
22244W        W39092   4.012   1.514   0.682 -0.0129  0.1759 -0.3863
22245W        W39093   3.094  10.877   1.968  0.3276 -0.3901  0.1790
22246W        W39094   0.757  11.497   1.299 -0.0093 -0.2435  0.0876
22247W        W39095  14.088   8.266  12.119 -0.0149  0.3345  0.1661
22248W        W39096   2.284  14.709   0.225 -0.1543  0.1399  0.0311
22249W        W39097   9.748   2.289   5.122 -0.0144 -0.1167 -0.0384
22250W        W39098  13.426  14.178  14.504 -0.1776 -0.0406 -0.2044
22251W        W39099   6.298   1.812   2.476  0.0551  0.2432  0.2207
22252W        W39100   4.794   2.236  14.616 -0.1020  0.2097  0.3870
22253W        W39101   8.468  10.625  12.746 -0.0123 -0.0219 -0.3062
22254W        W39102  11.099   2.097   2.419 -0.1499 -0.1806  0.2719
22255W        W39103  16.298  16.034  11.681  0.0134 -0.2042  0.2425
22256W        W39104  15.622   4.617  11.901  0.0057  0.2262  0.1177
22257W        W39105   6.581  15.059  16.307 -0.1059  0.0767 -0.0922
22258W        W39106  13.880   7.020   4.866  0.1585 -0.0153  0.1548
22259W        W39107   5.626   4.940   2.815  0.2384 -0.1449  0.2262
22260W        W39108  10.601  17.162   2.992 -0.2311  0.1184  0.3263
22261W        W39109   8.038   0.347   0.250  0.0831 -0.2395 -0.0516
22262W        W39110   0.928  12.245   4.346  0.0206 -0.2469 -0.0857
22263W        W39111   4.717   1.658   1.286  0.0568 -0.1150  0.1099
22264W        W39112   2.746  13.285   0.059 -0.1412 -0.2491 -0.4302
22265W        W39113   3.196   4.673   0.059  0.0543  0.3514 -0.2914
22266W        W39114   5.151  17.828   4.087 -0.0274  0.1132 -0.1306
22267W        W39115   0.355   5.133  11.327 -0.2891 -0.0733 -0.1430
22268W        W39116   6.643  10.942   3.857  0.0139  0.1837 -0.1921
22269W        W39117   0.464   8.358   2.764  0.0700 -0.0242  0.1687
22270W        W39118   1.767   9.556  13.533  0.0173  0.1166 -0.0374
22271W        W39119   6.289   6.993   0.648 -0.0407  0.2002  0.0815
22272W        W39120   6.965  15.392  15.202 -0.1134 -0.2608  0.0078
22273W        W39121  14.571   7.912   3.779 -0.0965 -0.1358  0.0138
22274W        W39122   2.141  11.372  13.388  0.0684  0.0782 -0.1194
22275W        W39123   1.760   5.057   2.645 -0.0884 -0.2219  0.1623
22276W        W39124   6.209   2.659  14.648 -0.0657 -0.2320 -0.0878
22277W        W39125   7.591  17.510  12.676 -0.1042 -0.1550 -0.1664
22278W        W39126  10.952  17.393   3.524 -0.2532 -0.0058 -0.0032
22279W        W39127  17.195   5.552   2.979  0.1288 -0.3617  0.2506
22280W        W39128  14.950   9.686   5.155 -0.2594  0.1626 -0.0397
22281W        W39129  14.420   9.049  15.689 -0.0449  0.1658  0.1837
22282W        W39130   0.744  13.160  12.495 -0.1779 -0.1064 -0.3639
22283W        W39131   5.176   2.665   2.807  0.0649  0.0979  0.1268
22284W        W39132  11.671   0.918  15.133 -0.0792  0.0624  0.0442
22285W        W39133   3.384  11.542  12.988  0.0180 -0.0062  0.1353
22286W        W39134   8.670   7.884   4.348 -0.5097  0.2112  0.0278
22287W        W39135  14.963   2.004   0.536  0.1350 -0.2241 -0.2168
22288W        W39136  13.134   8.605   2.323 -0.4489 -0.0765  0.0232
22289W        W39137   1.432  12.389  13.172  0.0885 -0.1326  0.2139
22290W        W39138  13.770  10.487  10.812 -0.2567  0.0431  0.0759
22291W        W39139   4.436  12.738  11.546  0.0674 -0.0430 -0.1934
22292W        W39140   6.250   7.198  13.258 -0.1122  0.1739  0.1038
22293W        W39141  16.344   0.468   4.125  0.1188  0.2467  0.3737
22294W        W39142   1.628  12.738   0.415  0.0812 -0.0884 -0.0382
22295W        W39143   0.387   2.274   3.464  0.2950  0.0265  0.0240
22296W        W39144   1.536   2.817   3.313 -0.4679 -0.0194 -0.0303
22297W        W39145  16.289   6.612  14.983 -0.0655  0.0646 -0.1107
22298W        W39146  14.755   2.377  15.259 -0.0641 -0.2143 -0.1820
22299W        W39147  11.672   9.698   3.994  0.0753 -0.4274 -0.2502
22300W        W39148  17.527  16.055  11.939 -0.2505 -0.1889 -0.1695
22301W        W39149  10.815   6.569   2.187 -0.1441 -0.0764  0.3596
22302W        W39150   0.581  12.428  14.534  0.1154 -0.0349 -0.0900
22303W        W39151  10.074   5.384   2.541  0.2491 -0.4559  0.3769
22304W        W39152  11.161   4.119   3.661  0.2071 -0.2345 -0.0236
22305W        W39153  14.805  11.202   4.132  0.4298 -0.1191  0.4330
22306W        W39154  10.540   3.684  13.845 -0.1367  0.2315  0.0173
22307W        W39155  11.729  15.463   1.303  0.1654 -0.1527  0.0189
22308W        W39156   6.561   3.077   2.659  0.3590  0.2339 -0.2139
22309W        W39157   7.912  15.804  12.516  0.1152 -0.1505 -0.0801
22310W        W39158   1.475   3.261   3.075  0.1049  0.0064  0.0041
22311W        W39159  14.894   6.985   4.747  0.0652 -0.0819  0.2409
22312W        W39160   1.318   3.608   4.674  0.0417  0.0500 -0.0086
22313W        W39161  10.323   8.354   1.914  0.2158 -0.2347  0.0120
22314W        W39162  14.722   4.457  16.604 -0.1124 -0.2947 -0.1802
22315W        W39163  17.607   4.505   2.149 -0.0281 -0.0981  0.0318
22316W        W39164  17.801   2.528  12.987  0.1836 -0.2681 -0.0809
22317W        W39165   0.929   0.196   1.442  0.2880 -0.2385  0.1546
22318W        W39166   7.758  14.007   2.502  0.0909 -0.0549 -0.0201
22319W        W39167   5.054  10.605   5.624  0.4431  0.0812 -0.3115
22320W        W39168   1.841  12.702   4.371  0.1869  0.0636 -0.0526
22321W        W39169   7.673  14.020  12.268 -0.2674  0.0932  0.0398
22322W        W39170  10.066   9.130  15.028 -0.0564 -0.0193  0.2068
22323W        W39171  11.145  14.698  14.798 -0.3928 -0.2207 -0.0421
22324W        W39172   4.841   8.081   4.912 -0.0236 -0.1244  0.1036
22325W        W39173  14.615   2.462   1.459 -0.2983  0.2174  0.2214
22326W        W39174  15.532   3.819  14.428 -0.0096 -0.0040 -0.2255
22327W        W39175   7.706  10.587   5.836 -0.1080 -0.0835  0.1008
22328W        W39176   8.748  10.259  14.486  0.2233 -0.1912  0.0076
22329W        W39177   9.915   1.297  14.435 -0.3524  0.1079  0.1384
22330W        W39178   4.947   5.474  16.210 -0.0482 -0.0607 -0.0901
22331W        W39179  14.896  13.011   1.785  0.2058 -0.1319  0.0312
22332W        W39180   6.488  10.306  14.076  0.0191  0.1685 -0.1758
22333W        W39181   9.177   3.107   1.887  0.2607 -0.1416 -0.1595
22334W        W39182  13.952  14.852  14.807 -0.0869 -0.1346  0.1960
22335W        W39183  12.618   3.055  15.813  0.2544 -0.3310 -0.1367
22336W        W39184   5.202   8.172  13.897 -0.1381  0.0108  0.1321
22337W        W39185  13.785   0.808  13.901 -0.0984  0.2403  0.1096
22338W        W39186   9.617   9.540  13.621  0.0075 -0.2498  0.0773
22339W        W39187  17.396  10.435  13.327  0.0507  0.0494  0.0947
22340W        W39188  17.136  15.113   5.007  0.2786  0.0942  0.0754
22341W        W39189  17.345  13.529   3.017 -0.2076  0.2172 -0.1456
22342W        W39190   6.819   6.757   4.630  0.3594  0.0779  0.0074
22343W        W39191  14.238  10.254   1.144  0.2410 -0.1677 -0.2118
22344W        W39192  10.764  14.017   3.998 -0.1163 -0.0451 -0.0836
22345W        W39193  14.405   8.425   4.005 -0.2300 -0.0871  0.1288
22346W        W39194   4.636  15.605   0.117  0.3313  0.0868  0.1389
22347W        W39195  17.454   6.870   2.638  0.1040  0.4319 -0.0786
22348W        W39196   3.885   3.748   0.987  0.2761  0.3039 -0.0313
22349W        W39197   7.724   0.972   4.573 -0.1358  0.1938  0.0518
22350W        W39198  10.240  12.636  11.853  0.0522 -0.0502  0.0135
22351W        W39199  16.583   8.757   2.053 -0.0768 -0.0552  0.2682
22352W        W39200   7.080  16.128  15.556  0.2202 -0.1551 -0.0050
22353W        W39201  16.904  17.160   5.481  0.2119  0.0345 -0.2017
22354W        W39202  12.639  12.677   5.902  0.1671  0.0043  0.0031
22355W        W39203   1.426   9.587   0.468  0.1591 -0.4559  0.0069
22356W        W39204   9.716   1.589   2.831 -0.0072  0.2967  0.5235
22357W        W39205   3.498   1.237  16.546 -0.2130  0.0899  0.3049
22358W        W39206   1.182  12.247   2.011  0.0282  0.1419 -0.1612
22359W        W39207   6.404   3.429   3.012 -0.2287 -0.3152  0.0455
22360W        W39208   0.536   3.630   3.955  0.1066  0.1107 -0.1412
22361W        W39209   2.254   1.292  15.655  0.0979 -0.4769  0.2657
22362W        W39210   7.849   7.221   1.145 -0.0210 -0.5084  0.1123
22363W        W39211   6.322   4.132   5.144  0.0027  0.3033  0.0137
22364W        W39212   4.068   1.358   0.155 -0.2615 -0.1335  0.1003
22365W        W39213  12.173   9.790  11.285 -0.2357 -0.0609  0.2552
22366W        W39214   5.555  12.378   2.939  0.2416 -0.4231 -0.0350
22367W        W39215  14.186   1.096  14.063  0.1226 -0.1090 -0.3091
22368W        W39216   6.037   0.915   0.746 -0.0759 -0.0154 -0.0431
22369W        W39217   5.364   6.711  15.782 -0.0460  0.1271 -0.0844
22370W        W39218   3.190  14.492  12.264  0.0835  0.2297  0.0721
22371W        W39219   9.941   1.755   2.295 -0.0437 -0.0986  0.0037
22372W        W39220   9.640  16.237   4.973  0.5475  0.0282 -0.3699
22373W        W39221   3.558   5.796   2.194 -0.2623  0.0584  0.0446
22374W        W39222  14.079   3.874   3.025 -0.0627  0.0944  0.1476
22375W        W39223   3.609   2.100  16.462 -0.2358  0.0827 -0.2031
22376W        W39224   0.628   1.709  13.085 -0.0095  0.5295  0.4143
22377W        W39225  16.282   3.766   1.367 -0.0298 -0.0541 -0.0465
22378W        W39226   9.430   2.765   1.579 -0.0653 -0.0562 -0.1561
22379W        W39227   9.033   3.103   3.683  0.1828 -0.0319  0.0772
22380W        W39228   5.054  13.548  13.892  0.2167 -0.0547  0.0024
22381W        W39229   5.098  15.363   2.977 -0.0953 -0.0253 -0.2797
22382W        W39230   7.493  10.473  11.594  0.0396 -0.0399 -0.1879
22383W        W39231   3.775  13.816   4.418  0.0030  0.1315  0.2970
22384W        W39232  11.068   5.131   1.720 -0.2158  0.1357  0.0684
22385W        W39233   3.877   1.022   2.935  0.0635 -0.3437 -0.1497
22386W        W39234   3.981  11.177  14.503 -0.2059  0.0231 -0.0282
22387W        W39235   6.848   1.855  14.238  0.3270  0.1989  0.1945
22388W        W39236   0.645  14.806   1.460  0.3788  0.0295  0.2771
22389W        W39237   4.539   8.914  12.516  0.0016  0.1063  0.3153
22390W        W39238   9.544   8.719  14.192  0.0652 -0.0414 -0.0622
22391W        W39239  16.473   3.402   5.898 -0.3476  0.0596  0.0327
22392W        W39240   9.589   3.929  14.102 -0.1742 -0.3417 -0.1876
22393W        W39241   8.697   6.779  15.520 -0.0318  0.1078  0.0995
22394W        W39242   3.973   1.054   1.710  0.0857 -0.1870  0.0174
22395W        W39243  13.045   7.837  13.620  0.1074  0.1069 -0.2712
22396W        W39244  17.590   2.826  15.526 -0.1641  0.0626  0.1394
22397W        W39245   6.640   8.599   4.098 -0.3170  0.0200 -0.0615
22398W        W39246  17.211   4.788   2.151  0.0653  0.0705  0.1126
22399W        W39247  17.536  12.188   4.947  0.0017 -0.2086  0.2018
22400W        W39248  15.595  10.014  12.881 -0.3043 -0.0067 -0.2285
22401W        W39249   6.926   2.397  13.601  0.2086  0.0028 -0.0396
22402W        W39250  10.899   4.405  11.833 -0.2371  0.1118  0.1190
22403W        W39251   8.869   0.940  15.087  0.2054 -0.3293 -0.1474
22404W        W39252   4.648   2.879   2.703  0.1619  0.0056  0.0626
22405W        W39253   9.128   5.379  14.219 -0.1293  0.0165 -0.2292
22406W        W39254   0.306  15.136   0.341  0.3346  0.2143 -0.1705
22407W        W39255  10.978  11.989  12.305  0.2036  0.1627 -0.3657
22408W        W39256   9.207   4.644   0.657  0.2924 -0.1603  0.1045
22409W        W39257   4.737  13.745   4.111 -0.2143 -0.0932 -0.1829
22410W        W39258   5.310  10.797  14.474 -0.3685 -0.0868 -0.3943
22411W        W39259   5.723  13.679  12.301  0.1382 -0.0281 -0.0614
22412W        W39260  11.404   5.998  15.976  0.3216  0.0280  0.1239
22413W        W39261   4.973  14.524   1.491 -0.0394  0.0757 -0.0038
22414W        W39262  16.483   4.404  14.185  0.0082 -0.0674 -0.0995
22415W        W39263   3.724  17.470   3.312 -0.2484  0.0308 -0.1071
22416W        W39264  12.518   2.101  13.209 -0.0103 -0.1258 -0.0499
22417W        W39265   3.021   4.675   5.517 -0.1358 -0.0674 -0.0533
22418W        W39266   9.326   7.059  16.560  0.2860  0.3285 -0.1041
22419W        W39267   3.491   8.062  14.777  0.0262  0.0063 -0.4118
22420W        W39268   8.948  10.658   0.581 -0.0512 -0.1433 -0.1774
22421W        W39269  12.536   5.290   1.724  0.2109  0.0145  0.2625
22422W        W39270   6.648   6.859  13.383  0.0317  0.2925 -0.0568
22423W        W39271  15.554   3.522  14.048  0.2076  0.1304 -0.1738
22424W        W39272   6.455  16.369   4.813 -0.0773 -0.1345 -0.0512
22425W        W39273   7.725   4.558   4.677 -0.1553  0.1745  0.2248
22426W        W39274   2.407  11.593  12.969 -0.4091 -0.0329 -0.2442
22427W        W39275  13.919   9.155   2.030 -0.1793  0.0242  0.0980
22428W        W39276  12.098   2.281   3.495 -0.0193 -0.1119  0.0526
22429W        W39277  12.885  14.190   2.043  0.2247 -0.4184  0.2969
22430W        W39278   7.828   3.367  11.691 -0.0227  0.0496 -0.1638
22431W        W39279  17.653  11.482   1.607  0.1028 -0.3070  0.1017
22432W        W39280  16.117  16.667   0.850 -0.0444 -0.0107 -0.1184
22433W        W39281  14.536  12.052  14.080  0.0479 -0.2453 -0.0497
22434W        W39282  12.446   4.243   0.748 -0.0395 -0.0343  0.1519
22435W        W39283   2.411   8.097   2.030 -0.0132  0.1762 -0.0063
22436W        W39284   3.230   8.287  13.889  0.1468 -0.1312  0.0633
22437W        W39285   7.445  14.586  12.245  0.2607  0.1096 -0.0746
22438W        W39286  15.212   9.271  15.357 -0.2995 -0.2284 -0.0541
22439W        W39287   5.421  15.931   4.518 -0.1346 -0.2165 -0.1920
22440W        W39288   5.967  12.189  15.438 -0.3434 -0.1336 -0.0184
22441W        W39289  17.585   9.248   0.119  0.3699  0.0742  0.1313
22442W        W39290   4.077  13.406   4.183 -0.1347 -0.0367 -0.2473
22443W        W39291   4.152   3.977  16.223 -0.0612 -0.1003 -0.2866
22444W        W39292   3.783  12.038   1.561 -0.0275  0.2035  0.0985
22445W        W39293   6.345   1.774  14.218 -0.1617  0.0413 -0.2104
22446W        W39294   4.515   1.962  14.949 -0.1115 -0.0860  0.1825
22447W        W39295   0.753  14.187  12.375 -0.1025  0.0093 -0.1855
22448W        W39296   0.030  14.789  13.927  0.1789 -0.1997 -0.2001
22449W        W39297   7.894   8.317  14.790 -0.0474 -0.0935 -0.2581
22450W        W39298  11.912   0.528   0.337 -0.0387 -0.0902  0.1623
22451W        W39299  16.840   9.344  13.172  0.1246 -0.1450 -0.0299
22452W        W39300   3.149  10.880  15.732 -0.0219 -0.1020  0.0401
22453W        W39301  17.140  11.637  14.423 -0.0127 -0.0436 -0.2861
22454W        W39302   6.448   3.512   4.367  0.1863  0.0140 -0.0525
22455W        W39303   5.749  17.398   2.734 -0.2427  0.1093  0.0589
22456W        W39304   4.625  15.411  13.013 -0.0121  0.0618 -0.2984
22457W        W39305  15.100   2.479   3.755 -0.0075 -0.2188 -0.1108
22458W        W39306   5.387   6.630  16.524 -0.0117 -0.0083  0.0899
22459W        W39307  12.531   0.427   4.935  0.1233 -0.0683 -0.0995
22460W        W39308  16.512  10.646  15.847  0.0862 -0.0696  0.0039
22461W        W39309   3.698  11.562  14.271  0.0741  0.1174  0.0344
22462W        W39310  13.964   9.964   3.481 -0.1103 -0.0771 -0.3660
22463W        W39311   0.174   2.104   4.950  0.0336  0.0483  0.0475
22464W        W39312   3.647  14.896  15.465 -0.1375  0.3650  0.1347
22465W        W39313   2.212  13.275   3.297 -0.1287  0.0703 -0.0304
22466W        W39314   0.123  13.801  11.830 -0.1047 -0.2014 -0.0293
22467W        W39315   5.992  14.342   1.790  0.0605 -0.1955 -0.2276
22468W        W39316   8.349   1.525  12.881  0.2016  0.2570  0.0309
22469W        W39317   8.767   2.917   0.486  0.3122  0.2104  0.2843
22470W        W39318   2.385   2.352  15.979 -0.1343 -0.0375 -0.1673
22471W        W39319  17.841   3.607   4.135  0.3518 -0.1460  0.2358
22472W        W39320   8.289   6.195  13.885  0.2099 -0.0206  0.1159
22473W        W39321  11.592  13.161  14.104 -0.3045  0.0186  0.1200
22474W        W39322  16.381  11.409   0.363  0.1146 -0.3923 -0.2452
22475W        W39323   2.011  14.916  15.614  0.2653 -0.3701 -0.2530
22476W        W39324   4.310  16.909   1.649  0.2963  0.0766 -0.1163
22477W        W39325  11.501   3.806  16.200  0.1565 -0.4148 -0.0838
22478W        W39326  11.408  17.813  12.345  0.0090  0.1083 -0.0145
22479W        W39327  17.202   6.724   3.818  0.0570 -0.0676 -0.1136
22480W        W39328  13.200   6.702  15.606 -0.0220 -0.0246  0.2151
22481W        W39329  17.019   4.070  15.522  0.3237 -0.1624 -0.1359
22482W        W39330   0.775   1.006   0.924  0.0920 -0.0512  0.0334
22483W        W39331   5.933  15.273   5.515  0.0872 -0.2570  0.2355
22484W        W39332   4.471   5.467  11.188 -0.2559  0.1377 -0.2575
22485W        W39333  12.347  14.233   5.210 -0.2428 -0.1545 -0.0317
22486W        W39334   8.502   7.069  16.016 -0.0454 -0.1214  0.5761
22487W        W39335  12.852   6.052  16.128 -0.1872 -0.0112  0.0899
22488W        W39336  17.682   3.582   1.575 -0.2273  0.0757  0.1381
22489W        W39337  14.052  12.205   2.562 -0.0060  0.0307 -0.1037
22490W        W39338  11.950  11.834  12.023 -0.1728 -0.0255  0.0268
22491W        W39339   8.890  16.875  13.694 -0.0320  0.1469 -0.0448
22492W        W39340  14.526  16.660   4.236  0.1079 -0.2826 -0.1701
22493W        W39341   4.380  14.162   2.415 -0.2038 -0.1000 -0.1550
22494W        W39342   7.163  13.977   6.110 -0.1921 -0.1364  0.0689
22495W        W39343   7.901   3.325  15.257  0.0864  0.0515 -0.0893
22496W        W39344  12.727   2.598   1.283 -0.2815 -0.2928  0.0572
22497W        W39345   6.857  14.055  15.243 -0.2624 -0.1081 -0.0561
22498W        W39346   3.195   0.630   2.010 -0.0373 -0.2249 -0.0615
22499W        W39347   4.510   1.410   3.707 -0.0642 -0.2536  0.2701
22500W        W39348  10.408   2.582   1.104  0.0213 -0.3127 -0.1329
22501W        W39349   6.809  12.577   5.651 -0.1178 -0.0035 -0.3808
22502W        W39350   1.526  11.378   3.777  0.0479  0.1381  0.0102
22503W        W39351  10.131  13.455  11.190 -0.2792 -0.0440  0.0130
22504W        W39352  16.110  17.524   3.317 -0.3620  0.1292 -0.3311
22505W        W39353   8.077  15.099   2.980  0.2635  0.0743 -0.0817
22506W        W39354   1.855   2.259   2.517 -0.2612 -0.2208 -0.0171
22507W        W39355   5.414   9.849  15.678 -0.1559  0.2428 -0.0534
22508W        W39356   8.559   7.044  12.277  0.1144 -0.0783  0.1260
22509W        W39357   0.599  14.076   0.505 -0.0536 -0.1184 -0.0125
22510W        W39358  17.853   8.752  13.828  0.2510  0.0461  0.2311
22511W        W39359   6.703   9.389   2.304  0.0634  0.1113  0.2873
22512W        W39360  12.073   1.058   0.305  0.1744  0.0849 -0.1610
22513W        W39361   0.997  15.054   1.048  0.3045  0.0601  0.0517
22514W        W39362   8.873  16.220   0.195  0.0110 -0.3369  0.3060
22515W        W39363   2.395   1.062   0.664 -0.0063  0.1900 -0.1208
22516W        W39364  15.156  17.399  13.084  0.0241  0.0486  0.0326
22517W        W39365   4.982  10.980   4.809 -0.0891 -0.2533 -0.1149
22518W        W39366   9.630  12.372   1.607  0.1219 -0.1311  0.0515
22519W        W39367   8.742  12.007  12.071  0.0742  0.1503  0.0295
22520W        W39368  10.466  14.640   5.231  0.0745 -0.2760 -0.2945
22521W        W39369  12.680  17.180  12.955  0.1612  0.0047 -0.1626
22522W        W39370   6.103  14.234  15.468 -0.0574 -0.0977 -0.1534
22523W        W39371   0.072  14.225  15.889  0.0159 -0.1945 -0.0946
22524W        W39372  16.904  12.881   0.934  0.0691  0.1855 -0.1297
22525W        W39373   5.715   5.227  15.792 -0.0664  0.0910  0.1549
22526W        W39374  13.588  11.931  12.095 -0.2350 -0.1937  0.0129
22527W        W39375  14.739   0.876  12.078 -0.0437  0.1779  0.2790
22528W        W39376  12.310  14.007   0.502  0.1418 -0.2008 -0.1734
22529W        W39377   0.375   8.998   4.490 -0.3812  0.0885  0.2109
22530W        W39378   3.570   7.813  13.481 -0.0301 -0.0901 -0.2739
22531W        W39379  16.594  10.357  14.643  0.0884 -0.0284 -0.1105
22532W        W39380  15.798  10.690  16.377 -0.1398  0.2854  0.0349
22533W        W39381  10.514   8.415  14.028  0.1251  0.0190 -0.0842
22534W        W39382   9.521  11.144   0.225 -0.1857  0.0240 -0.0354
22535W        W39383   1.628   4.204   1.662  0.1466 -0.0836 -0.0170
22536W        W39384  11.530   6.976  14.988  0.2010 -0.1515  0.1983
22537W        W39385  16.605  14.443  16.041 -0.0537  0.2064  0.1397
22538W        W39386  10.495   4.159  14.933  0.0525  0.1400 -0.2706
22539W        W39387  13.503   6.523   2.282  0.0454  0.0572  0.0998
22540W        W39388  13.859  17.468  15.973  0.1944 -0.1613 -0.2148
22541W        W39389   1.692   3.124   2.192 -0.2424 -0.0629 -0.0801
22542W        W39390  17.231   1.058   1.066 -0.1266 -0.4776 -0.2444
22543W        W39391   9.335  15.252  13.248  0.0132 -0.2306 -0.2897
22544W        W39392  12.471  17.016  16.417 -0.0964  0.2849 -0.0070
22545W        W39393  15.118  11.706   3.202 -0.0734 -0.0708 -0.1603
22546W        W39394   0.219  14.223  13.212 -0.2016 -0.1573  0.0227
22547W        W39395   9.529   5.928   2.321  0.1457  0.0113  0.1830
22548W        W39396   3.062   9.988   3.714  0.0200  0.0002 -0.0319
22549W        W39397   1.191  17.791  12.874  0.2496 -0.0068 -0.0298
22550W        W39398  17.809  11.250   0.362  0.1470 -0.1109  0.1323
22551W        W39399   5.779   8.249   0.876 -0.1639  0.2170 -0.0426
22552W        W39400   8.031  14.096  13.019  0.2440  0.0640 -0.1794
22553W        W39401   3.784  12.117  14.646  0.0423  0.1274  0.2228
22554W        W39402   6.238   5.102  12.903  0.2883 -0.1632  0.4335
22555W        W39403   8.841  11.132  14.163  0.0400 -0.0883 -0.0180
22556W        W39404   0.180  13.589  13.386  0.0276 -0.4884 -0.1927
22557W        W39405  11.366   0.105  14.988 -0.3761 -0.4116 -0.1076
22558W        W39406  14.992  11.553   4.929 -0.0300 -0.1116 -0.2139
22559W        W39407   4.944  15.813   1.096  0.1020  0.0818 -0.5087
22560W        W39408   2.360  14.880  14.265  0.0767 -0.0966 -0.0620
22561W        W39409   6.065   6.322   1.135  0.0277 -0.0537 -0.3802
22562W        W39410   8.103   4.401  15.065 -0.2080 -0.3769  0.1681
22563W        W39411  16.568   5.120  15.353 -0.1518 -0.0292 -0.0476
22564W        W39412  16.201  16.536   0.336  0.2224 -0.3597  0.0015
22565W        W39413   0.294  16.437   1.285 -0.1723  0.1286  0.2073
22566W        W39414  15.291  15.051   1.279  0.0610 -0.1113  0.0780
22567W        W39415  12.635   9.676   5.186 -0.2562  0.1358  0.1215
22568W        W39416  14.281   7.237  16.326  0.1149  0.2669 -0.0174
22569W        W39417   4.602  11.794  12.318  0.0151  0.0137 -0.1542
22570W        W39418  13.259  12.239   3.229  0.1683  0.0515  0.1622
22571W        W39419   3.004   8.433   4.828 -0.1756  0.0158  0.1976
22572W        W39420  16.332   8.715   1.609 -0.0105  0.2184 -0.2274
22573W        W39421   1.907  15.949  14.551 -0.3264 -0.0872  0.2792
22574W        W39422  14.484   5.153   0.689 -0.2947  0.0775 -0.0567
22575W        W39423  14.560   2.254   3.123 -0.1668 -0.3541 -0.1032
22576W        W39424   3.718   0.453  10.443  0.1989  0.5972 -0.0287
22577W        W39425  13.657   9.168   2.516 -0.0044  0.1131 -0.0356
22578W        W39426   4.420   8.587   2.406 -0.0459  0.2228 -0.1843
22579W        W39427  10.215   2.893  12.149 -0.2369 -0.3711  0.0590
22580W        W39428   0.911   4.557   0.480 -0.0358 -0.0693 -0.0587
22581W        W39429   4.302   7.920   2.702  0.1207 -0.2078  0.1090
22582W        W39430   3.400   2.513  12.119 -0.0535 -0.1334 -0.2215
22583W        W39431  14.430   6.830   1.115 -0.0851 -0.0520  0.3253
22584W        W39432   4.201   9.894   1.403  0.2143  0.1075  0.2337
22585W        W39433   5.672   0.128   4.124  0.0167 -0.2614  0.3039
22586W        W39434   9.569   9.331   3.281 -0.1253  0.4389  0.1419
22587W        W39435   1.366   5.056  16.310 -0.0026  0.1127  0.0978
22588W        W39436   7.766   9.826   2.854 -0.1735  0.1306 -0.1447
22589W        W39437  12.378   0.388   1.650  0.4053 -0.5110  0.0299
22590W        W39438   8.745   3.130   2.254  0.2712 -0.1131  0.2215
22591W        W39439  13.983   4.797  14.456 -0.2953 -0.0484  0.1637
22592W        W39440   9.173  12.265   3.844  0.0050  0.1671 -0.0063
22593W        W39441   8.602  15.228  12.267 -0.0762 -0.0445  0.1580
22594W        W39442   7.649  16.198  12.728  0.2708 -0.2739 -0.2299
22595W        W39443   1.134  14.686   5.310  0.3457 -0.0819  0.0358
22596W        W39444   0.799   3.990   3.581 -0.0370 -0.0470  0.0164
22597W        W39445  17.575   9.870  14.794 -0.1947 -0.0121 -0.1671
22598W        W39446  12.309   4.163  12.004  0.0342 -0.1129 -0.1581
22599W        W39447   9.269   1.407  11.053  0.0587  0.0396  0.0413
22600W        W39448   8.374  17.146   3.997  0.0601 -0.3058  0.0906
22601W        W39449  17.230  16.639  15.140  0.2676 -0.1915 -0.1307
22602W        W39450  12.449  12.571  12.803  0.0935 -0.0309 -0.1873
22603W        W39451  10.998  14.654   1.080  0.1093 -0.0732 -0.1229
22604W        W39452   6.068   7.346   1.008 -0.1164  0.4605 -0.0266
22605W        W39453  10.936   4.971  15.715 -0.1706  0.0715 -0.1550
22606W        W39454   4.921   7.459  16.113  0.2498  0.1357 -0.1464
22607W        W39455   6.656   5.796   4.811  0.0049 -0.2267 -0.4014
22608W        W39456   0.543   7.068  12.444 -0.1109  0.0570  0.3140
22609W        W39457  14.894   6.010  16.221 -0.1248 -0.2418  0.2228
22610W        W39458   4.263   7.480  12.703 -0.0670  0.6263 -0.3242
22611W        W39459   0.014   2.933  15.143 -0.0821 -0.0573  0.0799
22612W        W39460  14.946  14.051  13.525  0.1044  0.0790  0.0440
22613W        W39461   7.411  11.328  12.121 -0.0874  0.1366  0.0245
22614W        W39462   0.573  14.363  15.674 -0.2665  0.1307 -0.2105
22615W        W39463  14.191  12.322  15.798  0.0211 -0.1069  0.1845
22616W        W39464   5.799  12.854  16.202  0.1049  0.0599 -0.1895
22617W        W39465   5.328   6.241  12.895 -0.1042  0.3828 -0.2114
22618W        W39466   6.513  13.628   1.594  0.2376  0.2856 -0.2247
22619W        W39467   6.158  13.415  15.945 -0.0738  0.2511  0.3372
22620W        W39468   4.224   5.958  11.185  0.1530 -0.0192  0.0480
22621W        W39469   7.944   6.263  15.880 -0.0788  0.1165 -0.0766
22622W        W39470  16.550   0.388  13.519 -0.1109 -0.3440 -0.2464
22623W        W39471   7.440   1.056   1.337 -0.0932  0.2141  0.0689
22624W        W39472   9.555   9.843   1.094  0.1748  0.1755  0.2242
22625W        W39473  12.255   7.478  14.726  0.2471  0.0527 -0.3013
22626W        W39474   3.555   0.297   2.553  0.1239 -0.1562 -0.0490
22627W        W39475   8.929  15.293   3.532 -0.0198 -0.4790 -0.1541
22628W        W39476  15.802   3.685  13.577 -0.0342 -0.1093  0.0679
22629W        W39477  11.101  10.649  13.329  0.3629  0.1004 -0.0472
22630W        W39478  12.196  14.443  15.784 -0.3378 -0.0376 -0.2226
22631W        W39479  10.191   3.773  10.469  0.0089  0.0604 -0.2463
22632W        W39480   2.343  16.603   6.774 -0.1380 -0.3042 -0.0144
22633W        W39481   5.818  14.120   3.136  0.0933 -0.0758  0.1460
22634W        W39482  12.654   8.476   3.105 -0.0946 -0.2131 -0.3626
22635W        W39483  10.290   0.265  13.275 -0.2362  0.1874 -0.1627
22636W        W39484  10.555   7.168   1.188 -0.3163 -0.2198  0.0775
22637W        W39485   8.572   0.374   2.537  0.0662 -0.0620  0.1090
22638W        W39486   3.863   3.434   3.592 -0.0702  0.1831  0.0080
22639W        W39487   5.415   4.488  11.425 -0.2774  0.1372 -0.0091
22640W        W39488  16.673   3.482   4.348  0.0021 -0.1107 -0.1457
22641W        W39489   7.645   2.498  11.461 -0.1459 -0.0028 -0.2574
22642W        W39490   0.354   7.516  13.796 -0.0092 -0.0065 -0.0668
22643W        W39491  12.644   6.587   2.974  0.0877 -0.2980 -0.0859
22644W        W39492   1.129   3.799  15.546  0.1080  0.0568  0.0092
22645W        W39493   2.501  17.235   4.956  0.0252  0.2249 -0.0793
22646W        W39494   3.754   0.598   5.080 -0.0674 -0.0027 -0.1974
22647W        W39495   6.006  12.602  13.365 -0.0772 -0.0811  0.2929
22648W        W39496   3.747  13.774   6.198 -0.0542  0.1865 -0.0549
22649W        W39497  11.563  12.464  14.862 -0.0672 -0.0722 -0.0359
22650W        W39498   2.844   8.617  16.102  0.0149  0.1136  0.0160
22651W        W39499   3.961   2.044  11.422 -0.1105 -0.0720  0.1803
22652W        W39500  16.062  14.085   0.838  0.1694 -0.0959  0.1078
22653W        W39501   5.315  14.749  13.427  0.0843 -0.0277  0.0480
22654W        W39502   6.277  12.854  16.119  0.0756 -0.1774  0.1426
22655W        W39503   9.982   2.887   4.313 -0.1071 -0.1209 -0.1177
22656W        W39504   5.733   9.821  14.660  0.0515 -0.0577 -0.2176
22657W        W39505   9.311   9.711   6.088  0.0329  0.1222 -0.0971
22658W        W39506  10.109   0.072  15.531  0.0568  0.0695  0.0529
22659W        W39507   4.347   6.150   3.418  0.1845  0.2275  0.0767
22660W        W39508  14.588   5.201  13.472  0.2632 -0.3760 -0.0311
22661W        W39509   1.969  13.683  15.817 -0.1124  0.3589 -0.1054
22662W        W39510  16.487  15.855  15.126  0.0153  0.0294  0.0016
22663W        W39511  10.919  14.496  15.638  0.0937  0.0046 -0.2380
22664W        W39512   1.849   5.961   4.803 -0.0614 -0.0261  0.1235
22665W        W39513  10.294  15.112   4.985 -0.1161  0.0436  0.1286
22666W        W39514  16.614   3.349  11.409  0.0273  0.1602 -0.0810
22667W        W39515  15.348   7.108   1.284  0.1572  0.3168  0.0839
22668W        W39516   7.289  17.580  12.147 -0.0158 -0.0628  0.0018
22669W        W39517  14.776   9.509   3.783  0.0533 -0.0404  0.0070
22670W        W39518   4.398   6.309  15.955 -0.1793 -0.1390 -0.1474
22671W        W39519  17.259   1.534   3.827  0.2158 -0.3419  0.2586
22672W        W39520   6.086   6.498   1.958 -0.1971 -0.4074  0.4838
22673W        W39521   8.807  16.915  12.265  0.1501  0.3131 -0.3049
22674W        W39522   7.728  10.821  15.881 -0.1344 -0.0783  0.1265
22675W        W39523   0.652   3.462   3.468  0.2248  0.0220 -0.0554
22676W        W39524   0.064   5.560  16.425 -0.0932 -0.1888 -0.0220
22677W        W39525  13.651   0.029  14.591 -0.0810  0.0039  0.0774
22678W        W39526  12.509   1.690  14.078  0.0829 -0.2047  0.0997
22679W        W39527  17.154   4.968  15.524  0.0770 -0.1519 -0.1223
22680W        W39528   4.733  14.821  14.310  0.0357 -0.5043  0.2996
22681W        W39529   1.647  16.997   4.984 -0.1670 -0.2687 -0.0203
22682W        W39530  11.271   8.366   4.537 -0.0139 -0.0471  0.1916
22683W        W39531   3.213   2.875  13.774  0.0192  0.2029  0.4530
22684W        W39532  15.023  15.429   1.885  0.1260 -0.0337  0.0916
22685W        W39533   0.753  13.803   2.521 -0.1051 -0.0558 -0.2661
22686W        W39534   1.731   7.901  13.428 -0.2886  0.0519  0.0036
22687W        W39535   8.449   2.162  14.465 -0.0220  0.0942 -0.0825
22688W        W39536  16.941  15.642  15.127 -0.0455  0.3292  0.0886
22689W        W39537   8.772   9.829   2.864 -0.0691 -0.0670  0.2779
22690W        W39538  11.152   5.521   1.997 -0.0317 -0.2285  0.2863
22691W        W39539  13.974   4.340   0.561  0.2245  0.0208 -0.1192
22692W        W39540   1.572  10.455   2.262  0.1318 -0.0862  0.1709
22693W        W39541   3.304   6.251   0.599  0.2872  0.0478 -0.0831
22694W        W39542  13.097  13.076   2.165  0.3829 -0.1567 -0.0329
22695W        W39543   1.841   3.346  14.741  0.1089  0.2148 -0.1064
22696W        W39544  13.737  10.382   0.948 -0.2504  0.0618  0.0599
22697W        W39545   5.394  10.099   6.171 -0.0856 -0.1405 -0.0236
22698W        W39546   2.700   0.999   3.991 -0.1109  0.1018  0.0131
22699W        W39547   4.582   5.319  10.688 -0.1681  0.0268  0.1063
22700W        W39548  16.482  12.088   1.597  0.3357  0.0604  0.0873
22701W        W39549  12.803  12.656  12.281  0.1092 -0.0998  0.1073
22702W        W39550   8.862   8.936   2.527  0.0660 -0.0935 -0.0915
22703W        W39551   9.326  14.415  13.182  0.1327  0.3565 -0.0624
22704W        W39552  12.768  12.773   1.912  0.0669 -0.1505  0.0748
22705W        W39553   3.109   2.829   4.785 -0.2006  0.3759  0.0112
22706W        W39554  12.586  13.274  11.926  0.1919 -0.0337 -0.0911
22707W        W39555   8.890   9.922   3.660 -0.0544  0.1052 -0.2938
22708W        W39556  14.525   3.435   0.486  0.1330  0.0639  0.0991
22709W        W39557  15.651   6.266   2.664  0.1700 -0.0087 -0.0330
22710W        W39558  17.004  13.650   0.271  0.3320  0.0508  0.0749
22711W        W39559  10.016   6.788   3.285  0.1157  0.2755  0.1337
22712W        W39560  15.020  10.053  12.159 -0.0767 -0.1587 -0.0774
22713W        W39561   2.043  12.996  16.299  0.0944  0.1053  0.0240
22714W        W39562   4.936  17.741  11.985  0.1858  0.1030  0.1292
22715W        W39563   2.340  10.116  14.620 -0.0836  0.1592  0.0417
22716W        W39564  14.917   5.448   4.521  0.1630  0.2614 -0.0956
22717W        W39565   6.258  14.380  12.595 -0.0419  0.2435  0.0928
22718W        W39566  14.811   2.688  16.240 -0.0669 -0.1560  0.1583
22719W        W39567  10.156   0.876   4.859 -0.0829  0.0313  0.0901
22720W        W39568  16.062   8.233   0.406 -0.1091  0.0331 -0.0659
22721W        W39569   4.194  11.791   4.534 -0.0944 -0.2757 -0.1326
22722W        W39570   1.556   1.547  11.936  0.1742  0.3117 -0.1383
22723W        W39571  16.417  15.655   1.751  0.0725  0.0250 -0.1727
22724W        W39572   1.067   6.423   1.232 -0.2115 -0.1987 -0.0613
22725W        W39573   8.113   5.509   2.718  0.0514 -0.2161 -0.0032
22726W        W39574   7.193  11.581   1.238  0.1107 -0.0291 -0.3580
22727W        W39575   5.119   6.160  11.661  0.0378  0.2719  0.0397
22728W        W39576  14.205  15.690  14.864 -0.0504  0.1071  0.1717
22729W        W39577   6.793  16.894  11.646 -0.0333 -0.1057 -0.2325
22730W        W39578  16.233   8.467   4.399  0.1875 -0.0199  0.2261
22731W        W39579  11.650   2.978   5.023 -0.1324  0.2299  0.0494
22732W        W39580   7.064  16.940   3.396 -0.1933 -0.3716  0.1247
22733W        W39581   5.138   6.041   3.399 -0.0010 -0.0351  0.3919
22734W        W39582   6.362  11.307   4.658 -0.2099 -0.0518 -0.2483
22735W        W39583   4.052   3.451   2.196 -0.0220  0.2005  0.1573
22736W        W39584  15.673   6.299  15.044 -0.3728 -0.2278  0.1083
22737W        W39585   7.427  11.193  13.745 -0.0425  0.2411  0.0562
22738W        W39586   7.828   3.288  14.737 -0.3618 -0.0196  0.0882
22739W        W39587  14.856   0.090   3.822  0.1010  0.0358  0.0405
22740W        W39588  16.744   7.954  11.980 -0.1410  0.2117 -0.0147
22741W        W39589   4.407   4.345  15.913 -0.0956  0.3414 -0.3324
22742W        W39590   0.215   3.999   1.909  0.0705  0.0040 -0.1368
22743W        W39591   7.559  12.899  12.915 -0.0811  0.1129  0.1076
22744W        W39592   9.088   1.521  15.132 -0.3196  0.0028 -0.1447
22745W        W39593  13.808   4.234   0.115  0.1953  0.3356  0.2403
22746W        W39594   7.760   7.605  16.136 -0.1905 -0.3783  0.2961
22747W        W39595   0.606  15.465  15.856  0.2518 -0.1349  0.0435
22748W        W39596   2.167   9.154   3.053 -0.0122  0.1296  0.1542
22749W        W39597   4.098   9.734  15.446  0.0742  0.1129  0.1626
22750W        W39598   5.160   0.910   0.864 -0.2094 -0.1416  0.0364
22751W        W39599   3.942  13.178   5.288 -0.0402  0.1194  0.0806
22752W        W39600   9.718   3.855   2.254 -0.1198  0.2224 -0.0707
22753W        W39601   6.009   9.946   5.037 -0.0793 -0.0432  0.0414
22754W        W39602   5.135  13.794   5.315 -0.3204 -0.1122  0.2096
22755W        W39603  14.107  14.991   4.687 -0.0677  0.1426  0.1633
22756W        W39604   2.816  13.265   1.507 -0.1267 -0.2384 -0.1625
22757W        W39605   3.855   0.530  16.188 -0.0804 -0.0359  0.2162
22758W        W39606   9.793   9.416  12.904  0.3623 -0.1608 -0.0205
22759W        W39607  15.823  15.951   3.268 -0.3233  0.1579  0.2767
22760W        W39608   8.826  17.359   4.871 -0.0453  0.0238  0.0150
22761W        W39609   5.536  12.746  11.473 -0.2972 -0.0295  0.1470
22762W        W39610  13.446  14.905  13.106  0.0382 -0.1713  0.2074
22763W        W39611  11.700   3.837   3.113  0.0217  0.1350 -0.1569
22764W        W39612  11.129   7.320   3.519 -0.1592 -0.2689  0.2495
22765W        W39613  13.743  11.398  15.479 -0.0770  0.3648 -0.1417
22766W        W39614   3.045   2.499  11.204 -0.0515  0.0321  0.0857
22767W        W39615   7.387  15.380   2.436  0.3288 -0.0901 -0.2077
22768W        W39616   1.685   4.142  10.913  0.2623  0.1369 -0.2399
22769W        W39617  14.027  11.015  13.441 -0.0475  0.2579 -0.1571
22770W        W39618   1.218  17.347  16.142 -0.1647  0.2782  0.1263
22771W        W39619   1.342  11.905   1.158 -0.2154 -0.1121 -0.0725
22772W        W39620   2.607  15.399  13.647  0.1659  0.1307  0.1099
22773W        W39621   2.602  11.253  11.021  0.0596 -0.1546  0.1768
22774W        W39622  17.605  15.280  14.468  0.0761  0.1731  0.3434
22775W        W39623  12.276  10.970   4.565  0.1559  0.2438 -0.1228
22776W        W39624   4.344  13.244   4.623 -0.0117  0.1301 -0.0684
22777W        W39625   4.610   6.216  14.376  0.1014 -0.4815  0.1208
22778W        W39626   4.208  10.845   2.787 -0.1435 -0.0979 -0.0264
22779W        W39627   0.930  16.374  13.616  0.0191 -0.0023  0.1112
22780W        W39628   8.233  16.238  12.650  0.0690  0.0663 -0.0409
22781W        W39629   3.326   5.061   4.665  0.1559  0.2281  0.3173
22782W        W39630  10.772   2.776  15.113  0.2165 -0.0171  0.1183
22783W        W39631   3.564   1.458   4.644  0.1040  0.2863  0.3783
22784W        W39632  12.457  10.451  10.483 -0.0207 -0.1542  0.0499
22785W        W39633  16.672   8.867   0.301 -0.1882  0.0724 -0.0510
22786W        W39634   7.664   6.423   4.024  0.2758 -0.4217  0.1771
22787W        W39635  15.283   3.083  16.525  0.3201  0.2209  0.2526
22788W        W39636  13.665   4.430   1.497  0.1799 -0.1753  0.0326
22789W        W39637  15.499  11.209  13.433  0.2780  0.2766 -0.6593
22790W        W39638  12.460  10.744  16.458  0.1112  0.0227 -0.2654
22791W        W39639  16.116  11.354   4.227 -0.3585 -0.0026 -0.0267
22792W        W39640   3.288  11.555   0.986  0.1965  0.2174  0.1285
22793W        W39641   3.918   2.965  15.243  0.3187 -0.2322  0.3400
22794W        W39642  10.817  15.396  16.133  0.0136 -0.0237 -0.2509
22795W        W39643  17.304   0.301   3.343  0.0071  0.0357 -0.2688
22796W        W39644  12.822   3.237  13.257 -0.1135 -0.4051  0.2264
22797W        W39645  13.527   4.795   0.793 -0.2709 -0.1966  0.0740
22798W        W39646   4.397   4.651   5.266 -0.0642 -0.0581 -0.1770
22799W        W39647   3.706  16.147  12.032 -0.1062  0.3247 -0.1118
22800W        W39648   3.224   5.864  11.198 -0.0039  0.0131 -0.2728
22801W        W39649   3.486  14.967  16.538  0.0890  0.3738 -0.1100
22802W        W39650   1.755   0.440   1.921  0.3863 -0.1065  0.2378
22803W        W39651   4.312  14.600   3.862 -0.0999 -0.0867  0.2711
22804W        W39652  16.472  15.097  14.656  0.0122  0.3703  0.0670
22805W        W39653   8.637   4.460  16.463  0.2920 -0.1178 -0.0430
22806W        W39654   0.723  12.598  11.016 -0.0722  0.0323 -0.2221
22807W        W39655  13.794   3.099   1.781  0.1113  0.0993  0.3094
22808W        W39656  14.460  16.252  10.909  0.2413 -0.2823  0.0468
22809W        W39657   5.961   1.616   3.271 -0.0877 -0.1056 -0.0283
22810W        W39658  17.192   0.074   4.232 -0.0042 -0.0161  0.0904
22811W        W39659  15.747   3.422   4.415 -0.0427 -0.0852 -0.0090
22812W        W39660   8.368  16.737  12.796 -0.0853  0.3013 -0.0651
22813W        W39661  15.010   4.216  13.150  0.2651 -0.0650  0.2792
22814W        W39662   9.191  11.699  12.968 -0.1432  0.3052 -0.0032
22815W        W39663  17.084   4.840  10.651 -0.1586  0.0163  0.2350
22816W        W39664  17.054   8.817  15.553  0.2452  0.1227 -0.0452
22817W        W39665  16.113  11.027   2.905  0.1959 -0.0015  0.1356
22818W        W39666  11.124   7.870  14.895  0.0682  0.3704  0.1940
22819W        W39667   5.174   3.918  14.405  0.1520  0.3578  0.0920
22820W        W39668   5.035   1.896   3.106  0.0866  0.0522  0.1318
22821W        W39669   9.498   9.578  14.438  0.1010 -0.1034 -0.2123
22822W        W39670  11.619  17.584   3.038  0.0331 -0.1818 -0.1781
22823W        W39671   7.939  10.239  14.790 -0.1600  0.2060  0.0758
22824W        W39672   3.395   5.700  11.903  0.1205 -0.1255  0.1205
22825W        W39673   8.533   5.886  12.769  0.0382 -0.1017 -0.1085
22826W        W39674   3.853  17.525   6.010 -0.1008 -0.2630  0.0517
22827W        W39675  17.135  11.955  12.549  0.2818  0.0677  0.2555
22828W        W39676   6.645   1.349  14.246  0.1454 -0.0491 -0.3919
22829W        W39677   6.206  13.191   4.873  0.0513 -0.0247  0.1024
22830W        W39678   9.704   4.634   3.518  0.0784 -0.0040  0.0820
22831W        W39679   7.233   8.849  14.401  0.0004  0.0142  0.1582
22832W        W39680   5.900  16.012  12.396  0.0855 -0.1813 -0.0248
22833W        W39681  13.353   2.108   2.084  0.1212 -0.1237  0.2021
22834W        W39682  11.254   0.755  16.087  0.1826  0.4909  0.0561
22835W        W39683  11.145   9.675  16.386  0.0712 -0.3172  0.1837
22836W        W39684   8.668  16.224   1.539 -0.3270 -0.3324 -0.0936
22837W        W39685  10.603   9.927   1.056 -0.0603 -0.0058  0.0699
22838W        W39686  16.157  12.216  12.345 -0.0455  0.0842 -0.2060
22839W        W39687   1.206  14.599   2.415  0.2331 -0.1510  0.0860
22840W        W39688   2.775   5.556  12.423  0.0669  0.2147  0.2322
22841W        W39689   5.362  10.164   4.232  0.1108 -0.0007 -0.0516
22842W        W39690  17.029  15.529   2.991  0.0096  0.2460  0.0117
22843W        W39691  17.022  16.296   6.379  0.1249 -0.1523  0.2833
22844W        W39692   6.741   9.289   5.268  0.0445  0.1573  0.3931
22845W        W39693  12.123  11.744   3.056 -0.3524  0.0902 -0.0335
22846W        W39694   1.490  14.102  12.260 -0.0331  0.0303 -0.1649
22847W        W39695   0.689  16.499   0.354 -0.0641 -0.0280  0.0054
22848W        W39696   8.631   7.352  15.395 -0.2936 -0.0563  0.0234
22849W        W39697  15.175  14.246  15.387  0.1285 -0.1417  0.0107
22850W        W39698   2.010  17.394   5.212  0.1475  0.1938  0.0435
22851W        W39699   7.320   8.000  13.154 -0.2742  0.2196 -0.0142
22852W        W39700   1.270  13.789  15.090  0.1564 -0.2672  0.0737
22853W        W39701   3.476   8.214   2.341 -0.2926  0.2026 -0.1999
22854W        W39702  11.975  13.228  11.643 -0.0076  0.0090  0.2169
22855W        W39703   4.760  12.389  11.087 -0.3199  0.1276  0.1296
22856W        W39704   3.217   9.261   2.367 -0.0417  0.0024 -0.1447
22857W        W39705   0.630  12.896   0.453 -0.0161  0.0059  0.0018
22858W        W39706  12.596   5.547   3.343 -0.0212  0.1008 -0.1273
22859W        W39707  17.252  15.464   1.869  0.2036 -0.0781  0.1429
22860W        W39708   1.506  11.238  15.154  0.1334  0.1176  0.1692
22861W        W39709   1.248  11.192   3.309 -0.2523  0.2909  0.1316
22862W        W39710  14.565  16.678  12.857 -0.4194 -0.2816  0.0888
22863W        W39711  16.373   2.275   2.601 -0.2622  0.0022 -0.1074
22864W        W39712   0.388  12.600   6.015  0.3512 -0.0923 -0.1979
22865W        W39713  11.851  13.064   3.656 -0.1875  0.3081 -0.4062
22866W        W39714  14.209  13.859   0.079  0.0275 -0.0777  0.3208
22867W        W39715  16.281  14.155  16.376  0.0652 -0.0221 -0.3228
22868W        W39716  11.546  16.158   3.436 -0.0754  0.4711 -0.3890
22869W        W39717  13.259  11.478  12.909  0.0805 -0.2181 -0.0170
22870W        W39718   5.189  15.879  12.495 -0.1160 -0.0529  0.1702
22871W        W39719   8.343  12.246   0.322 -0.0178 -0.1239 -0.0171
22872W        W39720  12.325   1.945   2.549 -0.0427 -0.1060  0.0499
22873W        W39721  15.586  15.364  13.504 -0.0153 -0.0739 -0.2476
22874W        W39722  12.251  10.806  11.735  0.5830  0.0494 -0.1235
22875W        W39723   5.365  11.711  15.145  0.1863  0.4488  0.0525
22876W        W39724   0.646   7.499   5.012 -0.1023  0.0534  0.0430
22877W        W39725   7.714   5.028   1.839  0.0020  0.0625 -0.4812
22878W        W39726   9.220   9.303  12.603 -0.0215 -0.1317  0.2944
22879W        W39727   3.213   2.200   3.473  0.2679  0.1621  0.0467
22880W        W39728  13.354   4.893  14.609 -0.2447 -0.0147 -0.2515
22881W        W39729  13.407   4.106   4.595  0.0621  0.0768  0.1309
22882W        W39730   3.398  11.271  16.560  0.0959 -0.1531  0.2706
22883W        W39731  17.094   6.335  10.582  0.2407 -0.0943  0.1951
22884W        W39732   8.763   2.774  12.438  0.0114  0.2213 -0.2151
22885W        W39733   3.079   4.682  12.689 -0.0364  0.0061  0.2394
22886W        W39734   0.820  12.082   3.793 -0.0463  0.0275 -0.1014
22887W        W39735   7.707   5.501   0.195 -0.0139  0.0899 -0.0449
22888W        W39736  11.226   3.195   0.244  0.0558 -0.1555 -0.2170
22889W        W39737  11.354  15.995   4.322  0.1975 -0.3266  0.0580
22890W        W39738  17.085   7.175  12.199 -0.1734 -0.0179 -0.0044
22891W        W39739  16.758  14.055  13.850  0.0757 -0.3095  0.0979
22892W        W39740   8.243   7.888   0.441  0.0051  0.1372  0.0061
22893W        W39741   2.922  16.926   1.634  0.0331 -0.3158  0.1128
22894W        W39742   1.379   7.614  15.640  0.0374 -0.1955 -0.1213
22895W        W39743   7.160  14.048  12.753  0.1811  0.4013 -0.0782
22896W        W39744  13.276   1.097  13.695 -0.3713 -0.2284 -0.1532
22897W        W39745  17.400   9.334   3.636 -0.1385 -0.1516 -0.1598
22898W        W39746  12.362  12.266   3.697  0.0285  0.0104  0.2595
22899W        W39747   6.005   3.143  11.726 -0.0725  0.3206  0.0339
22900W        W39748  15.701  15.312  12.796  0.2376 -0.0552 -0.0427
22901W        W39749  15.212  14.853  15.301 -0.0846  0.2871  0.2449
22902W        W39750  11.491  10.554   3.544 -0.4642  0.1399 -0.0465
22903W        W39751  11.627  14.480  13.342  0.0613  0.1025  0.1635
22904W        W39752  10.845  10.444   0.325  0.2051  0.0285 -0.2702
22905W        W39753  15.600   2.731  11.649 -0.3119  0.0650 -0.1113
22906W        W39754  13.219  12.253   4.913  0.2922 -0.4554 -0.1892
22907W        W39755  14.059  14.158   3.251  0.0436  0.1466  0.0574
22908W        W39756  10.157   8.889   2.586 -0.0841  0.0215 -0.2138
22909W        W39757  17.615  13.071  10.677  0.2967 -0.0322 -0.3519
22910W        W39758  16.591   6.480  11.883  0.1478  0.1884 -0.0374
22911W        W39759   6.807  10.595   1.257  0.2371 -0.0484 -0.3485
22912W        W39760   1.991   6.782  13.615  0.0765 -0.0190 -0.0985
22913W        W39761   4.181  15.201   6.514 -0.0806 -0.1229 -0.2933
22914W        W39762   7.954   5.824   2.275  0.0968  0.1568 -0.1881
22915W        W39763  16.917   4.914   0.773  0.3578  0.0932  0.0946
22916W        W39764   8.105   6.131   3.981 -0.0438 -0.2150  0.2752
22917W        W39765  14.113   4.292   5.478 -0.0681 -0.0777  0.3808
22918W        W39766  17.644  11.796   2.050 -0.1403  0.0355  0.1436
22919W        W39767  17.545   3.375   4.982 -0.0986 -0.2119  0.0139
22920W        W39768   7.408  17.756   3.798 -0.0118 -0.1358  0.3020
22921W        W39769   1.677   6.255  12.163  0.1899 -0.0126 -0.0322
22922W        W39770   8.855   4.035   2.233  0.3308 -0.2869 -0.3154
22923W        W39771   1.839  15.931   5.280 -0.3610 -0.0504 -0.0504
22924W        W39772   8.104   6.621   3.881  0.0204  0.0235 -0.1224
22925W        W39773   7.661  10.730  12.960 -0.1966  0.1846 -0.0435
22926W        W39774   2.412   7.683   6.206 -0.1032 -0.2624 -0.2030
22927W        W39775   2.323  16.394  13.754 -0.0509  0.5141  0.1698
22928W        W39776   2.036  15.297   4.928 -0.2620 -0.4134  0.1098
22929W        W39777   3.917  14.130   2.588  0.1818  0.2502 -0.0474
22930W        W39778   0.894  11.877  11.965 -0.2591  0.1584 -0.0232
22931W        W39779  12.528  16.402  12.994 -0.2992 -0.1604 -0.0325
22932W        W39780   0.930   1.265   0.529  0.0518 -0.0385  0.3733
22933W        W39781   8.487   2.316  12.295 -0.0849  0.3092 -0.0066
22934W        W39782   6.315  13.557   2.533  0.0232 -0.0083  0.0820
22935W        W39783  15.856   1.713   4.302 -0.6209 -0.3965  0.0238
22936W        W39784  13.853  15.160  11.339 -0.1391 -0.3792 -0.3774
22937W        W39785  10.239   8.841  14.069 -0.1107 -0.4215  0.4356
22938W        W39786  16.024   9.104  11.684 -0.1170 -0.0984  0.1497
22939W        W39787   8.775  16.920  14.191  0.1137 -0.1674 -0.0155
22940W        W39788  15.126   7.398   4.386  0.1022 -0.0194 -0.0253
22941W        W39789   4.877   9.954  15.671  0.0194 -0.0233  0.0285
22942W        W39790  12.727  11.022   6.182 -0.1548  0.0324  0.2888
22943W        W39791  12.671   1.643   2.533 -0.1680  0.0734 -0.1222
22944W        W39792   8.087  13.406  15.515 -0.1371 -0.1224 -0.1570
22945W        W39793   6.046  16.780   2.903  0.0150  0.1067 -0.1699
22946W        W39794  10.124   8.460  12.283 -0.1545  0.1244  0.0054
22947W        W39795  13.752   7.916  11.961  0.0198  0.0306  0.1498
22948W        W39796  12.205  15.388  15.317  0.0928 -0.2486  0.0121
22949W        W39797  13.147   6.798  12.852  0.0256  0.1557 -0.2343
22950W        W39798   8.667   1.630  15.465  0.0087 -0.0363 -0.0003
22951W        W39799  12.931   0.833  16.587 -0.2365 -0.1069  0.1537
22952W        W39800  16.790   8.419  15.756 -0.0714  0.0364  0.1738
22953W        W39801   5.048  11.430  11.100 -0.0189  0.1318  0.0276
22954W        W39802   1.943   6.699   2.538  0.0272  0.1158  0.0208
22955W        W39803   1.357   8.115  11.534 -0.1213 -0.2137  0.2387
22956W        W39804   6.696  14.198  12.369  0.2803 -0.3151 -0.0628
22957W        W39805   6.598   6.733   5.116 -0.4489 -0.0030  0.2472
22958W        W39806   3.200  17.648  14.669 -0.0675  0.0480  0.0019
22959W        W39807   1.456  16.512  13.536 -0.0241  0.0535  0.0336
22960W        W39808  16.891  15.770  15.670  0.0590 -0.1206 -0.0210
22961W        W39809   6.936   1.623  10.834 -0.0893 -0.2080 -0.1557
22962W        W39810   1.021   3.571   3.783  0.0357 -0.2806 -0.1403
22963W        W39811  10.402   9.832  12.453 -0.0272  0.0479 -0.0950
22964W        W39812   3.281   8.546   2.029 -0.1171 -0.0067 -0.2079
22965W        W39813   3.907  16.927  15.341  0.0398  0.0600 -0.3371
22966W        W39814  14.296  10.062  15.862  0.1412 -0.0720  0.1276
22967W        W39815   5.647   1.282  11.882  0.0805  0.2042 -0.1379
22968W        W39816  17.435   5.559   4.474  0.1187  0.0074  0.1988
22969W        W39817  15.683   5.383  14.169 -0.0624  0.0859  0.1690
22970W        W39818   5.511  13.378  13.845  0.0486  0.1175 -0.2412
22971W        W39819  10.744   9.117   3.955  0.0055 -0.0421  0.1714
22972W        W39820  13.301  10.028  15.466 -0.1057  0.0908  0.0963
22973W        W39821   7.167  11.427   4.369  0.4012  0.0536  0.0252
22974W        W39822  13.035   0.306  13.973 -0.4933 -0.0085  0.0299
22975W        W39823  14.100   8.527   2.890 -0.0459 -0.0369 -0.0380
22976W        W39824   5.148  14.192   0.418 -0.2859 -0.2311  0.3862
22977W        W39825   8.600  11.026  12.452  0.1540 -0.1443  0.2553
22978W        W39826  17.662  13.956   3.793  0.0873  0.2472 -0.0817
22979W        W39827  14.388   8.111  14.106  0.1723  0.1278  0.0053
22980W        W39828  13.149   6.814   5.133  0.1805 -0.0046  0.1710
22981W        W39829  10.085   5.556  14.394  0.1205 -0.0677 -0.1385
22982W        W39830  16.918  13.713   3.198  0.3296  0.4747  0.0719
22983W        W39831  13.927   9.406   3.209  0.4456 -0.0969 -0.0948
22984W        W39832   7.308  14.952   0.205  0.0465 -0.1295  0.3072
22985W        W39833   0.280  12.052   6.080 -0.1712 -0.0396  0.1953
22986W        W39834   1.809  13.017  14.866 -0.2299  0.4030 -0.1456
22987W        W39835  12.074   9.183   1.805  0.0576  0.0668  0.3036
22988W        W39836   1.328  14.341   5.675 -0.2818 -0.1754  0.0728
22989W        W39837  12.760  16.527  15.473 -0.0412  0.0226 -0.2179
22990W        W39838   0.659   4.785   0.857 -0.0125  0.0565  0.0769
22991W        W39839   8.815   4.905  14.508 -0.0548 -0.0943 -0.1080
22992W        W39840   2.783   0.655  13.837  0.2650 -0.1479 -0.3256
22993W        W39841   4.437   7.041  15.319  0.3157 -0.0032 -0.2010
22994W        W39842   4.908  11.200  12.409 -0.0807  0.1413 -0.0940
22995W        W39843  15.650  16.865   2.686 -0.0871  0.1186  0.4569
22996W        W39844   1.592   6.397  16.295  0.0023 -0.1629 -0.0537
22997W        W39845  10.968   2.669  11.645 -0.2851  0.2074 -0.0051
22998W        W39846   3.698   3.743  12.944 -0.0024 -0.1919 -0.2552
22999W        W39847   1.921   6.019  12.604  0.0144 -0.0408  0.0788
23000W        W39848   4.180  14.849   3.402  0.2870  0.2061  0.2463
23001W        W39849   8.303  12.546  16.498  0.0332 -0.0074 -0.1923
23002W        W39850   6.865   1.693  11.698 -0.0914 -0.0552  0.0412
23003W        W39851   3.350   9.683   1.474  0.2923  0.1289 -0.3302
23004W        W39852   7.555  17.458   2.360  0.1510  0.1060  0.0971
23005W        W39853  12.991   5.692   3.865 -0.0328 -0.3915  0.0840
23006W        W39854   8.292   1.762   3.261 -0.0406  0.0068 -0.1181
23007W        W39855  10.078   1.879  16.052  0.1838  0.1206  0.0611
23008W        W39856  15.677  10.249   4.948  0.0009 -0.2978  0.1008
23009W        W39857  12.716  10.947   3.177 -0.0105 -0.0304 -0.1428
23010W        W39858   7.117   7.057  13.516 -0.1169 -0.0537 -0.0498
23011W        W39859   6.260   0.189   1.877  0.1614  0.0866  0.1574
23012W        W39860  15.346   4.350  13.724  0.1477  0.2444  0.2774
23013W        W39861   9.488  13.346  14.470  0.3879 -0.3993 -0.4324
23014W        W39862  16.172  13.527   1.496 -0.2331 -0.2134 -0.0182
23015W        W39863  12.950  11.699  14.248 -0.2365  0.1050  0.1398
23016W        W39864   6.113   0.954   4.117 -0.3477 -0.0013  0.0128
23017W        W39865  10.926   1.955  16.528 -0.0093  0.2866  0.0503
23018W        W39866   8.727  13.020   0.479 -0.0744 -0.1574 -0.0773
23019W        W39867  11.451   4.310   0.419 -0.2986 -0.0285 -0.3241
23020W        W39868   3.719  10.397  14.155 -0.2551 -0.0929  0.0392
23021W        W39869  16.035   4.277   0.345 -0.1401 -0.3846  0.0628
23022W        W39870  14.624   0.783   3.241 -0.0935 -0.1687 -0.2210
23023W        W39871  10.238  10.646  12.002  0.3524 -0.0158 -0.1289
23024W        W39872   6.913  17.740   3.766 -0.1427  0.2282  0.3035
23025W        W39873  11.673   1.901  15.867  0.2311  0.3637 -0.1232
23026W        W39874   5.287   0.488  14.445  0.0160  0.1345  0.3757
23027W        W39875   3.931  11.158   4.012  0.0910  0.3299  0.0339
23028W        W39876   5.771  10.067  12.296  0.2425  0.2554 -0.3227
23029W        W39877   7.700   4.106  14.861 -0.1719  0.0448 -0.0095
23030W        W39878  11.656  17.025  11.256  0.0271 -0.1683  0.2583
23031W        W39879   5.161   9.998  16.112 -0.2965 -0.1977  0.1706
23032W        W39880  11.939   3.567  12.265 -0.0456  0.1402  0.1893
23033W        W39881   2.132   7.607  13.554  0.1859 -0.1709 -0.1724
23034W        W39882   4.508   9.121   2.244  0.3134  0.2913  0.3843
23035W        W39883   1.092   8.500   1.738 -0.1766 -0.3236  0.0005
23036W        W39884  11.545  16.383  12.150  0.0792 -0.1742  0.2676
23037W        W39885   2.425  12.060   4.291  0.3225  0.2818 -0.0958
23038W        W39886   5.490   4.325   1.273  0.2188  0.4956  0.0410
23039W        W39887   1.883   4.176  16.162 -0.0688 -0.1287 -0.2477
23040W        W39888  10.748  11.586   2.444 -0.0722 -0.2539  0.1982
23041W        W39889  12.152   0.770   2.103 -0.2414 -0.0028 -0.0869
23042W        W39890  12.407  15.079   2.750 -0.0468  0.0751  0.1022
23043W        W39891  14.705   3.133   5.634 -0.1521  0.1926  0.0238
23044W        W39892  14.422  17.254   2.294  0.0911  0.0449  0.0628
23045W        W39893  13.588  12.251  15.036  0.5742  0.0220  0.0564
23046W        W39894   9.348  17.036  15.446 -0.1555 -0.2386 -0.0278
23047W        W39895  11.024   2.969   4.897 -0.2374  0.2047  0.0501
23048W        W39896   1.417   1.289   2.277  0.1145 -0.2395 -0.0485
23049W        W39897  11.902  14.009  12.796  0.2301 -0.2351  0.1154
23050W        W39898  12.770   4.760  16.248  0.0418 -0.1491 -0.1223
23051W        W39899   6.950   8.656  15.612 -0.0172 -0.1219 -0.2581
23052W        W39900   1.752   1.543   3.031  0.1125 -0.0778 -0.0185
23053W        W39901  12.044  16.563   5.389 -0.1142 -0.0441  0.1204
23054W        W39902  11.692  17.143  14.489  0.1138  0.3436  0.0410
23055W        W39903   7.486   2.573   4.131  0.0546  0.0851 -0.0723
23056W        W39904   6.746   1.210  11.624  0.1162  0.1941 -0.1694
23057W        W39905  10.279   3.287   4.322 -0.0877  0.0559  0.1439
23058W        W39906   1.143   5.425  13.715 -0.2001 -0.3620  0.0629
23059W        W39907  11.902  13.843  11.977  0.2417 -0.0466  0.1381
23060W        W39908  14.659   8.136  15.795 -0.1652 -0.0608  0.3283
23061W        W39909   6.508   4.475  12.304 -0.0124  0.0740  0.0818
23062W        W39910   2.671   5.513   0.708 -0.4606 -0.2931  0.2146
23063W        W39911   9.937  16.126   0.482  0.2673  0.1470  0.1596
23064W        W39912   8.918  13.882  15.669  0.0769 -0.0311  0.2424
23065W        W39913   6.886  10.131  13.836  0.4761  0.0241 -0.0149
23066W        W39914  15.723   4.010   3.946  0.3072 -0.1918 -0.0594
23067W        W39915   3.385  17.047   0.587 -0.1267  0.2531 -0.0387
23068W        W39916   3.164   6.024   4.224  0.0696  0.1957  0.0069
23069W        W39917  14.130  17.511   3.056 -0.0718 -0.0044 -0.0835
23070W        W39918  17.384   5.932   1.831  0.0477 -0.0559  0.3040
23071W        W39919   8.515   9.472  15.570 -0.0714  0.2945 -0.1241
23072W        W39920  16.565   6.185   3.785 -0.1245 -0.2131 -0.2618
23073W        W39921   9.285   6.536   4.032  0.3097  0.0639  0.1935
23074W        W39922   0.283  12.557  11.742 -0.4696 -0.0081 -0.1626
23075W        W39923   4.127   9.227   1.402  0.1469 -0.1396 -0.2264
23076W        W39924  13.041  11.965   3.613 -0.1647  0.0539 -0.1741
23077W        W39925  16.697  11.899   4.909 -0.1434  0.1224  0.0008
23078W        W39926   8.462   9.354   4.739 -0.2406 -0.0081  0.1749
23079W        W39927   0.791   8.864   0.369 -0.0845  0.1874  0.0673
23080W        W39928   8.059   2.071   1.902  0.0400 -0.2671  0.0067
23081W        W39929  13.519   6.663   4.776  0.0709  0.0003 -0.4444
23082W        W39930   5.024  16.640  12.921 -0.0754  0.0738  0.0087
23083W        W39931  10.861   4.548   4.104 -0.0080 -0.2014 -0.2026
23084W        W39932   4.032  16.083   4.241 -0.0136  0.2083  0.1849
23085W        W39933   9.901  13.431  13.278  0.0473 -0.2233 -0.1358
23086W        W39934  17.774   9.068  14.209 -0.1690  0.2752 -0.3616
23087W        W39935  14.546   2.701   3.659  0.0906  0.0926 -0.0214
23088W        W39936  16.519  14.925   2.193 -0.2091  0.0025  0.2058
23089W        W39937   2.589   3.486   3.040 -0.1588  0.0426  0.0214
23090W        W39938  14.324   4.270   0.245  0.0934  0.1152  0.2816
23091W        W39939  14.220  12.088  14.799  0.2959  0.3163  0.2902
23092W        W39940  12.506   8.777   4.161  0.2510 -0.1238  0.3792
23093W        W39941  12.105  15.657   3.276 -0.1199 -0.1771  0.0563
23094W        W39942   4.254  13.138  16.097 -0.0012 -0.1044  0.0441
23095W        W39943   2.728   0.682   1.818  0.0886  0.1814  0.1338
23096W        W39944   2.877   8.414  11.502  0.1047  0.1583 -0.1355
23097W        W39945  15.999   7.039  10.306 -0.0105  0.2520  0.0609
23098W        W39946  14.521   8.522   2.525 -0.0464  0.0428 -0.0574
23099W        W39947   5.480   9.366  11.913 -0.1423  0.1595  0.0122
23100W        W39948  10.313  10.090  16.002  0.1035 -0.0308 -0.0108
23101W        W39949   4.506   8.232   4.265  0.1827  0.0735  0.0734
23102W        W39950   8.903   5.131   3.167 -0.0793  0.1096 -0.2220
23103W        W39951  12.234   5.636   5.941  0.4039 -0.0007  0.1033
23104W        W39952   4.780  16.454   0.354  0.0282 -0.1318 -0.0263
23105W        W39953   0.857  13.732  10.660  0.0460  0.2968 -0.3500
23106W        W39954  14.711   4.467   0.544  0.2834 -0.2587  0.0843
23107W        W39955   6.723  15.097   0.985  0.0176 -0.0842 -0.0606
23108W        W39956   3.964   5.206   1.124  0.1217 -0.3037 -0.2779
23109W        W39957  13.256  10.303   1.143 -0.1678 -0.1056 -0.1346
23110W        W39958   0.968  15.131  14.467 -0.0155 -0.0212 -0.2500
23111W        W39959   1.748  10.286  16.401 -0.0542 -0.1045 -0.2211
23112W        W39960  13.083  16.484  11.772 -0.3566 -0.1808 -0.2147
23113W        W39961  11.150  13.316  12.841 -0.0693 -0.0266 -0.2049
23114W        W39962  13.266   8.630   4.615  0.0490  0.2357  0.2273
23115W        W39963  16.003  15.030   3.956  0.1250  0.0761 -0.1549
23116W        W39964   7.042   9.446  14.513  0.0902  0.1836  0.1010
23117W        W39965  10.093   4.968  15.184  0.0021 -0.3171  0.2899
23118W        W39966   8.616   6.579  12.041 -0.0553 -0.2122 -0.1460
23119W        W39967  13.694   5.987   5.144  0.1153 -0.1104 -0.2314
23120W        W39968   7.748  12.216  12.169  0.0980  0.1105 -0.1009
23121W        W39969  15.455   9.019  11.543  0.0636  0.1008  0.1020
23122W        W39970   5.539   1.730  11.542 -0.1010 -0.4530 -0.0039
23123W        W39971   3.571  15.441   3.644 -0.1017 -0.1268 -0.1672
23124W        W39972  14.462   4.694   4.030  0.3403 -0.2945 -0.1777
23125W        W39973   8.276  16.958  15.497  0.3248  0.1994 -0.0372
23126W        W39974   9.276   0.578   4.926  0.0629  0.0619 -0.0630
23127W        W39975  13.262   0.258  14.936  0.2469 -0.1166 -0.1209
23128W        W39976   1.648  12.501  14.642 -0.0821 -0.2529 -0.1321
23129W        W39977   4.756   2.541   5.980 -0.1930 -0.0153 -0.2459
23130W        W39978   5.932   3.514   0.714  0.2549 -0.0627  0.1847
23131W        W39979  10.779  11.947  15.375 -0.1249 -0.1153 -0.2451
23132W        W39980  10.391  17.159   1.340  0.0502  0.1500  0.1241
23133W        W39981  15.487   3.875   6.509  0.1842  0.2545 -0.0522
23134W        W39982   5.699  13.551  11.306  0.0970 -0.2873 -0.0041
23135W        W39983   6.613   8.471  11.981 -0.1268 -0.1438  0.0944
23136W        W39984   0.521   0.086   0.560 -0.4067  0.0751 -0.4579
23137W        W39985  11.639  15.173  16.609 -0.2648 -0.0689 -0.0005
23138W        W39986   1.670   4.895  11.950 -0.0736 -0.2599 -0.0741
23139W        W39987  17.298   8.623  15.103 -0.0110 -0.1825 -0.0183
23140W        W39988  11.098   2.878  13.707 -0.0269  0.5548 -0.0988
23141W        W39989   4.487   4.945  13.855 -0.2003 -0.0930  0.0764
23142W        W39990   8.089  13.339  11.734 -0.1049  0.3137  0.0506
23143W        W39991   2.540   9.365   3.583  0.0628  0.3196 -0.1223
23144W        W39992  10.208  10.560  16.081  0.2054 -0.2490  0.1922
23145W        W39993   3.508  11.138  15.501 -0.1999 -0.0543  0.2955
23146W        W39994   4.963   2.473   3.204  0.1535  0.0461  0.2373
23147W        W39995  17.779   4.421  14.832 -0.1284 -0.0624  0.1209
23148W        W39996   9.574  12.800   4.306 -0.0241  0.1219  0.2031
23149W        W39997  10.712   4.133  15.384 -0.2795 -0.1538  0.0540
23150W        W39998  13.402   8.411  14.173 -0.1030 -0.2419 -0.0742
23151W        W39999  13.844   2.067   4.119  0.1350 -0.2450 -0.3805
23152W        W40000  14.617   5.893   1.824  0.2612  0.3213  0.3086
23153W        W40001  13.316   7.207   5.418  0.0307  0.0654  0.1471
23154W        W40002   8.443  11.586  11.890  0.0800  0.4601  0.0801
23155W        W40003   5.425  13.659  14.908 -0.1061 -0.0947 -0.2779
23156W        W40004   7.378   8.191   0.206  0.2687  0.1355  0.1088
23157W        W40005  16.392   0.541   5.134  0.0548  0.1972  0.0907
23158W        W40006  14.549   0.585   4.738 -0.0819  0.0062 -0.2460
23159W        W40007   6.458  14.470  14.046  0.3264  0.2255 -0.0126
23160W        W40008   9.112   8.661   4.176  0.0685 -0.1387  0.0502
23161W        W40009   7.059   6.482  15.626 -0.1763 -0.2337 -0.0093
23162W        W40010   4.477   6.662   3.567 -0.0578  0.0956 -0.0097
23163W        W40011   0.316   4.161   1.466 -0.1344  0.1351  0.1905
23164W        W40012   8.788   2.002   3.556  0.1219  0.0609 -0.3323
23165W        W40013  12.974   9.691  14.124  0.1762  0.0223 -0.2091
23166W        W40014   7.972  17.062  16.178 -0.1657 -0.0675  0.0814
23167W        W40015  16.666   9.883   3.442 -0.0311  0.0642  0.0375
23168W        W40016  11.208  10.572  16.564  0.0488 -0.1858 -0.1357
23169W        W40017  14.670  17.606  11.998  0.1168 -0.0216 -0.0434
23170W        W40018   2.690  13.833  11.377  0.0308 -0.0234  0.1823
23171W        W40019   0.007   0.304  13.547 -0.2976 -0.3271  0.1446
23172W        W40020   9.601  13.823  14.560 -0.0215 -0.0042  0.0923
23173W        W40021  11.224  11.594  14.744  0.1100 -0.1543  0.1479
23174W        W40022   9.283   6.952  13.170 -0.0539 -0.1638 -0.3165
23175W        W40023  17.207   2.774  12.175 -0.3763 -0.3124 -0.0518
23176W        W40024   4.777   3.713   2.617  0.0026 -0.3965 -0.1715
23177W        W40025   6.104  16.057   4.723  0.3405  0.1884  0.3608
23178W        W40026  13.528   4.761  13.213  0.0287  0.4149 -0.0719
23179W        W40027  12.968  13.120  11.695 -0.1864  0.2947 -0.2053
23180W        W40028  15.326   5.999  12.359  0.0512 -0.1019  0.4775
23181W        W40029   1.751  10.412  11.846  0.2583  0.2408  0.3748
23182W        W40030  16.080  17.081   5.316  0.0105  0.2320  0.0182
23183W        W40031   8.342   6.530  12.471 -0.2606 -0.1049 -0.1179
23184W        W40032   6.783   0.617   1.259  0.3257  0.0625  0.1546
23185W        W40033   6.467   5.097  12.464 -0.0014 -0.0389 -0.1008
23186W        W40034   5.052   8.310   3.083  0.1559  0.0981 -0.4415
23187W        W40035   7.650   9.329  15.095  0.0740 -0.3337  0.1582
23188W        W40036   5.774   4.471   2.710  0.1849 -0.4280 -0.1987
23189W        W40037  10.527  13.505  14.449 -0.0468 -0.0840  0.1493
23190W        W40038   6.391  11.508  15.920 -0.0986 -0.1048 -0.2807
23191W        W40039  14.506  16.859   2.012  0.1771 -0.2620  0.3160
23192W        W40040  12.251   9.637   2.843 -0.1104 -0.0609 -0.1872
23193W        W40041   1.780   5.794   3.778 -0.0649  0.0933  0.0310
23194W        W40042   2.058  10.853  11.583 -0.0836  0.0051 -0.0234
23195W        W40043   4.148  11.270   4.484 -0.1135 -0.1784 -0.2637
23196W        W40044  10.108   4.945   4.911  0.6734 -0.2376  0.0687
23197W        W40045  15.419   3.023   4.421  0.2030 -0.0134  0.2328
23198W        W40046  14.515  12.404   0.572 -0.0034  0.1195 -0.2053
23199W        W40047   6.800   5.829  13.795  0.1913 -0.0126 -0.1406
23200W        W40048  12.565   4.528   4.473 -0.0497  0.0663  0.1230
23201W        W40049  14.836   4.949  14.675 -0.1324  0.1082  0.3359
23202W        W40050  10.113  11.958   5.898  0.0235  0.3368 -0.3755
23203W        W40051  10.450  10.319   5.131 -0.0887  0.2886  0.2127
23204W        W40052  11.861  14.153   4.882  0.1057 -0.1298 -0.0567
23205W        W40053   6.288   7.899  11.439 -0.4224  0.1760  0.0319
23206W        W40054  11.834  11.045  13.943  0.1725  0.2408  0.2128
23207W        W40055  15.631   3.792   1.338 -0.2225  0.0411 -0.1354
23208W        W40056  17.622  16.292   2.031  0.1128 -0.3713  0.1696
23209W        W40057  13.963   0.336  13.596  0.0946  0.0033  0.0697
23210W        W40058  14.031   1.379   2.896 -0.2108  0.3297  0.3507
23211W        W40059  12.910  10.647  12.016  0.1704  0.0631  0.0533
23212W        W40060  12.096  16.859   1.955  0.0048  0.0538 -0.1484
23213W        W40061   8.958  16.207   5.361 -0.0904  0.0962  0.4021
23214W        W40062  13.018  11.539   1.503  0.1459 -0.1302 -0.3018
23215W        W40063  14.049  16.473  12.836 -0.1764 -0.3197 -0.4100
23216W        W40064   4.635   5.758   4.344 -0.0012  0.1483  0.0449
23217W        W40065  13.260  10.897   3.799 -0.0682  0.0355 -0.0830
23218W        W40066   7.978   5.332  16.100  0.1444 -0.0655 -0.0542
23219W        W40067   2.245   3.769   2.826  0.2442 -0.0765  0.0757
23220W        W40068   1.752  15.370   0.367  0.1534  0.0204 -0.1381
23221W        W40069   3.129  10.934   4.164  0.2573 -0.0458 -0.2023
23222W        W40070   4.925  15.805   4.106  0.0670  0.0613 -0.0935
23223W        W40071   8.441   8.265   5.643  0.5289 -0.0245  0.4482
23224W        W40072  14.339   3.930  10.845  0.0297 -0.3223  0.0287
23225W        W40073  11.804   7.437   0.859  0.1854 -0.1644 -0.0680
23226W        W40074  13.112  15.020  11.804  0.1042  0.2036 -0.3435
23227W        W40075   3.251   7.151   1.596 -0.2131 -0.1906  0.0467
23228W        W40076   6.227   9.684   4.613 -0.1358  0.2626  0.1141
23229W        W40077   7.236  12.943   1.116  0.1144 -0.0556  0.3518
23230W        W40078   5.519   8.062   2.343 -0.2064 -0.0959 -0.0507
23231W        W40079  16.239   7.870  16.493  0.4292  0.0687 -0.0206
23232W        W40080   5.219  17.649  12.901 -0.1305 -0.0067  0.1920
23233W        W40081  11.594  13.868  14.533 -0.1495 -0.0565 -0.2674
23234W        W40082   0.672   9.860  13.324  0.1152 -0.0990  0.0668
23235W        W40083   4.744   0.347   4.103  0.0447 -0.3528  0.1986
23236W        W40084  11.691  16.180  13.058  0.1830  0.4218 -0.1924
23237W        W40085   4.944   9.177  12.225  0.1477 -0.2445  0.2796
23238W        W40086  10.554   6.468   3.485  0.2760 -0.0775 -0.0991
23239W        W40087   8.864   0.187  11.841  0.1279  0.1002 -0.0952
23240W        W40088   4.824   9.533   2.649 -0.0497 -0.0646 -0.0862
23241W        W40089   5.310  13.739   4.798  0.1387  0.0380 -0.2220
23242W        W40090  12.480   8.586  16.058 -0.0281  0.1914  0.1263
23243W        W40091  16.881  12.612  16.261 -0.2453  0.0337 -0.2178
23244W        W40092   4.535  15.663   2.222 -0.1969  0.1848 -0.1678
23245W        W40093  15.888   0.201  12.782 -0.0302  0.4128  0.2352
23246W        W40094   5.264   5.185  11.542 -0.1894  0.1250  0.0207
23247W        W40095   6.536   7.455   0.782 -0.1844 -0.1651 -0.2453
23248W        W40096   6.369  16.054  16.269 -0.2261  0.3717 -0.0704
23249W        W40097  14.064  14.062   3.730 -0.0181 -0.5547  0.2808
23250W        W40098  13.933   0.176   1.604 -0.3374 -0.1032  0.1993
23251W        W40099   2.770  13.003  15.329  0.2521  0.0864  0.2731
23252W        W40100   2.666  16.841   4.678 -0.4709 -0.1043 -0.0512
23253W        W40101  13.418  15.119  12.155  0.0356  0.0042  0.4689
23254W        W40102   8.546  14.216  14.962  0.1061 -0.2139 -0.4136
23255W        W40103   5.820   7.602  14.292  0.1077  0.1793  0.0379
23256W        W40104   1.163   0.405   3.252 -0.1128  0.1757  0.0609
23257W        W40105  15.079  12.400  16.287  0.0784  0.0906 -0.1677
23258W        W40106   8.035  10.621  11.580  0.0509 -0.3798 -0.0723
23259W        W40107  10.768   1.053  13.789  0.0021  0.0760  0.0640
23260W        W40108   7.100  14.326   3.641 -0.1244  0.4951 -0.4021
23261W        W40109   7.462  16.009   0.663  0.1679 -0.1721 -0.0580
23262W        W40110   5.576   1.669  12.218  0.0472 -0.0909  0.1282
23263W        W40111  15.161   0.456   4.210 -0.1781  0.3273  0.0884
23264W        W40112  13.807   0.423  14.903 -0.0197 -0.2537  0.0865
23265W        W40113   5.319   2.703  14.738 -0.1156 -0.0989 -0.0823
23266W        W40114   0.128   6.204  11.024 -0.3515  0.0007  0.1787
23267W        W40115   1.146   5.656   5.032  0.0168 -0.1724 -0.2546
23268W        W40116   8.056  17.369  11.869 -0.3391 -0.0497 -0.1516
23269W        W40117   4.245  16.450  15.990  0.1041  0.0597  0.2282
23270W        W40118   1.343   2.863  15.844  0.1874 -0.1192  0.0832
23271W        W40119  15.133  10.482  16.217 -0.1009 -0.2631 -0.1768
23272W        W40120  12.378  12.336   4.664 -0.1467  0.0007  0.2222
23273W        W40121  15.051  10.999  16.191  0.3051 -0.1333  0.0653
23274W        W40122   3.742  13.638   2.533  0.1295  0.2055  0.1791
23275W        W40123   2.764  15.421  15.202 -0.0355 -0.3818  0.0178
23276W        W40124   4.725  10.389  15.114 -0.0491  0.1631 -0.0153
23277W        W40125   0.853   8.662  12.906  0.2177 -0.0020  0.1421
23278W        W40126  17.762  10.603   4.251 -0.0569 -0.0207  0.1017
23279W        W40127  10.492   8.834  12.203  0.0252  0.4359 -0.2487
23280W        W40128   2.716   7.438  11.588  0.0718 -0.2696 -0.2352
23281W        W40129   1.451  11.899  12.557  0.1543 -0.0496  0.1054
23282W        W40130   8.902   0.848  16.015  0.1011  0.2298 -0.4932
23283W        W40131   5.152  10.706   3.231  0.2763  0.0800 -0.2347
23284W        W40132  12.808  17.066  14.666 -0.1928 -0.0924  0.0571
23285W        W40133  11.240   6.116   1.876 -0.1711  0.0113 -0.0670
23286W        W40134  14.292   5.102   2.206  0.0036  0.1483  0.0782
23287W        W40135   8.230   8.052   4.057  0.1886 -0.1187 -0.0966
23288W        W40136   9.015  15.144  15.229 -0.1349  0.2092  0.0521
23289W        W40137  17.103  16.792   4.221  0.1418  0.2710 -0.1489
23290W        W40138   1.474   9.922  10.777  0.0920  0.3763 -0.0705
23291W        W40139   5.480   2.125   2.059 -0.0770  0.3103  0.0584
23292W        W40140  10.704  17.158   3.908  0.1236  0.0427  0.2234
23293W        W40141  11.349   8.700  11.563 -0.1259 -0.3421 -0.1375
23294W        W40142   6.625   1.768  13.728  0.1233  0.3196 -0.1477
23295W        W40143   5.591   9.707  15.262  0.3588 -0.1655 -0.0832
23296W        W40144   3.325   6.204  13.645 -0.0053  0.0085  0.3055
23297W        W40145   3.294  11.557   4.733  0.4092 -0.1679  0.0411
23298W        W40146   5.798  16.824   0.015 -0.2840  0.0490  0.0658
23299W        W40147  12.792   2.944  11.597  0.1247  0.1942  0.1110
23300W        W40148   3.737  14.379   1.818  0.0110  0.2130 -0.1089
23301W        W40149  13.758  13.478  15.320  0.2911  0.0904 -0.1070
23302W        W40150   3.297  12.978   4.074  0.1002 -0.2774 -0.0806
23303W        W40151  12.968   7.450  16.443 -0.2975  0.0121 -0.2344
23304W        W40152   1.663   3.306   1.683  0.2912 -0.1341 -0.1060
23305W        W40153   9.214   7.406   0.929  0.1469  0.3574 -0.1701
23306W        W40154  16.858  13.377   2.786  0.0142 -0.2139  0.0132
23307W        W40155   5.903   9.219   2.584  0.1086  0.2861  0.1814
23308W        W40156   5.292   5.864  11.265 -0.0486 -0.0667 -0.1375
23309W        W40157  15.346   3.411  13.464  0.0956  0.1755 -0.4890
23310W        W40158   1.267  17.411  15.159 -0.4084 -0.0993 -0.3549
23311W        W40159   2.515  12.905   5.072  0.0508  0.0516  0.1026
23312W        W40160   6.612  11.256   1.669  0.0112  0.2771  0.0059
23313W        W40161   8.681   3.396   1.828  0.0432 -0.1175 -0.0986
23314W        W40162  14.996  16.446  14.086  0.2232  0.0395  0.1319
23315W        W40163  15.672   6.841   1.508 -0.0057 -0.0983 -0.1011
23316W        W40164  15.202  11.109   4.433 -0.0768 -0.1023 -0.1778
23317W        W40165   5.709   0.643   4.311 -0.2015  0.0431 -0.0269
23318W        W40166  11.383   1.006  13.366 -0.1725  0.2407 -0.0433
23319W        W40167  10.580  12.223  12.109 -0.0156 -0.1275  0.0702
23320W        W40168   1.529   0.843  14.193 -0.2623  0.0314 -0.2647
23321W        W40169  12.865  14.338  13.972  0.0276 -0.3138 -0.0310
23322W        W40170  14.524  13.345   2.148  0.1213 -0.0716 -0.0115
23323W        W40171   7.707  11.088   0.780 -0.3507 -0.0116  0.1125
23324W        W40172   1.109   1.992   5.276  0.1009 -0.2961 -0.1476
23325W        W40173   8.955  14.991   0.431  0.1224 -0.0371  0.0861
23326W        W40174   4.367   7.621   1.588  0.2049 -0.0533  0.0100
23327W        W40175  12.990  13.258  13.113  0.1701 -0.0761 -0.3087
23328W        W40176   6.674   4.088  12.924  0.3486  0.4191 -0.0813
23329W        W40177  16.111   5.921  11.526  0.1221 -0.0982  0.0619
23330W        W40178   9.650   2.588  12.074 -0.1031  0.0996 -0.0251
23331W        W40179   1.508   3.753   1.475 -0.1281  0.0090  0.3430
23332W        W40180  13.002  15.765  12.764  0.0117  0.0664  0.2277
23333W        W40181   1.672  16.524  13.068 -0.1445 -0.1358  0.2349
23334W        W40182   2.754   0.168   2.006 -0.0281  0.2793  0.3711
23335W        W40183   2.652   7.742  16.458 -0.1146 -0.1727  0.0452
23336W        W40184   5.903   8.796  12.449  0.2492  0.1835  0.0565
23337W        W40185  13.653  14.610   0.264  0.2909 -0.3218 -0.1302
23338W        W40186  11.172  14.718  12.357  0.0974 -0.0066 -0.4351
23339W        W40187   4.779  14.516   0.160  0.0277 -0.1139 -0.0650
23340W        W40188   8.429   9.163   0.968 -0.0236  0.1850  0.1144
23341W        W40189   0.083  16.054   1.644  0.1624  0.0293 -0.0397
23342W        W40190   6.627   3.083   1.274  0.0391 -0.1353 -0.0581
23343W        W40191  17.721   7.371   4.695  0.2765 -0.3642 -0.0960
23344W        W40192   3.929   6.598   4.890 -0.1281  0.1105 -0.0000
23345W        W40193   4.345  10.050   2.297 -0.0986  0.0563 -0.2009
23346W        W40194  12.596  13.368  12.495  0.3696  0.1850 -0.4475
23347W        W40195   9.263   4.674  13.786 -0.2053 -0.2191  0.1073
23348W        W40196  10.542  14.205  13.053 -0.2025  0.1859 -0.2575
23349W        W40197   6.001  15.811  11.403  0.1628 -0.0258  0.3089
23350W        W40198  11.642   4.166  15.537 -0.0306  0.2439 -0.2337
23351W        W40199   6.217  10.385  13.659 -0.2418  0.0838  0.1924
23352W        W40200  16.291   0.624   2.921  0.1964 -0.0869  0.0369
23353W        W40201   8.410   6.021  14.428  0.1310  0.1367 -0.2421
23354W        W40202   9.416   5.370  13.028  0.2035 -0.1112 -0.2338
23355W        W40203   4.425  13.262   1.253 -0.1199 -0.1532 -0.0335
23356W        W40204   2.630   9.102   3.210 -0.1625 -0.0689  0.1406
23357W        W40205   3.809   6.699  13.919  0.0496  0.5172  0.1647
23358W        W40206   0.551  16.387   0.820 -0.0809  0.0538 -0.2313
23359W        W40207  14.976   4.117   5.327  0.0242 -0.0253 -0.1388
23360W        W40208   4.344  15.353  16.494  0.1771  0.1627 -0.3248
23361W        W40209   9.075   3.637   3.043 -0.0671  0.0716  0.4052
23362W        W40210  14.908  13.515   0.791 -0.2051  0.2115 -0.2786
23363W        W40211   7.979   8.921   0.901  0.0286 -0.2673  0.1722
23364W        W40212   2.985  13.014   5.710  0.3173 -0.2647  0.2201
23365W        W40213   8.289  10.461  14.546 -0.0372 -0.3163 -0.0596
23366W        W40214   6.393  11.332  13.531  0.2018 -0.0519  0.0138
23367W        W40215   7.643   6.591   3.344 -0.0470 -0.0560 -0.0387
23368W        W40216   1.126  12.374   1.028 -0.1083 -0.2255  0.2378
23369W        W40217  14.329  11.089  11.663  0.0370 -0.2040  0.4562
23370W        W40218   9.887   4.814  11.654 -0.1947 -0.0490  0.4526
23371W        W40219  13.219  17.834   3.948  0.2517 -0.0872 -0.0801
23372W        W40220   4.779  15.331   4.959 -0.3011 -0.0280 -0.0624
23373W        W40221   6.395  10.201  11.505  0.3578  0.1493 -0.1207
23374W        W40222  15.101   3.422  13.910  0.0832 -0.0876  0.2155
23375W        W40223   3.079  10.952   5.801  0.0654 -0.1850 -0.1150
23376W        W40224  10.695  12.824  11.751 -0.0959 -0.2009 -0.1257
23377W        W40225   0.371   1.063   0.672  0.2674  0.2067 -0.0753
23378W        W40226  14.943   8.882   2.524  0.0028  0.1755  0.1586
23379W        W40227   4.388   9.065   0.311 -0.3836 -0.0346  0.0681
23380W        W40228  17.687   8.271  12.082  0.1477 -0.0926 -0.1710
23381W        W40229   7.871   6.017  13.632 -0.0269  0.1592  0.0467
23382W        W40230   7.597   1.005  12.802  0.1865  0.0240 -0.0866
23383W        W40231   5.955   0.117  14.172  0.1730  0.4161 -0.0069
23384W        W40232   2.157  16.827  14.998 -0.1013 -0.2797  0.0487
23385W        W40233   9.619   6.532   4.979 -0.2912 -0.0108 -0.0030
23386W        W40234  13.332   8.829   2.802 -0.3349 -0.1758 -0.0252
23387W        W40235  16.372  14.511   4.668 -0.0839  0.2648 -0.0325
23388W        W40236   5.630   3.129  15.660 -0.2137 -0.2042 -0.1070
23389W        W40237  14.587   3.030   1.576 -0.2011  0.0511  0.1394
23390W        W40238  12.666   6.843  12.728 -0.0543 -0.4869 -0.3231
23391W        W40239  12.509   1.728   5.409  0.4906  0.1462 -0.1494
23392W        W40240   1.256   6.393   0.552 -0.1048  0.1979  0.1502
23393W        W40241  17.428  13.539   3.913 -0.1859 -0.0432  0.1109
23394W        W40242   0.508   1.847   2.251 -0.1253  0.0635  0.3788
23395W        W40243   2.002   9.628  12.140  0.0184 -0.1177  0.1770
23396W        W40244   0.571  16.047  15.802  0.1723 -0.0674 -0.1336
23397W        W40245   2.237   7.160   2.641  0.1216 -0.0376 -0.2114
23398W        W40246  14.816  16.267   0.420 -0.0157  0.1029  0.2009
23399W        W40247  12.405   5.195  13.780 -0.1191 -0.1079 -0.0179
23400W        W40248  16.535   4.886   1.764 -0.1702 -0.2393  0.1814
23401W        W40249  15.314   8.652  10.424 -0.1380  0.1116  0.0919
23402W        W40250  15.724   3.184  13.263  0.0053  0.1971 -0.1342
23403W        W40251   0.290  13.671  16.532 -0.0818  0.2691  0.3628
23404W        W40252   9.518   7.616   4.907  0.3480 -0.0222 -0.0101
23405W        W40253   3.435  13.547  12.836  0.1798 -0.3163  0.1950
23406W        W40254  15.611   2.858  14.270 -0.0103 -0.2703 -0.3317
23407W        W40255  11.149  14.043   1.141  0.0495 -0.1413  0.2181
23408W        W40256   2.423  11.137  10.584 -0.0268  0.0769 -0.0798
23409W        W40257  16.946  12.145  14.264 -0.1655 -0.0154 -0.0370
23410W        W40258  14.943   0.004  13.524 -0.0903 -0.0231 -0.3185
23411W        W40259  15.951   3.773  14.743 -0.1692  0.2490  0.0861
23412W        W40260  13.773   2.302   3.357 -0.0649  0.1250  0.0451
23413W        W40261   3.230  11.616  14.590 -0.3069  0.0907 -0.3470
23414W        W40262   9.977   1.461   0.068 -0.0616  0.0986  0.4911
23415W        W40263   3.881  16.845   0.463 -0.0636  0.0273  0.0333
23416W        W40264  12.022   6.687  13.478 -0.3614 -0.0369  0.0825
23417W        W40265   9.969   8.669   4.026  0.0025  0.2275  0.0141
23418W        W40266   2.609  16.393  14.199  0.3578 -0.1808  0.0690
23419W        W40267   9.414   5.761  16.066  0.1709  0.2123  0.1950
23420W        W40268  11.047  14.530   3.089 -0.1189  0.0453 -0.0965
23421W        W40269  14.704  12.563  16.522 -0.2364  0.0125 -0.1587
23422W        W40270   8.841   7.345  11.610  0.0660 -0.1244  0.1274
23423W        W40271  14.713  12.676   3.082 -0.1311 -0.2072  0.1587
23424W        W40272   2.774  16.743  13.695  0.0561 -0.3175 -0.2587
23425W        W40273  17.475   3.268   4.395 -0.0545 -0.0309 -0.0672
23426W        W40274   9.910  11.627   0.324  0.1070  0.1435 -0.1953
23427W        W40275   2.694   5.832   2.233 -0.1195  0.3590  0.1139
23428W        W40276   6.724   8.216   1.262  0.1305 -0.0214  0.1844
23429W        W40277  14.186  16.425   2.010 -0.1737 -0.0307  0.0585
23430W        W40278   5.603  15.689   0.477  0.1830  0.0556  0.1696
23431W        W40279   4.470   2.489  10.444 -0.0119 -0.0338 -0.0405
23432W        W40280  12.617   0.088   2.559 -0.0589  0.0575  0.2206
23433W        W40281  15.535   8.267   3.373  0.0443  0.1839 -0.3146
23434W        W40282  17.417  12.829  12.696 -0.4521 -0.3165 -0.1118
23435W        W40283   2.982  12.047  11.788 -0.0116  0.0610 -0.0738
23436W        W40284  13.902  15.090  14.334  0.1365 -0.1047 -0.0546
23437W        W40285   8.091   5.003  11.727 -0.0065 -0.1179 -0.2476
23438W        W40286   6.912   8.960   4.889  0.1842 -0.0214  0.4071
23439W        W40287   6.999   6.975  12.998  0.0174  0.0609 -0.0430
23440W        W40288   8.029   9.497  14.169 -0.0850 -0.1706 -0.2116
23441W        W40289   5.008  15.686   2.504  0.2948 -0.3024  0.1317
23442W        W40290  12.443   6.214   3.221  0.1223 -0.0317  0.0568
23443W        W40291  10.892   5.978  15.757 -0.2484  0.0035  0.0211
23444W        W40292  17.193  10.535   0.615  0.1867  0.0654 -0.0795
23445W        W40293   7.160   1.900   3.543 -0.0559  0.0580 -0.1193
23446W        W40294   1.887   8.670   4.853 -0.0885 -0.0506  0.2249
23447W        W40295   4.935   5.677   0.034  0.0541 -0.2294 -0.1108
23448W        W40296  12.781  17.358   1.024 -0.1986  0.1553 -0.2514
23449W        W40297  16.681  16.835   2.057  0.1081 -0.0334 -0.0797
23450W        W40298  17.796  12.217  11.962  0.2589 -0.0655  0.0478
23451W        W40299   2.184   0.926   1.202  0.0519  0.0149  0.1662
23452W        W40300   1.584   4.308  11.375 -0.0932  0.2153  0.1902
23453W        W40301  13.920   3.563   3.721 -0.0020 -0.0565  0.0098
23454W        W40302   0.446   8.003  12.066  0.0783  0.0496 -0.0956
23455W        W40303  13.911   1.536   2.367  0.1691 -0.1372  0.1423
23456W        W40304  14.293   0.103   4.504 -0.1696 -0.0430 -0.2200
23457W        W40305   1.010  11.681   2.908  0.1497  0.0146  0.2145
23458W        W40306  14.636   0.406  15.644 -0.2680 -0.0468 -0.1150
23459W        W40307  10.143   0.664  11.675  0.1392  0.1360  0.1674
23460W        W40308   2.612   9.880   1.937  0.0681  0.0680  0.1373
23461W        W40309   0.109   6.513   3.661 -0.3533 -0.0545  0.0189
23462W        W40310   1.439  14.697  15.652  0.0155 -0.0801  0.1431
23463W        W40311   9.026   0.556  12.859  0.0838 -0.0296 -0.1264
23464W        W40312   1.790   3.490   4.799 -0.3342  0.2494 -0.0440
23465W        W40313   8.370   2.446  14.057  0.0741  0.0058  0.0764
23466W        W40314  16.018  13.804   0.058 -0.3827 -0.1360  0.0758
23467W        W40315  10.316  15.271   3.944  0.3726 -0.0829 -0.2460
23468W        W40316   5.593   7.303  13.918  0.2502  0.1699  0.2566
23469W        W40317  14.414   0.500   0.810  0.0732 -0.0127 -0.1003
23470W        W40318   8.372  11.776   2.811  0.0480  0.0850  0.2232
23471W        W40319   9.162   5.016   4.041 -0.1505 -0.3323  0.0853
23472W        W40320   4.964   0.198  12.748  0.0989 -0.3200 -0.0272
23473W        W40321  14.070   8.125  15.424  0.0298  0.0622  0.1391
23474W        W40322  12.894   7.254   5.052 -0.2135 -0.0587 -0.1017
23475W        W40323   9.482  15.994   0.798 -0.0542  0.0060  0.4267
23476W        W40324  14.980   0.151  15.954 -0.0833 -0.1947 -0.0479
23477W        W40325   3.762  14.584  16.397  0.0519  0.0901 -0.1244
23478W        W40326   8.699   7.977   5.290  0.0444  0.1240  0.2034
23479W        W40327   0.220  15.184  15.487  0.2187  0.2790  0.1509
23480W        W40328  16.663  10.667  12.265  0.1744 -0.0125 -0.0908
23481W        W40329   3.205  13.010   4.564 -0.1177  0.0875 -0.2006
23482W        W40330  13.536  15.725  16.453 -0.0911 -0.2087 -0.1261
23483W        W40331  11.935  15.179  15.982 -0.1226 -0.6682  0.1195
23484W        W40332   7.539   5.441  15.638  0.0198  0.0995  0.1513
23485W        W40333  10.875   7.366  16.013 -0.1179 -0.3130  0.0966
23486W        W40334  10.722   1.978  12.509  0.3736  0.0008  0.2439
23487W        W40335   4.735  16.341  13.170 -0.2742 -0.1331  0.0211
23488W        W40336   9.156  17.031  14.988  0.1601 -0.1888  0.0673
23489W        W40337  12.018   5.489  15.384 -0.0672  0.2082 -0.0874
23490W        W40338   1.473   7.692   2.953  0.1668 -0.2833  0.0605
23491W        W40339  10.038   7.870   0.557  0.1443  0.0754  0.0940
23492W        W40340  14.909   8.424   2.152 -0.3187 -0.0063  0.1097
23493W        W40341  16.830   2.931  15.918  0.0446  0.1216 -0.3327
23494W        W40342  11.401   4.092  14.254 -0.0817  0.0132  0.0543
23495W        W40343  13.941   9.026  15.617  0.1991  0.0149  0.1333
23496W        W40344   2.579   6.178   1.207 -0.1463  0.1655  0.0799
23497W        W40345   0.128  11.111  16.532 -0.1565 -0.3413  0.0266
23498W        W40346  12.427   0.008   2.068  0.0499  0.1466  0.0333
23499W        W40347  11.310   6.117   5.379 -0.0940  0.0576  0.0772
23500W        W40348   8.484  14.068   1.594  0.0544 -0.2384 -0.0268
23501W        W40349  13.822   9.489   3.702 -0.1308  0.2516 -0.0342
23502W        W40350   4.010  12.063   4.103 -0.1101 -0.1370  0.0731
23503W        W40351   6.134  13.108  13.381  0.0506 -0.1484 -0.0217
23504W        W40352   7.792   1.582   0.963  0.1462  0.0681  0.2249
23505W        W40353   9.142   8.773   5.215  0.1643  0.2538 -0.0776
23506W        W40354   5.127   8.008  11.427 -0.0079 -0.1464  0.2004
23507W        W40355   8.278   3.294   1.515  0.0726  0.1047  0.3450
23508W        W40356   8.241  15.818  12.991  0.0590  0.0436  0.1864
23509W        W40357   5.060  13.972   2.305 -0.4379 -0.1773  0.1188
23510W        W40358   2.865   6.229  11.344 -0.0568  0.0988 -0.0607
23511W        W40359   5.606   4.181   2.201  0.0660 -0.3309 -0.1836
23512W        W40360  15.996  12.946   1.961 -0.0572  0.2439  0.2269
23513W        W40361   7.308   7.494  11.292 -0.3144  0.0353 -0.2595
23514W        W40362  10.761  13.545   4.226 -0.1372 -0.1004 -0.0327
23515W        W40363  10.463  15.743   2.132  0.2579 -0.1012  0.0769
23516W        W40364  10.783  17.429   2.327 -0.1846 -0.0586 -0.0118
23517W        W40365   2.416  11.212   5.246 -0.1337 -0.2362 -0.0707
23518W        W40366   7.362  11.309   2.571  0.0149  0.0081  0.2403
23519W        W40367  12.289  10.618   5.458  0.2064  0.1673 -0.0641
23520W        W40368   5.500  10.345   3.631 -0.2554  0.0672 -0.0607
23521W        W40369  13.750  16.828  16.494  0.2308  0.0189 -0.4148
23522W        W40370   8.723  16.436   1.098  0.2855  0.1174 -0.0385
23523W        W40371   1.418   9.238   2.721 -0.2744 -0.1406 -0.1065
23524W        W40372   7.479   4.400   1.316 -0.2349  0.0845  0.0481
23525W        W40373  12.862   6.414   1.235  0.4657  0.1137 -0.0069
23526W        W40374   9.635   5.467  14.626  0.1738  0.1624  0.0103
23527W        W40375  17.114  11.896  11.037 -0.1648 -0.0168  0.0413
23528W        W40376   0.963  15.972   5.134  0.0230  0.2026  0.1997
23529W        W40377  13.578   9.436  16.339 -0.0569 -0.4544 -0.0946
23530W        W40378   0.453   6.148  16.525 -0.1787  0.1757 -0.1576
23531W        W40379   8.023  14.201  15.392  0.1659 -0.1033  0.0931
23532W        W40380  17.025   0.217  13.513  0.0665 -0.4977 -0.2759
23533W        W40381  12.303  14.378  13.255 -0.1633 -0.1699 -0.1477
23534W        W40382   7.223   2.687   0.561 -0.1775  0.1750  0.0037
23535W        W40383   6.728  11.570   1.179  0.0551 -0.1781 -0.1228
23536W        W40384  16.814  17.494   0.942  0.1680 -0.1664 -0.1067
23537W        W40385   2.031   6.970   0.790 -0.0146  0.1611 -0.2693
23538W        W40386  12.606  11.742   4.708  0.0569 -0.0654  0.2150
23539W        W40387  11.428   7.507  14.174  0.1267  0.0911 -0.0669
23540W        W40388   9.043  10.362  12.828  0.1276  0.4100 -0.1970
23541W        W40389  17.751   5.923   0.414  0.2830 -0.3152 -0.0610
23542W        W40390   0.066   7.088   0.418 -0.1683 -0.4470  0.1192
23543W        W40391  13.576   6.991  12.717  0.1574 -0.3858  0.0330
23544W        W40392   4.872   9.774   4.321  0.0315 -0.0130 -0.1055
23545W        W40393  14.021   3.278  13.019 -0.1818 -0.3237  0.0609
23546W        W40394  10.457   4.467  12.276 -0.1712 -0.0667 -0.0562
23547W        W40395   4.335   2.519   0.993 -0.0385  0.4152 -0.2173
23548W        W40396   2.257  16.109  15.920 -0.0367 -0.1847 -0.1436
23549W        W40397  17.062   6.381  12.114  0.0493 -0.0785  0.0301
23550W        W40398   1.567   7.033   0.640  0.3693 -0.1673 -0.1789
23551W        W40399   9.204   8.966  11.901  0.0755  0.1788  0.1655
23552W        W40400   2.213  10.199   1.593  0.0092 -0.3379  0.1961
23553W        W40401  11.574   5.142  15.563  0.3140 -0.3201  0.2874
23554W        W40402  17.439   4.965   0.703  0.2298 -0.0335 -0.0206
23555W        W40403  14.445   8.981  16.154  0.1622 -0.0527  0.3236
23556W        W40404  11.900   5.184   1.897  0.1027  0.3349 -0.2627
23557W        W40405   5.176   1.695  12.979  0.2771  0.1599  0.1686
23558W        W40406  10.553   1.540  15.817  0.0458 -0.2143  0.0437
23559W        W40407  15.950  15.088  13.818  0.0053  0.0227 -0.2608
23560W        W40408  17.342  15.190  14.045  0.1307 -0.1854  0.0494
23561W        W40409  17.734   5.920   4.105  0.1670 -0.4250  0.0945
23562W        W40410   7.450   9.416   2.842 -0.1008 -0.0860  0.2590
23563W        W40411  12.775   4.556   3.535  0.0667  0.1891 -0.2882
23564W        W40412   9.653  15.801   1.837 -0.0756 -0.2493 -0.0765
23565W        W40413   3.719  15.578   5.435  0.2042  0.1641  0.1216
23566W        W40414  12.014   4.797   4.330  0.0152  0.0968 -0.2034
23567W        W40415   9.962   4.728   4.459 -0.2312  0.1036  0.3245
23568W        W40416   2.897  11.070   0.618 -0.2889 -0.1830  0.0739
23569W        W40417  14.565  13.028  14.406 -0.0761  0.0370 -0.2365
23570W        W40418  17.797   7.407   3.643  0.1977 -0.0007 -0.0877
23571W        W40419   8.097  15.343  12.270  0.1198  0.2286  0.0783
23572W        W40420  13.143  16.633   3.479  0.2092 -0.2514 -0.0665
23573W        W40421   5.893  12.010   2.697  0.0845 -0.1859  0.1704
23574W        W40422  17.227  11.870  14.874  0.2978 -0.0251 -0.1889
23575W        W40423   4.846  16.648   3.854 -0.1466 -0.1803  0.0198
23576W        W40424  17.712  14.079   5.550 -0.2287  0.1033  0.0207
23577W        W40425   3.279  15.513   0.675 -0.0310 -0.0872 -0.2424
23578W        W40426  17.578   2.899  12.492 -0.2017  0.0425  0.0816
23579W        W40427   2.247  17.786  14.795  0.2686 -0.4380  0.2250
23580W        W40428  14.367  17.599  15.328 -0.1590 -0.4249  0.0008
23581W        W40429  15.046  15.007   0.076  0.0515  0.3676 -0.0586
23582W        W40430  12.687   2.449   4.875 -0.1992  0.2150  0.1837
23583W        W40431  14.081  16.092  13.408  0.1255 -0.2399  0.0041
23584W        W40432  13.634  11.372  15.986 -0.0890  0.0594 -0.0090
23585W        W40433   3.749   9.208  12.614 -0.0009 -0.2019  0.0417
23586W        W40434  12.032  10.548   1.205  0.2239 -0.0494  0.2908
23587W        W40435  11.040   7.477  13.914 -0.0251  0.0458  0.0862
23588W        W40436   0.661  12.230  11.394 -0.2898  0.1408  0.1490
23589W        W40437  10.630   2.546   4.139 -0.1166  0.2100  0.3350
23590W        W40438  14.841   2.117  16.605 -0.3011  0.5472 -0.4900
23591W        W40439   5.754   6.564  15.074 -0.1165  0.0466 -0.1075
23592W        W40440   9.569  11.190  15.869  0.0398  0.0307 -0.1482
23593W        W40441  10.015  11.958   1.307  0.0452 -0.0212  0.1036
23594W        W40442   3.469   5.302   1.248  0.0126 -0.0337  0.0014
23595W        W40443  13.825   2.366   2.785 -0.1082  0.0002  0.2064
23596W        W40444   7.005   1.926   0.588 -0.2182 -0.0102 -0.0261
23597W        W40445   4.204  14.546  12.213 -0.0741 -0.3447 -0.1259
23598W        W40446  10.379   0.492  14.924  0.0778 -0.1703  0.2471
23599W        W40447  15.887   4.167  12.914 -0.3264 -0.0999  0.0731
23600W        W40448  13.431   3.359   3.968  0.1080  0.0563 -0.2124
23601W        W40449   6.426   2.398   0.683  0.1807 -0.0616 -0.2575
23602W        W40450  10.363   1.142  13.018 -0.2960 -0.2950  0.0295
23603W        W40451   9.828  10.921  11.735 -0.0153  0.0068 -0.2557
23604W        W40452  17.009  13.059  14.720 -0.0937 -0.0919  0.0727
23605W        W40453   4.923   2.655  16.403 -0.4377 -0.2032 -0.2970
23606W        W40454   5.219  10.093  13.475 -0.0302 -0.1275  0.0458
23607W        W40455   1.452  13.192   3.124 -0.1904  0.1539 -0.4395
23608W        W40456  17.834   6.511   2.905 -0.1816 -0.0837 -0.0326
23609W        W40457   3.955   2.481  14.040 -0.1351 -0.2122 -0.2234
23610W        W40458   4.533   1.582   1.837 -0.3355  0.0084  0.1919
23611W        W40459   4.990   9.354  10.695  0.0975  0.0562  0.0777
23612W        W40460   6.617   1.848   0.871  0.1621 -0.1832  0.1800
23613W        W40461   0.858   5.930   0.067 -0.1712 -0.2248 -0.0951
23614W        W40462   4.562   9.655   0.181  0.0092  0.1753 -0.0483
23615W        W40463   1.963  13.732  13.891  0.0221 -0.0702 -0.1253
23616W        W40464  10.952  10.102  12.212  0.1647 -0.0663  0.1760
23617W        W40465   3.043  14.270   1.281  0.2397 -0.3258  0.0460
23618W        W40466  11.577   5.184  16.398 -0.4942  0.0453 -0.0520
23619W        W40467   3.959  17.590   0.508  0.1199  0.2176  0.3898
23620W        W40468   2.549  13.714   0.897 -0.0712  0.1525 -0.2447
23621W        W40469  14.261   3.132  13.482  0.1169 -0.2116  0.2601
23622W        W40470   0.215   1.611   6.159  0.1000 -0.0891  0.2326
23623W        W40471   9.098   6.225  15.905 -0.3054  0.0650  0.2014
23624W        W40472  13.710  10.840   1.148 -0.0267  0.0629  0.0614
23625W        W40473   0.936  11.651   0.430  0.0526 -0.2613 -0.0608
23626W        W40474   5.016   0.729  12.252 -0.1020  0.0037  0.2662
23627W        W40475   2.888   1.102   5.289 -0.1446 -0.1298  0.0250
23628W        W40476  15.189   9.122  16.603  0.3850  0.1171 -0.3086
23629W        W40477  12.613   1.406   1.679 -0.1721 -0.2453  0.1202
23630W        W40478   8.401   6.476   4.340 -0.2232  0.1261 -0.4502
23631W        W40479  13.023  13.234   1.691 -0.3983 -0.0719 -0.1104
23632W        W40480   8.743   3.794   0.346 -0.0976 -0.5616 -0.2083
23633W        W40481   6.622   2.217  13.969 -0.1571  0.0209  0.0589
23634W        W40482  14.972   4.336  11.274 -0.0611  0.2397 -0.3998
23635W        W40483   7.832   1.462  15.427  0.1434 -0.1227  0.0007
23636W        W40484   9.648   3.344  14.276 -0.0679 -0.2697  0.0880
23637W        W40485   0.353   4.434   2.172 -0.3091  0.1649  0.1607
23638W        W40486   5.691  16.882  12.436  0.0279 -0.0271 -0.1992
23639W        W40487   0.535   5.188   0.550 -0.2279 -0.2680  0.1625
23640W        W40488   2.511  12.353   0.273  0.2862  0.0369 -0.0687
23641W        W40489  15.820  15.668  13.158  0.0720  0.2758 -0.0070
23642W        W40490  15.711  12.080   0.194 -0.3992  0.1541 -0.1054
23643W        W40491   6.564   0.452   2.207 -0.1647  0.0214  0.2039
23644W        W40492  14.342   8.347  14.968  0.3091 -0.0036  0.2802
23645W        W40493   4.552  17.304  15.963 -0.0303 -0.2235 -0.1158
23646W        W40494  14.898  13.454   5.256 -0.0927 -0.0766 -0.0651
23647W        W40495  12.404  13.974  15.488 -0.2328 -0.0543  0.0324
23648W        W40496  16.234   4.682   4.290 -0.0893  0.0170 -0.0311
23649W        W40497   8.856   3.745  11.927  0.1190 -0.1368 -0.0184
23650W        W40498   5.326   7.040   1.546 -0.2020  0.0924  0.1817
23651W        W40499  10.745  12.776   0.009  0.3957 -0.0923 -0.0763
23652W        W40500   8.162   5.537  14.405 -0.0826 -0.0030  0.1124
23653W        W40501   3.918   5.007  13.241 -0.0751 -0.0089  0.1333
23654W        W40502   0.881   9.365   0.529 -0.0216  0.2930 -0.0905
23655W        W40503   4.896   3.081  11.664 -0.1276 -0.0446 -0.2368
23656W        W40504  17.787  13.971  14.906  0.0996 -0.2345 -0.3042
23657W        W40505  10.199  16.228  14.254 -0.1580 -0.1149  0.1246
23658W        W40506  10.399  16.039  15.572 -0.1333  0.3233  0.0644
23659W        W40507  17.543  12.237  11.036 -0.0607  0.1676  0.2343
23660W        W40508   8.602  10.975   1.359 -0.0816  0.0791  0.0342
23661W        W40509   1.109  14.562  12.087 -0.2263  0.1429  0.0434
23662W        W40510   8.132   5.517  12.976  0.1506 -0.0249 -0.0869
23663W        W40511   5.979   2.654   0.414 -0.0573 -0.4376  0.1558
23664W        W40512   7.474  11.918   2.473  0.1759  0.0652 -0.2240
23665W        W40513   4.336   3.099  11.347 -0.0650 -0.0290 -0.2371
23666W        W40514   6.225   7.944  14.318  0.1995  0.2063 -0.0585
23667W        W40515   4.522   3.124   2.079  0.0188 -0.1549  0.2494
23668W        W40516  17.743   5.786  11.273  0.0586 -0.1429  0.0994
23669W        W40517  12.562   7.911  14.943 -0.1241  0.3146  0.0732
23670W        W40518  17.604   2.030  11.609  0.2356  0.1495  0.0117
23671W        W40519   6.599   0.478  15.012  0.1166  0.2839 -0.2762
23672W        W40520  16.285   0.948  15.176  0.0401 -0.1263 -0.0648
23673W        W40521  13.786   9.996  15.631 -0.0799  0.1102  0.0494
23674W        W40522   1.662   5.270  14.151  0.2291  0.1282 -0.2507
23675W        W40523   6.158   6.595   2.529 -0.4346  0.0140 -0.2530
23676W        W40524  11.594   7.878   0.708  0.1875 -0.0734  0.0747
23677W        W40525  17.012   7.309  14.983 -0.0712  0.1836 -0.1388
23678W        W40526  16.756   9.411  11.544 -0.0930 -0.2907 -0.0424
23679W        W40527   2.636  13.042   3.282  0.1484 -0.0713  0.0662
23680W        W40528   2.388  10.652   1.394  0.1956  0.0402  0.0596
23681W        W40529   3.859  11.585  15.250  0.0033 -0.0577  0.0750
23682W        W40530   0.503   0.825   3.552 -0.1061  0.0019  0.0981
23683W        W40531  17.776   3.570  14.506  0.0005  0.1033 -0.2551
23684W        W40532  13.374  17.840   0.429  0.0561 -0.4000  0.0477
23685W        W40533   0.608  14.172   1.503 -0.1343 -0.3803  0.1730
23686W        W40534   0.604   1.050   2.458 -0.3448 -0.1198  0.2597
23687W        W40535  14.633   8.440   3.003  0.2925 -0.0071  0.3674
23688W        W40536   4.327  16.766   4.982  0.1030  0.0774  0.0849
23689W        W40537   6.714   9.113  15.036  0.1682 -0.0006  0.1340
23690W        W40538   5.505   8.636  14.062 -0.2203 -0.2525 -0.3177
23691W        W40539   8.820   1.217   2.617 -0.1376  0.1049 -0.1224
23692W        W40540  15.928  16.242   1.841  0.0481  0.0287 -0.2036
23693W        W40541   4.748  11.924   4.707 -0.2506  0.1215  0.0286
23694W        W40542  14.267   2.979   0.433 -0.1067  0.0723 -0.0450
23695W        W40543   4.288   3.107  14.173  0.1199  0.1996  0.2374
23696W        W40544  15.108   3.193  15.203 -0.2792  0.1879 -0.0237
23697W        W40545   8.257  13.877   4.429 -0.2906 -0.1036  0.1565
23698W        W40546  12.342   2.523  15.292 -0.1810  0.3500  0.0398
23699W        W40547  12.241  13.666  13.712 -0.1944 -0.0050  0.1402
23700W        W40548   6.264   4.623  14.785  0.0265  0.1079  0.1353
23701W        W40549   3.883   7.284   2.168  0.2072 -0.2012 -0.0052
23702W        W40550  10.271  10.750   1.493  0.1043  0.2515  0.1061
23703W        W40551  16.488  14.623  15.587  0.2388 -0.4012  0.0520
23704W        W40552   0.309  11.986   2.149  0.0118  0.0151  0.2966
23705W        W40553   0.213   5.232  15.297 -0.1067 -0.2383  0.2195
23706W        W40554   4.604  10.110   3.925 -0.0510 -0.2224  0.1548
23707W        W40555   6.361  14.689  13.124 -0.3078 -0.1702  0.1151
23708W        W40556   6.297   0.483   3.587 -0.1619  0.2888 -0.0119
23709W        W40557   5.631   5.503  11.443 -0.2069  0.1720 -0.0845
23710W        W40558  16.554   4.042   0.604  0.1099  0.1762  0.0124
23711W        W40559   7.836  15.879  14.310 -0.0731 -0.1268 -0.3049
23712W        W40560   6.817   8.759  12.728  0.1460  0.2128 -0.0433
23713W        W40561   6.054  12.075  14.891 -0.1966  0.0508  0.0451
23714W        W40562   3.367   7.148   3.543 -0.0551 -0.0370  0.0209
23715W        W40563   7.660  17.808  13.454  0.2383  0.4858 -0.2823
23716W        W40564  15.853   4.203  14.427 -0.0014  0.0003 -0.3387
23717W        W40565   0.686  12.393   0.228  0.1725 -0.3043  0.0797
23718W        W40566  14.297  14.626   1.255 -0.3374  0.0752  0.1333
23719W        W40567  11.991   6.440  12.083 -0.0135  0.2837  0.0938
23720W        W40568   8.242  11.729   0.493  0.0676 -0.2106  0.3664
23721W        W40569   2.922   5.015   0.303 -0.0959  0.0112 -0.0556
23722W        W40570   9.200  14.524  12.082 -0.1096  0.0245  0.1481
23723W        W40571   9.689  15.738  11.384  0.3527  0.0683  0.0205
23724W        W40572   3.124   2.648   5.233  0.2591 -0.0039 -0.0064
23725W        W40573   8.428   4.062  15.581 -0.1994 -0.5219 -0.0101
23726W        W40574   2.842   8.545   1.262  0.4070 -0.0822 -0.0020
23727W        W40575   2.263  15.501  13.979  0.1468  0.1609  0.0758
23728W        W40576  14.762   1.137  16.482 -0.0064  0.1788  0.0778
23729W        W40577  17.804   1.009  15.501  0.0772 -0.2590  0.2565
23730W        W40578   2.187   6.092   3.955  0.2371  0.0575  0.0267
23731W        W40579   3.472  16.694   0.208  0.1460 -0.0191 -0.2484
23732W        W40580   4.824   1.249  16.245 -0.1439  0.0019  0.1021
23733W        W40581   7.222   9.650   0.912  0.2620  0.2619  0.0757
23734W        W40582   7.265   4.483  13.946 -0.1221  0.0202  0.1260
23735W        W40583   8.116  13.625  14.508  0.1367  0.1535 -0.0438
23736W        W40584  12.859   0.970   4.355 -0.3411  0.4059  0.0190
23737W        W40585   1.215  11.109  11.817  0.3731 -0.0533 -0.0873
23738W        W40586  16.033   6.079   0.398 -0.0287 -0.2316 -0.2201
23739W        W40587   1.388  14.059   0.323  0.0106 -0.1456  0.3505
23740W        W40588  17.774  11.314  14.713  0.2154 -0.0745  0.2541
23741W        W40589  15.276   6.563  15.629  0.1022 -0.3151 -0.0151
23742W        W40590  11.085   7.665  13.262  0.3607 -0.1281 -0.1508
23743W        W40591  17.303   6.403   2.837 -0.3118 -0.0656  0.1749
23744W        W40592   3.643   5.210   4.353  0.0643  0.0748  0.3015
23745W        W40593   9.464   1.442   4.805 -0.0104  0.1916 -0.3078
23746W        W40594  15.676   5.322  15.891  0.1576 -0.0631  0.1927
23747W        W40595   9.042  13.408  12.324  0.2984 -0.1811  0.1404
23748W        W40596  10.180  12.242  11.373 -0.0529  0.0873  0.2122
23749W        W40597  13.725   4.969   5.043 -0.0723  0.0268 -0.2176
23750W        W40598   7.741   1.705   2.336  0.1832  0.1471 -0.2544
23751W        W40599   4.547  17.603   3.342  0.2391 -0.1063 -0.0780
23752W        W40600  14.033   8.115   4.760  0.2183 -0.0098  0.0700
23753W        W40601   9.598   3.569   2.660 -0.2921 -0.1649 -0.0822
23754W        W40602   3.125   0.683   4.934  0.1842  0.0237  0.0324
23755W        W40603   1.043   0.306  15.482 -0.0161  0.0854  0.0544
23756W        W40604   9.271  10.048  15.777 -0.3498  0.4029 -0.0397
23757W        W40605  10.839  13.422   1.703 -0.1986 -0.0838  0.0472
23758W        W40606   3.948   8.906   0.373  0.1574  0.3702 -0.0436
23759W        W40607   0.606   7.898   4.012 -0.1496 -0.2795  0.0370
23760W        W40608   2.131  11.488   3.856 -0.0751 -0.3000 -0.1205
23761W        W40609   2.707  15.527   1.282 -0.1588  0.0142 -0.2954
23762W        W40610   4.770  10.271  16.578 -0.0592  0.1980  0.0962
23763W        W40611   4.900  15.861   4.913  0.0459  0.2101  0.0213
23764W        W40612  17.601   4.806  14.224  0.1827  0.3808 -0.0907
23765W        W40613  16.662  10.358   1.275  0.3466 -0.0321  0.1271
23766W        W40614  14.858  12.683  13.209 -0.1248 -0.3381 -0.0101
23767W        W40615   3.783  14.804  11.916  0.2876  0.1718  0.1760
23768W        W40616  17.314   4.989  11.998 -0.1179 -0.3523 -0.0841
23769W        W40617   5.984  15.377  13.295  0.2829  0.0462  0.1050
23770W        W40618   3.512   0.698  11.806  0.1188 -0.1227 -0.1626
23771W        W40619  11.528   9.771   0.083 -0.0006  0.1367 -0.0918
23772W        W40620   4.241   4.635  14.956  0.0008 -0.1059 -0.0223
23773W        W40621   7.108   2.564  10.760 -0.4724 -0.0018  0.0531
23774W        W40622   4.730  12.903   1.271  0.2599 -0.1023 -0.0535
23775W        W40623   1.701   8.918  16.366  0.2220 -0.0364  0.2559
23776W        W40624  14.705  15.746  12.340 -0.2064 -0.0617 -0.1033
23777W        W40625   1.935  16.684   0.498  0.0381 -0.0145  0.0639
23778W        W40626   6.126   5.307  11.102  0.3065  0.1233  0.0399
23779W        W40627  17.129   2.022  16.523 -0.0806  0.0530  0.2786
23780W        W40628   6.833   6.610   3.461  0.2187  0.2674  0.1241
23781W        W40629  17.010   7.554   0.290  0.1658  0.0444  0.0358
23782W        W40630  16.448   6.242  12.819 -0.0564  0.0336 -0.1580
23783W        W40631   3.532   2.927  14.876  0.0987  0.0490  0.0012
23784W        W40632  17.142   3.094  11.122  0.2217  0.0916 -0.0546
23785W        W40633  12.659  15.581  16.095 -0.0318 -0.1814 -0.2066
23786W        W40634  10.842  10.168   3.857  0.0841 -0.0633 -0.2526
23787W        W40635   9.950  11.539  12.502  0.0785  0.0094 -0.0611
23788W        W40636   4.706   6.201  15.553 -0.0605  0.1592  0.1327
23789W        W40637  10.508   7.735   0.912 -0.0159  0.0631 -0.2397
23790W        W40638  15.746  11.114  13.957  0.3337 -0.0428 -0.1074
23791W        W40639   9.314   5.916   4.743 -0.1173  0.2539  0.1996
23792W        W40640  16.952   9.523   3.049 -0.0377 -0.1055 -0.1062
23793W        W40641  15.917   3.886  16.537  0.0414  0.2051 -0.6000
23794W        W40642   5.051  14.364  11.750  0.0113  0.0578  0.0503
23795W        W40643  12.905  17.415  12.580 -0.0299  0.2862  0.0132
23796W        W40644  12.714   8.612  12.971  0.6178  0.0597  0.0919
23797W        W40645  15.562  10.250   0.303  0.0194  0.1289 -0.0048
23798W        W40646   4.672  13.963   1.961 -0.1589  0.0306 -0.2583
23799W        W40647  17.015  17.265   3.163  0.1282  0.0747 -0.1759
23800W        W40648  17.142  13.620  15.167  0.0842 -0.1879 -0.4176
23801W        W40649   4.632  17.842  14.741 -0.0075 -0.0451 -0.0730
23802W        W40650   6.267   9.516   4.001  0.0137  0.0106  0.1101
23803W        W40651   4.264   1.195   2.087 -0.1968 -0.0749  0.1239
23804W        W40652   4.770   3.381   0.941  0.0036 -0.3195 -0.0699
23805W        W40653   5.107  16.025  11.609 -0.1028  0.0990 -0.4060
23806W        W40654  11.674  13.032  13.494  0.2613 -0.1422  0.0819
23807W        W40655   5.826   6.922  13.401  0.1939 -0.1764  0.1596
23808W        W40656  14.896  11.268  11.976 -0.0790  0.0025 -0.2255
23809W        W40657  15.255  14.982  13.408 -0.0671  0.1214  0.3343
23810W        W40658   7.539  13.223  15.531  0.0556  0.1932  0.2251
23811W        W40659   4.992  17.493  14.706  0.0586 -0.0125 -0.0818
23812W        W40660  17.287   8.996   4.696  0.2455 -0.1145 -0.0134
23813W        W40661  16.634  10.687  16.428  0.1704  0.3398 -0.0350
23814W        W40662  11.711   7.096  14.513 -0.1959 -0.1301  0.0442
23815W        W40663   5.729   9.927   2.222  0.0119 -0.0831  0.0490
23816W        W40664   0.775   6.909   0.925  0.0328 -0.0811 -0.0408
23817W        W40665   4.706  17.239   1.506  0.1684 -0.2663 -0.1706
23818W        W40666   5.824  13.734   3.482 -0.0043  0.0989 -0.1072
23819W        W40667   2.157  12.977  11.684  0.5189 -0.2339 -0.3012
23820W        W40668   5.748   4.881  16.178  0.0196  0.1420  0.3378
23821W        W40669  12.442   1.815  14.604  0.4351  0.0657  0.3231
23822W        W40670  14.592  13.403   0.442  0.1368 -0.1183  0.0215
23823W        W40671  14.904  12.354  15.861  0.0800  0.2222 -0.2383
23824W        W40672  15.151   5.117   1.166 -0.1235 -0.1254  0.0220
23825W        W40673   6.036  16.544   1.787 -0.3284  0.0697 -0.2178
23826W        W40674  16.658   9.993  12.856 -0.0777  0.3216 -0.1055
23827W        W40675  11.109  17.295   1.093  0.0595  0.4341 -0.1272
23828W        W40676   7.931   4.028  11.618 -0.0168 -0.2837  0.0470
23829W        W40677  15.724  14.472   2.432  0.1561  0.0998  0.1373
23830W        W40678  17.410   6.666   2.151 -0.0173 -0.0152  0.0507
23831W        W40679   4.586   7.060   4.720 -0.1198  0.1493  0.1560
23832W        W40680   0.884  13.378  15.295  0.0892  0.0348  0.1584
23833W        W40681   9.068   3.222  16.051  0.1719  0.1258  0.0108
23834W        W40682  15.754   9.977  14.191  0.0509  0.1106 -0.1475
23835W        W40683  17.101  10.782   1.443  0.1145  0.3055  0.2520
23836W        W40684   0.911   1.043   3.325  0.1439 -0.3938  0.0165
23837W        W40685   6.499  10.194   1.224  0.0850  0.2666 -0.1740
23838W        W40686  16.652  12.879   2.832  0.0295 -0.1573  0.0155
23839W        W40687   5.151   9.001  14.221 -0.1419  0.1891 -0.2663
23840W        W40688  11.421   1.197  12.851  0.1187 -0.0129 -0.0264
23841W        W40689  10.217  16.856  13.612 -0.1319  0.1271  0.0050
23842W        W40690   8.172  13.494   1.736 -0.0252  0.3051 -0.0530
23843W        W40691   1.543   0.399   0.661  0.0266 -0.1415 -0.0092
23844W        W40692   6.813   3.548   2.646 -0.1091  0.1955  0.1013
23845W        W40693   6.426  15.579  13.580  0.1886  0.0402 -0.2576
23846W        W40694   0.172   3.951  15.769 -0.1869  0.0259  0.0264
23847W        W40695  15.533  17.548   4.767 -0.1006 -0.2273  0.1264
23848W        W40696  13.321  11.258   1.838 -0.1253 -0.0957 -0.2793
23849W        W40697   2.931   2.943   2.844  0.1989  0.1733  0.2580
23850W        W40698  12.166  11.825   3.636  0.1355  0.0777 -0.0014
23851W        W40699   1.029  17.758   2.378 -0.3339 -0.1778 -0.2339
23852W        W40700  16.015   0.490   2.292  0.0731 -0.2108 -0.1659
23853W        W40701  14.288   9.249   3.702  0.4412  0.0728  0.0946
23854W        W40702  17.295   5.909   2.648 -0.1587 -0.0445  0.0358
23855W        W40703  15.604  15.190   3.718  0.1876 -0.0079 -0.2095
23856W        W40704  14.153  12.538  16.364 -0.2703 -0.1969  0.1517
23857W        W40705   6.140   4.958   0.002 -0.0254 -0.1221 -0.3001
23858W        W40706  12.688   1.998   3.392 -0.2262 -0.1465  0.0244
23859W        W40707   9.645  12.223   3.651 -0.0540  0.2391  0.0581
23860W        W40708  14.909   8.218   2.683  0.1116  0.0416  0.1768
23861W        W40709   2.595   1.164  16.001  0.0247  0.0967  0.2646
23862W        W40710   6.593  13.718  15.710 -0.2142  0.0145 -0.1167
23863W        W40711  17.449   5.103   4.792  0.1022 -0.1608  0.2490
23864W        W40712   5.841   4.268   0.805 -0.0580 -0.0896  0.1490
23865W        W40713  10.465   3.855  14.286 -0.1229 -0.1416  0.2010
23866W        W40714  14.472  14.217  13.002 -0.1473  0.3392  0.2161
23867W        W40715   0.551   4.623  13.788  0.3107  0.0072 -0.2709
23868W        W40716  15.432   5.428   4.561 -0.2235  0.1951  0.2000
23869W        W40717   5.781   7.745  15.619  0.0057  0.1405 -0.4409
23870W        W40718  15.416   1.485   1.989  0.0005 -0.2865  0.1015
23871W        W40719   0.595   7.885   2.006  0.1952  0.1355 -0.1370
23872W        W40720   0.328   0.436  11.606  0.1889 -0.0934 -0.0068
23873W        W40721  15.043   7.811  16.079 -0.2402 -0.3076  0.1083
23874W        W40722   9.806  14.263   4.229 -0.0204  0.0570  0.0686
23875W        W40723  14.849   6.483  15.403  0.3210  0.1710  0.1205
23876W        W40724  11.630   9.173  12.756  0.0393 -0.0691  0.1349
23877W        W40725   3.929  17.413  15.763  0.3578 -0.0189 -0.1189
23878W        W40726  11.707  16.797  11.794  0.1311 -0.2954 -0.0488
23879W        W40727  13.283   7.578   5.110 -0.1841 -0.0546 -0.4535
23880W        W40728  17.784   8.070   0.750  0.1235  0.2726  0.2033
23881W        W40729  13.815  10.349   0.469 -0.5083 -0.5145  0.0468
23882W        W40730   6.734   0.111  16.533  0.0636  0.1125 -0.2525
23883W        W40731   5.109  11.119  11.938 -0.2462 -0.0298  0.2291
23884W        W40732   6.700   8.610  16.055 -0.1414 -0.3318 -0.1550
23885W        W40733  16.007  12.921  15.073  0.0483  0.0788  0.2624
23886W        W40734   9.707  13.148   3.252 -0.2115  0.0133  0.1402
23887W        W40735  15.094   2.466  13.106  0.2952 -0.2947  0.0549
23888W        W40736  17.846  14.140  14.367  0.0749 -0.2116  0.0977
23889W        W40737   4.047   8.090   4.190 -0.2476  0.0810  0.1052
23890W        W40738  16.423   0.841  14.226  0.0053  0.1913  0.0666
23891W        W40739  11.014  10.306   1.349 -0.1629  0.0901  0.1578
23892W        W40740  14.012   1.635   0.164  0.1283  0.0251  0.1512
23893W        W40741   7.628  11.857   5.026 -0.0747  0.1998  0.0805
23894W        W40742   8.191   7.823  13.241  0.0389  0.3510  0.3179
23895W        W40743   2.750   2.657   0.211  0.0307 -0.1537 -0.1047
23896W        W40744  17.742   6.864   3.340  0.1633 -0.0664  0.0185
23897W        W40745   9.871  10.128   4.946  0.0993 -0.4479 -0.2021
23898W        W40746   7.164  12.665  15.927  0.0810 -0.0768  0.1199
23899W        W40747   0.997   4.626   2.101 -0.2540  0.1563 -0.1337
23900W        W40748  11.993   5.960   2.974 -0.0878  0.2853 -0.0159
23901W        W40749  15.368  10.392  15.019 -0.1279  0.0547  0.0248
23902W        W40750   7.357  10.437  15.797  0.1079  0.0127 -0.1820
23903W        W40751   1.686   2.194   0.555 -0.0333 -0.0482 -0.0712
23904W        W40752  13.273   4.424  12.989  0.1353 -0.0665  0.0921
23905W        W40753  10.021  15.719  15.565 -0.1975 -0.3429 -0.0102
23906W        W40754   6.099   1.497  15.539 -0.0948  0.4071 -0.2724
23907W        W40755   5.926   1.175   2.974 -0.4805 -0.2230 -0.0342
23908W        W40756  16.084   3.295   0.195 -0.0454 -0.3102  0.1917
23909W        W40757   6.798  12.178   2.947 -0.3109 -0.1877  0.0603
23910W        W40758   4.787   0.634  16.251 -0.0195 -0.2469 -0.5630
23911W        W40759   7.595  12.283  10.929 -0.2538 -0.0718 -0.0734
23912W        W40760  15.965   4.953   0.657  0.0596 -0.0535  0.0766
23913W        W40761  17.024   3.283   1.506  0.0988  0.1506 -0.3914
23914W        W40762  17.324  12.277   0.370  0.1972 -0.3441  0.1798
23915W        W40763   5.077  14.645   2.300  0.0314  0.0752 -0.1778
23916W        W40764  11.687   5.352   5.067  0.0164 -0.2230 -0.5645
23917W        W40765   3.819  11.509  11.711  0.0682  0.3294  0.2796
23918W        W40766  14.762   7.803   2.453  0.1799  0.2254  0.1071
23919W        W40767   5.111  10.652  11.860  0.0313 -0.0801  0.3387
23920W        W40768  12.835   6.141   0.013 -0.1004  0.0888  0.1159
23921W        W40769   8.668  14.067   2.081 -0.0127 -0.0228 -0.0580
23922W        W40770   5.169   6.220   1.148  0.1683 -0.2510 -0.1200
23923W        W40771   1.288   2.735  15.358 -0.1212 -0.0438  0.1442
23924W        W40772   8.671   8.891  12.561  0.0842  0.0288 -0.1353
23925W        W40773  13.131   5.190  12.298  0.1709  0.1825 -0.0048
23926W        W40774   5.545  14.236   1.549  0.1004 -0.1150  0.0382
23927W        W40775  17.208  16.731   5.086 -0.2136  0.1443  0.2802
23928W        W40776  14.072  13.432   0.371 -0.0126  0.1410 -0.2236
23929W        W40777   0.642  10.893   1.906 -0.2150 -0.1512 -0.0836
23930W        W40778   0.456   6.721   2.275 -0.1478  0.4346 -0.1678
23931W        W40779   7.386   0.609  15.061 -0.0530  0.1927  0.1519
23932W        W40780   5.982   5.313  16.253  0.3885 -0.0970 -0.1654
23933W        W40781  10.186   4.351  12.647  0.3790 -0.2528  0.1152
23934W        W40782   4.677  10.558   2.455 -0.1325  0.0984 -0.0016
23935W        W40783  17.141  17.046  13.737  0.1200 -0.0410 -0.1482
23936W        W40784   7.237  15.117   1.062 -0.0409 -0.3882 -0.1816
23937W        W40785   1.227   9.872  15.104  0.0286 -0.3626  0.1976
23938W        W40786   7.992   7.227  13.363 -0.2228 -0.2877 -0.0176
23939W        W40787  14.346   1.322   2.094 -0.1730  0.2357 -0.1156
23940W        W40788   6.475  10.177  10.865 -0.0113  0.0828  0.0730
23941W        W40789   9.005   0.196  13.351  0.0913 -0.1977  0.0195
23942W        W40790  12.482  16.241   0.440  0.0201  0.1525  0.1635
23943W        W40791   1.608   6.388  15.057 -0.1730 -0.1251  0.1733
23944W        W40792  13.377  10.597   3.012  0.1239  0.0263  0.1630
23945W        W40793  16.831   8.177   3.819  0.0811  0.0728  0.0176
23946W        W40794   8.255   4.925  15.893 -0.1119  0.3326  0.0240
23947W        W40795  10.145   0.420   1.160  0.0901  0.0129  0.0705
23948W        W40796   7.269   6.555  12.474 -0.3204  0.1138  0.0626
23949W        W40797  13.819  16.048  12.172 -0.1116 -0.1223  0.0815
23950W        W40798  15.772   8.226  11.259 -0.0913  0.2318 -0.4762
23951W        W40799   9.026   6.420   4.469  0.0842 -0.2529 -0.1101
23952W        W40800  12.844   1.957  13.700 -0.0453 -0.2019  0.0813
23953W        W40801   9.644   6.099   2.752 -0.1371  0.2314  0.0158
23954W        W40802  16.959   3.477   3.026 -0.2533 -0.1169 -0.2755
23955W        W40803   1.993  12.963   0.192  0.1677 -0.3196 -0.3479
23956W        W40804  14.389   4.901  15.580  0.3350 -0.1274 -0.0323
23957W        W40805  14.373   9.560   0.303  0.1150 -0.1217  0.0530
23958W        W40806   5.142  15.546   0.404 -0.1210 -0.1197 -0.1009
23959W        W40807   1.832   6.421  11.178  0.0359  0.1662 -0.0794
23960W        W40808  11.546  12.403  12.726 -0.0482 -0.0308 -0.0377
23961W        W40809  11.320   4.271  12.110 -0.1665  0.0696  0.1346
23962W        W40810   5.820  11.544  14.233 -0.1468 -0.0957  0.0640
23963W        W40811   3.924   0.897  16.532  0.0158 -0.3397  0.0761
23964W        W40812  15.932   5.769   3.856 -0.0431 -0.0721  0.2228
23965W        W40813   0.695   0.870  15.392 -0.0742  0.2382  0.0099
23966W        W40814   3.262  15.667  12.196 -0.0317 -0.1157  0.0057
23967W        W40815   4.008   3.030   2.910  0.1070 -0.0569  0.1315
23968W        W40816   6.596   5.886  13.294  0.2748 -0.0113 -0.0608
23969W        W40817  15.315   4.633   1.655  0.0775  0.3235 -0.0163
23970W        W40818   5.378  13.323   2.806  0.2968 -0.0579  0.1729
23971W        W40819  12.846  12.709   2.924  0.0052 -0.0057  0.2123
23972W        W40820   7.286  10.929   0.576 -0.0705  0.0279  0.0593
23973W        W40821   0.274   3.364  12.544 -0.0267  0.1629 -0.3864
23974W        W40822  11.677   8.341  15.732 -0.1015  0.0774 -0.0111
23975W        W40823  14.981   0.966  14.649 -0.0709 -0.0646 -0.0245
23976W        W40824  15.467   5.152   6.434  0.2399 -0.1742 -0.0460
23977W        W40825   8.596   8.737  13.038 -0.1569 -0.1330  0.2840
23978W        W40826   3.949   9.755  14.088 -0.1713  0.3682 -0.0597
23979W        W40827  11.483   3.346   1.575 -0.1470 -0.0455 -0.2037
23980W        W40828  16.012  12.485  11.926 -0.0667 -0.1863 -0.0778
23981W        W40829   4.921   2.775   2.327 -0.1503  0.2968  0.0248
23982W        W40830  10.338   7.313   5.333 -0.0492 -0.0763 -0.1650
23983W        W40831   2.986   4.849   0.786  0.0954 -0.1335 -0.0243
23984W        W40832   4.589   2.671   4.558  0.0331  0.1154  0.0651
23985W        W40833   8.269  17.419  13.579 -0.2181 -0.1870  0.3047
23986W        W40834   7.683   6.227  11.066 -0.2037 -0.0387  0.0678
23987W        W40835  10.645   7.324   0.657  0.2362  0.1789  0.1718
23988W        W40836   1.480   6.217  10.923 -0.1050  0.1915 -0.1668
23989W        W40837  13.207   7.360   0.487  0.0221 -0.0046 -0.3460
23990W        W40838  10.523  12.570   1.475 -0.0058  0.0607 -0.0220
23991W        W40839   2.767  11.689   0.912 -0.0962 -0.0631 -0.0807
23992W        W40840  17.042  17.634  14.914 -0.2310 -0.1754  0.1105
23993W        W40841   9.730  11.911  13.495  0.0199  0.1750  0.0016
23994W        W40842   8.405  16.614   1.453  0.3528 -0.1037  0.0519
23995W        W40843  16.488   7.890   2.889 -0.2026  0.0488 -0.1089
23996W        W40844   1.523  10.022   4.084  0.1006  0.1593 -0.0178
23997W        W40845   4.728  15.306  15.972 -0.1938 -0.0130 -0.2288
23998W        W40846  13.721  14.392  13.074 -0.1273 -0.1960 -0.0031
23999W        W40847   2.567  15.008   4.540  0.2079  0.0628  0.0532
24000W        W40848   9.227  17.633   2.342  0.0549  0.1889  0.1824
24001W        W40849   2.935  11.151   1.129  0.0702  0.1925  0.4354
24002W        W40850  17.658  14.041   0.898 -0.1946  0.1343 -0.2291
24003W        W40851  16.997  15.297   1.401  0.4745 -0.1173 -0.0085
24004W        W40852   1.736  17.127  15.124 -0.0514 -0.2142  0.0085
24005W        W40853  13.595   9.510  15.371  0.2526 -0.1079 -0.1595
24006W        W40854  17.033   0.844   1.475 -0.1318 -0.2675 -0.0080
24007W        W40855   8.720  12.508  11.893  0.3813 -0.1007 -0.2356
24008W        W40856  17.569   0.110   4.767  0.0151 -0.1167  0.1468
24009W        W40857  17.491   6.742   1.651 -0.1853 -0.1494 -0.0993
24010W        W40858  13.612  17.070   2.406  0.1189  0.0143  0.2264
24011W        W40859   5.432  15.532  15.590  0.0919 -0.1190  0.1652
24012W        W40860   3.337   8.744  15.911  0.0312 -0.0836 -0.2006
24013W        W40861  14.699   1.167   1.626  0.0074 -0.1040  0.0511
24014W        W40862   5.563  13.339   5.516 -0.2719 -0.0049 -0.0731
24015W        W40863   1.933   8.798   1.638  0.1270 -0.3158  0.1244
24016W        W40864   8.459   3.931   1.248 -0.0512  0.0717  0.5069
24017W        W40865  12.931   5.969   3.329  0.0366 -0.1388  0.0248
24018W        W40866   1.820   7.142   0.208 -0.1357 -0.0593  0.1237
24019W        W40867   6.414  13.235   0.642 -0.0261 -0.0578 -0.0706
24020W        W40868   5.588  16.760   2.138  0.2025 -0.0864 -0.2085
24021W        W40869  11.853   6.019  15.631  0.0512  0.0500  0.3019
24022W        W40870   9.836   0.256   5.125  0.0724 -0.0337  0.0688
24023W        W40871   3.794   0.030   0.875 -0.2737 -0.2739  0.0032
24024W        W40872   6.362  16.498  12.924  0.0075  0.0658 -0.0707
24025W        W40873   1.618  16.149   3.451 -0.1899 -0.1169  0.2206
24026W        W40874   9.225   2.154   2.209  0.1357 -0.1291 -0.0622
24027W        W40875  11.416  13.128  16.526 -0.2386 -0.2948 -0.4597
24028W        W40876   1.816   9.558   1.240 -0.0171 -0.1963 -0.0970
24029W        W40877   1.899  13.454   1.995 -0.0328  0.0659 -0.1425
24030W        W40878  12.359   0.923   0.736  0.0329  0.0505  0.2882
24031W        W40879   6.793  14.000  14.044 -0.0912 -0.2843  0.1065
24032W        W40880   8.755   6.502   3.971  0.1451 -0.0870 -0.0942
24033W        W40881   5.186  14.756  15.337  0.1256  0.0212 -0.2466
24034W        W40882   9.215  12.978  14.897 -0.1420 -0.2754  0.2030
24035W        W40883   1.392   4.177   2.440  0.0312  0.0056 -0.1974
24036W        W40884   4.923  15.401   2.022 -0.1621  0.3782  0.2308
24037W        W40885   7.686   7.682  11.598  0.0584  0.2915  0.1903
24038W        W40886  16.040   6.054   2.958 -0.0946 -0.0739 -0.1151
24039W        W40887  14.380   1.324  11.470 -0.0278 -0.1307  0.1711
24040W        W40888   6.554  16.281  15.315  0.1867 -0.0965 -0.2187
24041W        W40889   5.431  13.132   1.211  0.2401  0.3008 -0.0880
24042W        W40890  16.504  13.058   0.590  0.1310 -0.4746 -0.0996
24043W        W40891   3.730  13.126   4.024  0.0256 -0.1702  0.3336
24044W        W40892  10.069  10.962   2.320 -0.0453 -0.0156  0.1104
24045W        W40893   3.256  13.945   5.314 -0.1417  0.1399  0.1157
24046W        W40894   9.846   6.701   1.369  0.1283  0.3184 -0.2806
24047W        W40895   0.245   2.150   5.469 -0.0619  0.3392  0.2390
24048W        W40896   3.004   9.990   2.963  0.0265 -0.0484 -0.1190
24049W        W40897   4.715   0.030  14.079 -0.2361 -0.0378  0.1067
24050W        W40898  15.502   8.938   4.905  0.0746 -0.3167  0.1792
24051W        W40899  15.970  12.344  11.119 -0.1590 -0.1648 -0.1216
24052W        W40900  13.366  16.389   2.443  0.3522  0.0100 -0.0131
24053W        W40901  11.139  17.475   2.742  0.1051 -0.0571 -0.0129
24054W        W40902   5.964   0.842   4.751 -0.1465  0.5284  0.0013
24055W        W40903   0.867  12.671   3.694  0.2325  0.0245 -0.4071
24056W        W40904  12.413  15.748  15.058 -0.0676 -0.1568 -0.0533
24057W        W40905   2.416  12.396  12.591  0.2476  0.1113  0.2687
24058W        W40906   4.760   3.147   4.829  0.1662 -0.1239  0.0469
24059W        W40907   3.027  12.912  14.872 -0.3270  0.1863 -0.1925
24060W        W40908   5.643   6.541   3.202 -0.0344 -0.1041  0.0982
24061W        W40909   7.454  13.139   2.772  0.1114 -0.2517  0.2823
24062W        W40910   2.528   3.261  12.945 -0.0057  0.1716  0.1979
24063W        W40911  11.752   2.768  15.416  0.2401  0.0418 -0.1766
24064W        W40912  10.490   0.572   5.899 -0.1795 -0.2887  0.3013
24065W        W40913   1.224   2.380  13.666  0.2413 -0.0899 -0.0767
24066W        W40914   5.456  14.374  14.237 -0.1592  0.2002 -0.0062
24067W        W40915   0.057   7.183   6.250  0.3173  0.2657 -0.1318
24068W        W40916   7.865  16.340  14.508  0.0812  0.0551 -0.0068
24069W        W40917   1.228   8.794   2.187  0.1964  0.2324 -0.0230
24070W        W40918  15.040   8.083  12.623  0.0427 -0.4189 -0.0846
24071W        W40919   2.293   7.779   5.200  0.3010  0.2161  0.2558
24072W        W40920   9.159   3.798  13.063  0.2018  0.3344  0.1738
24073W        W40921  16.179  16.639  15.031  0.2973  0.1093  0.1653
24074W        W40922  12.535  17.001   2.243  0.2768  0.3929  0.0079
24075W        W40923  14.880   8.713   4.749 -0.4191 -0.0144 -0.2275
24076W        W40924   5.130   2.577  11.716 -0.1897  0.0637 -0.1912
24077W        W40925   0.645   6.175  15.534 -0.0042 -0.2708  0.3155
24078W        W40926   0.177   9.846  16.628 -0.0138 -0.1201  0.0143
24079W        W40927   8.833  17.239   0.499 -0.1940 -0.0591 -0.1379
24080W        W40928   8.298  10.858  14.044  0.0110  0.1445  0.1882
24081W        W40929   8.940  10.766  16.254  0.0410 -0.0532 -0.2935
24082W        W40930   4.330   0.201   3.066  0.1245 -0.0572 -0.0356
24083W        W40931   7.688   8.554  13.346 -0.0218 -0.1481  0.3834
24084W        W40932  11.903   8.704  13.595 -0.0971  0.1082  0.1556
24085W        W40933   3.465   9.599   4.652  0.1301  0.0698  0.1929
24086W        W40934  13.267  14.023  10.920  0.1795  0.0761  0.1492
24087W        W40935  10.842   5.856   5.295  0.1122 -0.1052 -0.1911
24088W        W40936   2.831  14.705   4.873 -0.1144 -0.0468  0.2193
24089W        W40937   8.833   2.712   1.947  0.0099  0.2405 -0.1239
24090W        W40938  14.501  14.574   0.695  0.2190  0.2044 -0.1425
24091W        W40939  11.024   2.938  16.535 -0.0049  0.2748 -0.0473
24092W        W40940   0.499   2.043   4.147 -0.1032 -0.3534 -0.0515
24093W        W40941   0.442   3.612   4.937  0.2100  0.0095  0.4044
24094W        W40942  14.721   6.021   2.285 -0.1531 -0.0191  0.1261
24095W        W40943   3.968   1.469  16.319 -0.0557  0.4463  0.4467
24096W        W40944  12.587  11.729   0.453  0.3588  0.0786 -0.0687
24097W        W40945  16.170   8.167   0.894 -0.1837 -0.1951  0.0512
24098W        W40946  11.172   2.538   0.325 -0.1640  0.1363  0.2945
24099W        W40947   1.287  14.653  15.025 -0.1545 -0.0043 -0.1162
24100W        W40948  16.511   8.588   1.181  0.0540  0.0094  0.0192
24101W        W40949  11.549   1.472  15.580 -0.3982 -0.0570  0.0560
24102W        W40950   2.221   6.629   3.734 -0.0706  0.1829 -0.0062
24103W        W40951   3.789   7.786   2.415 -0.1483  0.0691 -0.3033
24104W        W40952   3.506  16.863  16.341  0.1499 -0.1572  0.0027
24105W        W40953   5.579   8.000  16.518  0.0741 -0.1802  0.0777
24106W        W40954  12.167  16.107   4.184  0.2598 -0.1706  0.0031
24107W        W40955   7.449   6.424   5.355  0.0283  0.1598  0.0559
24108W        W40956  14.526  12.847   3.969 -0.1045 -0.0149  0.2273
24109W        W40957  16.365  10.714  12.767 -0.2886 -0.1309 -0.1986
24110W        W40958   8.268  13.678  12.842  0.1249  0.0740 -0.1789
24111W        W40959  13.717   2.585   4.895 -0.2165 -0.2230 -0.0056
24112W        W40960   3.727  12.516   1.333  0.0365 -0.1587 -0.1255
24113W        W40961  16.208  15.015   4.789 -0.0541 -0.1873 -0.2024
24114W        W40962  10.906   4.624   1.647 -0.1583  0.0295  0.0889
24115W        W40963  14.919  13.347  14.130  0.3304  0.1084 -0.3062
24116W        W40964   3.798   8.711   3.835  0.0434 -0.0875 -0.0591
24117W        W40965  15.619  14.136   2.851  0.0416  0.1227 -0.1567
24118W        W40966   9.296  14.229  13.639  0.0885  0.0782 -0.0827
24119W        W40967   3.554  14.851   4.584  0.3075 -0.3145  0.0646
24120W        W40968  15.210   0.415   2.839  0.0113  0.2822 -0.1011
24121W        W40969   6.847  10.414  14.432  0.2028  0.2531  0.1185
24122W        W40970   3.059  11.345  11.790 -0.1150  0.0178 -0.1771
24123W        W40971   2.329   4.560  15.181 -0.0660 -0.1468  0.0871
24124W        W40972  10.296   0.340   4.476 -0.3452 -0.1754 -0.3188
24125W        W40973  14.724  10.410  12.420  0.1836  0.0447 -0.2408
24126W        W40974  10.713  10.970   4.569  0.0042  0.0314  0.0537
24127W        W40975  14.204  11.136  12.971 -0.2399  0.1278 -0.1252
24128W        W40976   9.214  14.967   1.945 -0.0146 -0.0791 -0.0256
24129W        W40977  12.343  10.253   0.008 -0.1436 -0.0850  0.1946
24130W        W40978  12.728   1.218   3.842  0.0263  0.0232 -0.3662
24131W        W40979  11.165  15.924   3.795  0.1074  0.0259  0.0028
24132W        W40980   9.795   5.206  14.196  0.2087 -0.1822 -0.1082
24133W        W40981   2.100  13.984  13.490  0.0214 -0.0853  0.2719
24134W        W40982   1.014  15.888  12.344 -0.2150 -0.3385  0.0208
24135W        W40983  12.500  17.814   5.956 -0.1314  0.2868 -0.0192
24136W        W40984   5.875   4.033  13.493  0.0794 -0.1577  0.1730
24137W        W40985   9.419  16.476   0.700  0.0801 -0.1430 -0.0683
24138W        W40986   7.004  15.389   1.917 -0.1970  0.1793  0.2465
24139W        W40987  14.038   7.045   3.787  0.4868  0.0722 -0.4589
24140W        W40988   6.008   2.842   1.841  0.1183 -0.2357 -0.1603
24141W        W40989  11.807   9.937  14.823  0.2150 -0.0223  0.0893
24142W        W40990   8.987   6.676  11.055  0.2152 -0.1339  0.1416
24143W        W40991  16.931   9.858   4.994  0.0286  0.1860  0.0420
24144W        W40992   5.918  11.445  13.327  0.0771 -0.0540 -0.1347
24145W        W40993   2.445  14.272   3.198  0.2109 -0.1377 -0.0139
24146W        W40994  12.497   9.294  12.391 -0.1357 -0.0823 -0.0450
24147W        W40995  14.449  10.416   2.968 -0.1180 -0.0549 -0.3229
24148W        W40996  13.309  11.565   3.436  0.2391 -0.1689  0.1853
24149W        W40997   2.611  16.143  15.607 -0.4266  0.1420 -0.3943
24150W        W40998  13.251  10.061  14.745 -0.0770 -0.1499 -0.1517
24151W        W40999   3.972   2.457  15.192  0.0320 -0.2440 -0.0089
24152W        W41000   8.338   0.913   1.431  0.1413 -0.2880  0.1809
24153W        W41001   0.359   2.781  14.766 -0.0873  0.0292 -0.0968
24154W        W41002  12.302   5.737   2.530  0.5219  0.1826 -0.4325
24155W        W41003  10.137  14.832  14.477  0.1997  0.1009  0.1472
24156W        W41004  12.290  14.475   4.136 -0.0264 -0.0523 -0.1885
24157W        W41005  10.727  14.984   4.719  0.2443  0.1092 -0.0311
24158W        W41006  12.974  12.114  13.859 -0.1018 -0.0814  0.0925
24159W        W41007  15.249  10.886   3.104 -0.0073  0.3719  0.1246
24160W        W41008   7.009  16.593   3.898 -0.0943 -0.2799 -0.0004
24161W        W41009  12.114  13.491   3.805  0.2090 -0.0942 -0.2150
24162W        W41010   8.012  15.609  13.380  0.0019 -0.0527  0.1740
24163W        W41011   8.115   7.359   4.830 -0.0729 -0.0293  0.3496
24164W        W41012  15.305   4.142  15.585  0.0668  0.0353 -0.2800
24165W        W41013   8.412  16.449  14.519 -0.0948 -0.1933 -0.3208
24166W        W41014   9.223  17.240  13.710 -0.4354  0.0925  0.0268
24167W        W41015   3.414  16.770  10.807 -0.2177  0.2117  0.0009
24168W        W41016  15.424   0.593   5.406  0.1149  0.3719  0.0772
24169W        W41017  13.538   7.675   0.583  0.2536  0.0478 -0.1002
24170W        W41018  11.832  12.664   4.064 -0.1985  0.0407  0.1329
24171W        W41019   1.409   6.724   1.741 -0.0296  0.2157 -0.1656
24172W        W41020   9.743  11.376  12.961  0.0968  0.0372 -0.0367
24173W        W41021   2.440  14.686  15.827 -0.2925  0.1592 -0.0952
24174W        W41022  12.188  16.758   0.465  0.2439 -0.0850  0.0286
24175W        W41023  12.371  14.556   0.480 -0.0460  0.2675  0.2741
24176W        W41024   7.668  16.036  12.013 -0.0794 -0.1548  0.2109
24177W        W41025   2.076   7.888   1.455 -0.0906 -0.1624  0.0667
24178W        W41026  13.253  11.793  15.106 -0.0364  0.1615  0.0123
24179W        W41027   5.125   7.134  15.807  0.1883  0.2219 -0.1250
24180W        W41028   1.520  16.518   1.145 -0.1631  0.3200  0.1022
24181W        W41029  15.703  14.366  14.724  0.4960  0.1737 -0.0712
24182W        W41030   4.265  12.477  14.376 -0.0755  0.0210 -0.0532
24183W        W41031   7.029   8.652  11.590 -0.1247  0.0392  0.0993
24184W        W41032  14.495  15.381   1.000  0.1309  0.0551 -0.1256
24185W        W41033   6.335   7.023  10.412  0.0294  0.3242  0.0763
24186W        W41034  17.714   5.855  13.442 -0.0316  0.0850 -0.0988
24187W        W41035  15.330   4.640  12.970  0.1889  0.0157  0.1275
24188W        W41036  15.524  10.283  12.054 -0.2708  0.1221  0.0565
24189W        W41037  13.502   4.232  13.366  0.0369  0.1748  0.3714
24190W        W41038   4.700   7.972  14.852 -0.2473  0.2954  0.0406
24191W        W41039  13.036  14.698  12.189 -0.1629  0.0365 -0.1407
24192W        W41040   6.589  11.617  12.440 -0.3836 -0.1491 -0.0780
24193W        W41041  16.945   8.480   0.145 -0.2319 -0.0255  0.1203
24194W        W41042  16.701   6.230  14.833 -0.1239 -0.2203  0.0981
24195W        W41043   4.439   4.004   0.909 -0.1351  0.0822  0.0850
24196W        W41044   6.539  16.092   2.404  0.5358  0.0808 -0.1980
24197W        W41045  11.567   0.824   1.234  0.1187  0.0398  0.4113
24198W        W41046  11.697  11.877   6.415 -0.0258 -0.2244 -0.4103
24199W        W41047   3.733   8.306   1.473 -0.0928  0.3395 -0.4867
24200W        W41048   5.978   3.462  16.354  0.0797 -0.0741  0.0112
24201W        W41049   0.682   1.490   0.946  0.0261 -0.2200 -0.1571
24202W        W41050   1.488   4.263  14.017  0.0155 -0.0939 -0.0256
24203W        W41051  14.996   9.941  16.178 -0.1538 -0.0803 -0.2474
24204W        W41052  15.421  10.170  16.000 -0.0366  0.3115  0.0420
24205W        W41053   9.795   9.607  15.026 -0.1613  0.3557  0.1758
24206W        W41054  15.699   2.280   2.171 -0.0829  0.2441  0.1908
24207W        W41055  17.556  12.252   1.796 -0.1456 -0.3370 -0.1155
24208W        W41056   9.822  17.751  14.847  0.3165  0.4607  0.0076
24209W        W41057   0.925  17.380   2.072 -0.0513 -0.4115  0.2618
24210W        W41058   3.968  11.009  13.176  0.0623  0.4376  0.2919
24211W        W41059   8.979   5.839  12.461 -0.0590 -0.2423 -0.1631
24212W        W41060   2.440  14.134  11.970  0.1314  0.0579 -0.2625
24213W        W41061  10.216  15.782   3.817 -0.2238 -0.0706 -0.1594
24214W        W41062   0.757  11.660  13.125  0.0932 -0.2822 -0.0023
24215W        W41063   1.464  12.697   0.852  0.0332  0.1062  0.1097
24216W        W41064   2.793  14.807  13.522 -0.1702 -0.2175  0.3278
24217W        W41065   4.770   9.181   3.561  0.2530  0.1139 -0.1063
24218W        W41066   5.492  13.811  13.533 -0.0797 -0.0635 -0.0733
24219W        W41067   1.895   3.733  16.510  0.1833 -0.0092 -0.1520
24220W        W41068  17.583   4.626   4.071 -0.0236 -0.3345 -0.1393
24221W        W41069   3.495  11.107   1.213  0.0639 -0.1830 -0.2034
24222W        W41070   5.301   9.054   3.306  0.2828 -0.0084  0.0164
24223W        W41071  16.620   9.277   0.025  0.0542 -0.1093  0.1150
24224W        W41072   2.528   5.817  11.449 -0.1494  0.0006  0.1977
24225W        W41073  16.902   7.067  13.580 -0.1209  0.1021 -0.2122
24226W        W41074   6.652   5.552  15.730 -0.0893  0.0903  0.1239
24227W        W41075   8.440  11.044   2.264  0.1944 -0.0994  0.5127
24228W        W41076   8.995   2.701   4.459 -0.1657  0.0073  0.0310
24229W        W41077   8.524  10.551   2.169 -0.2654  0.4290  0.0062
24230W        W41078   0.788   1.703  13.839  0.0273  0.0393  0.1083
24231W        W41079   1.853  13.756   5.152  0.0420  0.1561  0.4795
24232W        W41080   1.599   7.594   4.603  0.1516 -0.1613  0.1875
24233W        W41081  15.552  13.375  12.810  0.6066 -0.5917 -0.3738
24234W        W41082  11.548   8.027   3.800 -0.1191 -0.0012 -0.0754
24235W        W41083   8.725  17.823   1.206  0.2955  0.2277 -0.3331
24236W        W41084  10.509   7.997  12.786 -0.0927  0.0533  0.0865
24237W        W41085   8.934   6.062   3.185  0.2922 -0.1308 -0.3710
24238W        W41086   7.410  13.928  16.067 -0.1215 -0.1035 -0.0402
24239W        W41087   4.913   9.196   1.969  0.0238  0.0948  0.0721
24240W        W41088   2.156   8.301  15.345  0.1553  0.0638  0.0506
24241W        W41089   7.716  10.516   4.098  0.1934 -0.0760 -0.0946
24242W        W41090   1.518  14.699   2.044  0.0852 -0.0634  0.1680
24243W        W41091  11.158  10.589  12.224  0.0548 -0.1422  0.2819
24244W        W41092  12.106   3.458  14.431  0.1033  0.1684 -0.2602
24245W        W41093   8.932   0.471  14.894 -0.0157 -0.1871  0.0580
24246W        W41094   3.837   0.467   1.134 -0.0872  0.0252 -0.0287
24247W        W41095   9.556   5.927   3.210  0.0555 -0.0782 -0.0326
24248W        W41096   4.372  11.717   0.266 -0.1952 -0.0100  0.3814
24249W        W41097   0.465   8.869   5.141  0.2363 -0.0396 -0.0711
24250W        W41098  14.776  10.661  13.658 -0.0814 -0.1533  0.0792
24251W        W41099   3.371  17.178   1.884 -0.2519  0.0885 -0.1385
24252W        W41100  13.016  16.821   3.972  0.0013  0.0369  0.0109
24253W        W41101   0.921   0.733   1.335 -0.1878 -0.2473  0.2287
24254W        W41102  14.123   1.404  12.431 -0.0393 -0.1561  0.0269
24255W        W41103  10.428  11.731   4.086  0.1103  0.0525 -0.0740
24256W        W41104   9.733  12.693  11.812 -0.1292  0.1449  0.0028
24257W        W41105  12.115   0.800  14.521 -0.3538  0.2336  0.2762
24258W        W41106  13.751   0.089   2.213  0.0864 -0.1648  0.0481
24259W        W41107  12.900   8.244   0.405  0.2319  0.0363  0.0744
24260W        W41108   4.965   9.458  11.746  0.0682  0.0848 -0.2482
24261W        W41109  16.003   4.295  12.176 -0.1105  0.3365  0.0957
24262W        W41110  14.004  14.634   3.578 -0.1317  0.0168  0.0495
24263W        W41111   3.660   4.761  11.533  0.1169  0.2478 -0.1933
24264W        W41112  12.825   9.645   3.687  0.5308 -0.0082 -0.2076
24265W        W41113  13.738   1.542  14.346  0.0153 -0.0773 -0.2829
24266W        W41114  11.463   4.842   4.254 -0.0594  0.1628 -0.3635
24267W        W41115   3.501   9.690  13.857  0.2804 -0.2885  0.0621
24268W        W41116  10.733   5.874   1.800  0.2467  0.3085 -0.2277
24269W        W41117   6.118   6.977   3.256  0.2572  0.0331 -0.0644
24270W        W41118  14.932  10.129   1.056  0.1183  0.0524  0.0445
24271W        W41119   1.339   0.615   2.792 -0.1418  0.2296  0.1551
24272W        W41120  16.601  11.706  13.806  0.0159 -0.0138  0.0775
24273W        W41121   4.337   1.891  12.186  0.1598 -0.0871  0.0572
24274W        W41122   7.719   2.633   1.317 -0.1003  0.1069  0.4039
24275W        W41123  15.739   0.903  12.070 -0.2396 -0.2871  0.0683
24276W        W41124   9.459  16.364   2.236  0.2869  0.2140 -0.0300
24277W        W41125   5.216   4.517  12.274  0.1051  0.0419 -0.3004
24278W        W41126   0.992   5.787  15.390  0.3125  0.0107  0.1552
24279W        W41127   8.445  14.662  14.800 -0.0653  0.2748 -0.1121
24280W        W41128  15.409   8.349   1.171  0.2840  0.1202  0.1184
24281W        W41129  12.309   2.425   4.295  0.5031  0.1838  0.2963
24282W        W41130   8.092   2.467   4.884 -0.1505  0.0898 -0.1404
24283W        W41131  13.128  16.207   4.459 -0.2463  0.1282 -0.0240
24284W        W41132   5.563  17.138  15.034  0.2599  0.0540  0.0990
24285W        W41133   4.244  12.767   2.027  0.1363 -0.1550 -0.0425
24286W        W41134  14.669   2.829   4.554 -0.2117 -0.0372  0.2038
24287W        W41135   6.862   3.378  14.654  0.0883 -0.2196  0.0299
24288W        W41136   5.403   9.318   2.624  0.2574 -0.0329 -0.1249
24289W        W41137   3.682  12.873   3.180  0.0173 -0.3031  0.0047
24290W        W41138  13.031   3.419   1.773  0.2244 -0.1314 -0.0233
24291W        W41139   9.029   0.354  13.835  0.1778 -0.0081  0.3279
24292W        W41140  14.632  12.005   1.590 -0.0640 -0.0144  0.1469
24293W        W41141  10.818  17.546  12.258 -0.0142 -0.3039 -0.1347
24294W        W41142  11.545  11.657   1.881 -0.1633 -0.1954  0.0764
24295W        W41143  13.901  14.482  15.502  0.0441  0.2296 -0.0249
24296W        W41144   1.205   5.160  15.819  0.0752  0.1569 -0.1515
24297W        W41145   6.036   5.305  14.443  0.1970  0.0290 -0.2811
24298W        W41146  12.687  10.632  11.569 -0.0090  0.0520 -0.1716
24299W        W41147   0.213  15.967  14.424 -0.0324 -0.0019 -0.2804
24300W        W41148  13.678   3.437  13.382 -0.3178 -0.0001  0.2646
24301W        W41149  16.804   9.409   4.282  0.2193 -0.1965 -0.0028
24302W        W41150   4.084  16.974   3.829 -0.0070 -0.0990 -0.0545
24303W        W41151  16.853   8.560  11.448  0.0675 -0.0563  0.2116
24304W        W41152   0.963   0.417  14.715  0.2044 -0.1240 -0.1517
24305W        W41153  13.761   5.770  11.776  0.0720 -0.0306  0.6123
24306W        W41154   1.028   7.492  15.296  0.1404  0.4278  0.2139
24307W        W41155   3.177  13.094   2.054  0.1676  0.0294  0.0547
24308W        W41156   8.127  12.244   2.801 -0.0404 -0.0511  0.0331
24309W        W41157  14.100   3.147   3.373 -0.1314  0.0747  0.1973
24310W        W41158  13.016   1.721  11.910  0.2209  0.0190 -0.2326
24311W        W41159  15.639   5.228  13.677 -0.1105  0.1283  0.0258
24312W        W41160  11.022   4.396   2.445 -0.0389  0.1689 -0.2468
24313W        W41161   8.304  13.938   3.554 -0.3083 -0.0029  0.2365
24314W        W41162   1.570   6.362   2.539 -0.0630 -0.0594  0.2148
24315W        W41163   5.295  11.166  14.978  0.0165  0.0219  0.5446
24316W        W41164   5.354  12.829   2.940  0.3667  0.0907  0.2101
24317W        W41165  16.645   1.340   3.146 -0.1438 -0.2938  0.1723
24318W        W41166  12.421   0.297  15.945  0.0524 -0.0334  0.2174
24319W        W41167   7.685   6.819   0.582  0.3311 -0.0004 -0.0342
24320W        W41168   2.899   3.574  11.444  0.0767  0.1385  0.2528
24321W        W41169  16.819  16.469   5.537  0.1662  0.1963  0.2928
24322W        W41170   3.330   8.333   2.805 -0.3926 -0.2703  0.1412
24323W        W41171   4.548  13.638  15.271 -0.1594  0.0721 -0.0330
24324W        W41172  15.369   6.571  13.407 -0.0856  0.1506  0.0524
24325W        W41173   0.223   3.072   2.525  0.0990  0.1159 -0.0160
24326W        W41174   5.903  12.055   3.167  0.1086 -0.0253 -0.2599
24327W        W41175   0.279   2.305  16.549 -0.1264  0.2273  0.0063
24328W        W41176  12.506  14.783   4.962  0.1148  0.0719  0.0878
24329W        W41177  13.132   7.607   1.040 -0.3580 -0.0841 -0.3186
24330W        W41178   4.630  15.014   5.300  0.1396 -0.3647  0.1844
24331W        W41179   6.276   5.991   3.869  0.3800 -0.0509  0.1985
24332W        W41180  14.384   7.353   0.555  0.2355 -0.0387  0.2704
24333W        W41181   9.504  12.164  11.830 -0.0865  0.0869 -0.3551
24334W        W41182  11.431  13.993   2.101 -0.3585  0.0132  0.0049
24335W        W41183  16.529   2.837   1.495 -0.0177  0.2540 -0.1193
24336W        W41184   0.953   7.537   2.746 -0.0456  0.3176 -0.1453
24337W        W41185  12.495  15.261  14.879 -0.1324 -0.1088 -0.0374
24338W        W41186   2.797  13.404   2.012 -0.1804  0.2983 -0.1615
24339W        W41187  10.824   8.403  13.540  0.3058  0.2653 -0.3811
24340W        W41188   5.927   3.274   0.187 -0.0167 -0.0063  0.0217
24341W        W41189   7.436  14.895  16.003  0.0188 -0.2058  0.1002
24342W        W41190  15.613   4.802   2.079  0.3168  0.1277 -0.1672
24343W        W41191   8.209  11.439  12.333  0.0119 -0.1831 -0.1810
24344W        W41192   6.814   3.890  14.502  0.0518  0.0416 -0.2762
24345W        W41193  10.231  15.475  12.594 -0.0792  0.3880 -0.0847
24346W        W41194  13.429  13.640  15.695  0.2842  0.1158 -0.0510
24347W        W41195  14.526  15.168   0.074  0.3265  0.1321 -0.0372
24348W        W41196   0.283   1.540  12.677  0.2827 -0.0333  0.1048
24349W        W41197  17.573   9.579  11.316 -0.1047  0.1341  0.0537
24350W        W41198   2.098  10.619  12.274 -0.1187  0.2787  0.1636
24351W        W41199  10.009   3.798   5.422  0.0467 -0.2105 -0.0161
24352W        W41200   4.007  15.051   0.511 -0.3284 -0.0725 -0.0368
24353W        W41201   0.857   9.159  12.571  0.1864 -0.2757 -0.0984
24354W        W41202  13.014   2.219  15.307 -0.4634 -0.2042 -0.1408
24355W        W41203  11.558  14.126  15.733 -0.0041 -0.1450 -0.0926
24356W        W41204  15.957  17.641  12.081 -0.2696  0.0739  0.1871
24357W        W41205  16.641   3.928  13.557 -0.0831  0.1795 -0.2205
24358W        W41206  17.587   8.669   3.644  0.0149 -0.1888 -0.1075
24359W        W41207  11.523   1.108   3.218 -0.0801  0.0553 -0.3088
24360W        W41208   7.147   2.765  16.584  0.1818  0.1023 -0.1844
24361W        W41209   1.047  13.431  11.611  0.0699 -0.2004  0.1924
24362W        W41210  11.888  11.358   2.863  0.0994  0.3706 -0.0402
24363W        W41211   9.238  12.786   2.290  0.1206  0.1201  0.0030
24364W        W41212   2.871  14.188  16.566  0.1670  0.2607 -0.1814
24365W        W41213   4.596   7.074   0.384  0.2326  0.1871 -0.1404
24366W        W41214  15.389  16.431  14.437  0.1964  0.1095 -0.0991
24367W        W41215   3.135   6.818   2.557 -0.1761  0.1518 -0.3645
24368W        W41216   8.077   5.624  10.327  0.0099 -0.0410  0.1156
24369W        W41217  13.685   6.718  13.127 -0.0217 -0.0841 -0.0344
24370W        W41218  14.275   8.764   3.320  0.0861 -0.0541  0.1389
24371W        W41219  14.692   1.776  12.189  0.1069  0.0999  0.1516
24372W        W41220  11.261  12.932  14.801 -0.1324 -0.0640 -0.1846
24373W        W41221   2.545   4.112   1.559 -0.0306 -0.0668 -0.0068
24374W        W41222   4.826   6.064   2.414 -0.3036 -0.1101 -0.0517
24375W        W41223  10.187  15.531  12.104  0.0384 -0.0676  0.1470
24376W        W41224  14.399  15.926   2.529  0.0992 -0.2092  0.0461
24377W        W41225  11.100   6.324  11.931  0.0796  0.0297 -0.3503
24378W        W41226   2.433   5.793   1.610 -0.2943 -0.3356  0.0629
24379W        W41227   8.437  17.034   5.249  0.0123 -0.3034  0.1689
24380W        W41228  15.305   6.155   6.004  0.3078 -0.0349  0.1171
24381W        W41229  13.909  11.058  11.985  0.0901  0.0501  0.2090
24382W        W41230  13.834  11.166  11.462 -0.1574  0.0381  0.1923
24383W        W41231  16.184   8.223  13.289  0.0168 -0.1878  0.2356
24384W        W41232  17.692   5.257  12.736 -0.1742  0.0929 -0.2248
24385W        W41233   0.635  15.511  11.903 -0.2934 -0.0163  0.6167
24386W        W41234   5.583  10.562   2.316  0.1285 -0.2887  0.3293
24387W        W41235  15.057  10.890   5.082  0.3739 -0.3070 -0.0220
24388W        W41236  15.422  11.287   3.503 -0.1235 -0.1364  0.0023
24389W        W41237  17.210  17.463   0.414 -0.0251 -0.2010  0.2231
24390W        W41238   0.548   2.495  16.133 -0.2712 -0.0648 -0.1427
24391W        W41239  12.463   1.949   4.386 -0.1929 -0.0381 -0.0316
24392W        W41240  15.964   8.557   1.245  0.0677  0.0667  0.2949
24393W        W41241   5.956   7.863   4.264 -0.1128  0.2260  0.2276
24394W        W41242   9.431   5.060   3.551  0.0749 -0.6324 -0.0464
24395W        W41243  14.677  14.874   5.851 -0.0420 -0.0455 -0.1128
24396W        W41244  17.826   2.506  12.407 -0.1431 -0.1747 -0.1697
24397W        W41245   1.971   9.256   4.244 -0.0801 -0.4833  0.3164
24398W        W41246  14.031   5.356  13.371 -0.0838 -0.1509 -0.0523
24399W        W41247  17.855   1.319   0.426 -0.0292 -0.0774 -0.1476
24400W        W41248   1.056  16.302   4.614  0.2207  0.1896 -0.1497
24401W        W41249   7.394   9.349  11.759 -0.1707  0.1565 -0.1834
24402W        W41250   0.374   1.824   1.315  0.0098  0.3660 -0.1769
24403W        W41251  15.989   6.172  12.583  0.1583  0.1573  0.0699
24404W        W41252  13.218  17.778  13.749 -0.2741 -0.1165  0.1252
24405W        W41253   8.064  15.986  14.724 -0.1234  0.1997  0.1576
24406W        W41254   4.733   7.534   2.692  0.0356 -0.0949 -0.1405
24407W        W41255   1.033   0.569   1.833 -0.6153  0.1243 -0.2846
24408W        W41256  15.776  16.116  12.330  0.0278 -0.0696  0.0527
24409W        W41257   4.576   5.325   0.028  0.1664  0.2291 -0.3576
24410W        W41258   2.528  16.038   4.546 -0.1463  0.1937  0.0024
24411W        W41259   5.348  12.110  16.333  0.1229  0.2251 -0.0068
24412W        W41260  17.203   8.547  13.692 -0.3109 -0.2779 -0.2595
24413W        W41261  17.263   5.511  11.259 -0.1573  0.0975 -0.0208
24414W        W41262  14.257  12.817  11.900 -0.2029  0.1322  0.0626
24415W        W41263  12.333   6.866  12.113  0.1376  0.1810  0.2331
24416W        W41264  15.963   5.798   5.304 -0.0650 -0.2429  0.1359
24417W        W41265   3.667  15.901  16.462  0.2067 -0.0395  0.0248
24418W        W41266   8.192  15.295  15.961  0.2404 -0.3517 -0.2536
24419W        W41267   1.863   3.447  15.290 -0.1518  0.1155  0.2980
24420W        W41268  12.248   5.441   0.138 -0.0521 -0.1956  0.1697
24421W        W41269   7.743   5.889   2.746  0.0554  0.1474 -0.0829
24422W        W41270  11.340   2.033  16.230  0.1584  0.2907 -0.1592
24423W        W41271  17.294  11.279   1.323  0.0602 -0.2363 -0.0970
24424W        W41272   5.780  12.985  15.176  0.4118 -0.3022 -0.0243
24425W        W41273   1.416   7.368  12.049 -0.0012 -0.0116 -0.1136
24426W        W41274  15.358  10.595   0.037  0.2009  0.0463  0.3374
24427W        W41275   7.499   4.951   4.354 -0.0511 -0.0078 -0.0181
24428W        W41276  16.928  14.900  13.920 -0.0159  0.1554  0.2426
24429W        W41277   2.197   0.215  15.981  0.0043  0.0613  0.2756
24430W        W41278   5.357  16.488  14.315 -0.2060 -0.0360  0.2412
24431W        W41279  15.952   0.759   0.867  0.0351  0.2851  0.0754
24432W        W41280  17.295  14.777   2.146  0.1101  0.1259  0.0197
24433W        W41281  12.636   5.704   2.069 -0.2560  0.1028 -0.2689
24434W        W41282  11.300  17.254   4.716  0.1697 -0.2153  0.2728
24435W        W41283  15.855   4.688   0.176 -0.3842 -0.0551 -0.0135
24436W        W41284  13.738  10.033  15.129 -0.0239 -0.0395 -0.1108
24437W        W41285  15.953   5.926  15.883 -0.2839 -0.0469 -0.0411
24438W        W41286   3.776  15.011   5.640  0.1853 -0.0650  0.1924
24439W        W41287  12.878   3.651   3.950 -0.0206 -0.1088 -0.0143
24440W        W41288  14.207  14.037   4.815 -0.4282 -0.0148 -0.0905
24441W        W41289  10.193  14.634   1.187  0.1197 -0.0728 -0.0962
24442W        W41290   8.226  17.541  16.138 -0.1133 -0.0451 -0.0184
24443W        W41291   7.930   2.184   0.380  0.3022 -0.1320 -0.3911
24444W        W41292  17.711  15.731  14.685  0.0335 -0.0278 -0.1116
24445W        W41293   3.361  14.666  15.988 -0.0598 -0.1972 -0.0467
24446W        W41294  14.336  11.108  14.362  0.0770  0.0566  0.1606
24447W        W41295  17.728  10.829   0.767  0.1930  0.0512  0.3854
24448W        W41296   3.711  15.124  13.104  0.1447 -0.1020 -0.0427
24449W        W41297  12.393   0.450  13.636  0.2973  0.0648  0.2693
24450W        W41298   8.437  10.617  13.637  0.1264  0.1767  0.0502
24451W        W41299   6.546  13.642   1.008 -0.3275  0.0179 -0.1300
24452W        W41300   3.983  13.977   4.824  0.0627  0.1759  0.3833
24453W        W41301  15.815   8.022   1.158 -0.2234  0.1830  0.0660
24454W        W41302   9.939   8.650  16.060 -0.2426 -0.0163 -0.0177
24455W        W41303   0.615   4.825   3.938  0.0891 -0.3040 -0.0562
24456W        W41304  13.665   2.462   3.898  0.0210  0.1046 -0.2521
24457W        W41305   9.032   9.379  15.779 -0.3582  0.1053  0.4105
24458W        W41306  13.817  17.157   4.593  0.0624 -0.1418 -0.1627
24459W        W41307   9.028  10.220   2.002 -0.0467 -0.0861 -0.1653
24460W        W41308  13.889  11.401  14.376  0.0299 -0.1098  0.0468
24461W        W41309   4.220   7.587   3.327  0.0563 -0.2343 -0.1433
24462W        W41310   6.897  15.406  15.992  0.1451 -0.0399 -0.2846
24463W        W41311  13.020   4.226  13.419 -0.0391  0.2527  0.1083
24464W        W41312  16.669  13.032  12.179  0.1015  0.0824  0.2304
24465W        W41313  12.539   1.176  14.716  0.0905 -0.1487 -0.1003
24466W        W41314   8.681   0.071  15.218 -0.1502  0.0109 -0.1500
24467W        W41315   2.993  12.634  16.107 -0.0259 -0.0187 -0.1004
24468W        W41316   3.015  11.647  12.173 -0.1982 -0.0273  0.2880
24469W        W41317   7.561  12.779   4.620 -0.0022  0.1854  0.1854
24470W        W41318  16.182  10.901  12.297  0.4083 -0.0636 -0.1872
24471W        W41319  11.613   5.679   1.989 -0.2152  0.0437  0.0241
24472W        W41320   0.566  14.914  15.724 -0.1153  0.1681  0.1450
24473W        W41321   1.685   1.768  15.514  0.1963 -0.1257  0.2352
24474W        W41322  15.738  15.166   0.587 -0.1278  0.1528 -0.1088
24475W        W41323   5.510  11.946   1.553  0.1335 -0.1216  0.0670
24476W        W41324   8.504   0.170   3.584  0.3292 -0.0992 -0.1382
24477W        W41325  12.721  14.357   4.867 -0.0783 -0.0148  0.1525
24478W        W41326   7.031   4.769   1.198  0.0451 -0.2959  0.2454
24479W        W41327  16.910  15.373  12.366 -0.1326 -0.0544  0.1886
24480W        W41328   9.673   4.671   2.410 -0.0920  0.1674 -0.0392
24481W        W41329   9.377   0.805  16.216 -0.1782 -0.0935  0.1119
24482W        W41330   9.824   0.308   2.807  0.1909  0.0555 -0.1471
24483W        W41331  15.785   8.085  12.701 -0.2837 -0.2007  0.0314
24484W        W41332   4.790  14.440   1.934 -0.0748 -0.2441  0.0729
24485W        W41333  10.342  13.037  11.488 -0.1414 -0.0565 -0.0300
24486W        W41334   4.852  16.631   3.306 -0.2842 -0.2013  0.1554
24487W        W41335   1.812  17.467   1.340 -0.0771 -0.0433  0.3505
24488W        W41336  14.038   8.524   1.069 -0.0523 -0.2796 -0.0780
24489W        W41337   5.006   2.729   4.912 -0.1430 -0.0089  0.1441
24490W        W41338  14.461  12.121   5.243 -0.2427  0.0938  0.0842
24491W        W41339  16.999   3.514  12.737 -0.0339  0.1882 -0.1533
24492W        W41340  11.497  17.633  13.625 -0.0455  0.0260 -0.1915
24493W        W41341  17.505  16.264  14.930 -0.0135 -0.0996  0.0396
24494W        W41342  16.651   6.204   4.419  0.0862 -0.0641 -0.1920
24495W        W41343   9.392  15.161  12.732 -0.0357 -0.0603  0.1657
24496W        W41344  13.440   5.367   5.174 -0.4529  0.1150 -0.2753
24497W        W41345   7.325   6.259   4.363 -0.2618 -0.4191 -0.1116
24498W        W41346   9.308   8.047   6.141 -0.0880  0.3845  0.0442
24499W        W41347   0.159   0.610  11.143  0.2570 -0.2281 -0.1694
24500W        W41348   5.782   6.817   2.801 -0.1306  0.1407 -0.1019
24501W        W41349   6.842   3.619  12.849  0.3162 -0.0035 -0.0651
24502W        W41350   1.394   1.498  12.948  0.0251  0.0231 -0.2461
24503W        W41351  10.935   0.192  12.211  0.2878  0.0027  0.0228
24504W        W41352   0.095   2.313   1.744 -0.1952 -0.2383  0.0089
24505W        W41353  16.943   2.024  12.469  0.2562  0.1121 -0.2422
24506W        W41354   9.979   1.914  15.149 -0.0618  0.0567  0.2013
24507W        W41355  11.805   7.780  13.937  0.0360  0.0296 -0.1891
24508W        W41356  16.423   0.927   3.315  0.2755 -0.0543 -0.2566
24509W        W41357  17.358  17.208   5.198 -0.2948 -0.4921  0.0391
24510W        W41358   3.198  17.278  12.425  0.4232 -0.0290  0.2266
24511W        W41359   0.951   0.073  15.066 -0.1035 -0.1175  0.3192
24512W        W41360   9.949   7.306  12.522  0.0024 -0.1197 -0.0848
24513W        W41361  10.296  10.437  15.584 -0.0288 -0.1772 -0.0888
24514W        W41362   7.976   5.142   2.254 -0.1500  0.1151 -0.2549
24515W        W41363  14.544  16.387   2.826 -0.0093  0.2288  0.3706
24516W        W41364   7.640  12.294  13.801 -0.0976 -0.1642  0.1754
24517W        W41365   2.092  17.459  13.218  0.2146  0.0936 -0.0713
24518W        W41366   9.531  12.836  16.250  0.0022 -0.3398  0.3702
24519W        W41367   0.936  13.760  14.163 -0.1173  0.0356  0.0814
24520W        W41368   2.884   7.311   2.064  0.1437 -0.0952 -0.0749
24521W        W41369   0.485   5.268   1.012 -0.1487 -0.0469 -0.0109
24522W        W41370   6.000   2.083  15.931  0.1255 -0.0554  0.1913
24523W        W41371   4.857  11.629   0.471  0.1052  0.1741 -0.2024
24524W        W41372   9.203   5.612   3.220  0.0296 -0.0886  0.0015
24525W        W41373  10.961   8.852   2.737 -0.1159  0.1290 -0.1964
24526W        W41374   7.724  11.433   1.152  0.1505  0.1945 -0.1592
24527W        W41375   5.169  13.107   1.923  0.0921 -0.1450  0.1079
24528W        W41376  15.736   9.701  13.761  0.0478 -0.3267 -0.1096
24529W        W41377  15.538  12.285   4.584 -0.1696  0.0147 -0.0520
24530W        W41378  14.387   6.675  13.781  0.0417 -0.0467 -0.1182
24531W        W41379   5.438   6.409  12.410  0.0402 -0.2103  0.0206
24532W        W41380  12.589  12.442  14.864 -0.0036 -0.1795  0.2108
24533W        W41381   8.820   9.645   4.119  0.1481  0.0802 -0.0862
24534W        W41382   7.852  10.923  13.631  0.1264  0.0604  0.1000
24535W        W41383   1.543   0.327   4.094 -0.5078 -0.2558 -0.2299
24536W        W41384   6.544   5.139  11.534  0.2944 -0.1116 -0.0980
24537W        W41385  12.985  16.439  15.879 -0.2304  0.1516 -0.0840
24538W        W41386  12.475  15.018  13.382 -0.2158  0.2069  0.2390
24539W        W41387  13.046   4.697  15.026  0.0658 -0.0450 -0.2072
24540W        W41388   9.162  13.934   3.729  0.0104  0.0725 -0.0832
24541W        W41389   8.495  10.568  16.315  0.0024 -0.0206  0.1789
24542W        W41390   2.919   6.049  12.647 -0.0230 -0.1235 -0.1442
24543W        W41391   5.891  14.701   3.376 -0.0830 -0.0225 -0.0447
24544W        W41392  17.129   8.266  15.407 -0.2728  0.0703 -0.2866
24545W        W41393   1.123  16.897   1.309  0.2225 -0.0262  0.0088
24546W        W41394   7.825  15.284  14.395 -0.1053  0.0270  0.1948
24547W        W41395  10.364   0.758  16.267  0.0074 -0.2526  0.1944
24548W        W41396  12.670   9.228  13.422 -0.1037 -0.2586  0.2627
24549W        W41397  10.375  11.059  11.756 -0.4011  0.0759  0.0524
24550W        W41398   8.798   6.898  16.548 -0.0263 -0.0288 -0.0383
24551W        W41399  12.191   9.259  13.636 -0.0271  0.3024  0.0359
24552W        W41400   8.356   2.809  10.540 -0.3436 -0.3340  0.0528
24553W        W41401  11.485  15.227   0.785  0.1908 -0.1993 -0.1232
24554W        W41402  16.784   5.973   3.076 -0.1255  0.0609  0.0434
24555W        W41403  10.830  15.587  12.665 -0.0990 -0.2831 -0.1314
24556W        W41404   9.432   6.241  14.554  0.1586 -0.0156 -0.1211
24557W        W41405   2.873   9.298  11.958 -0.0394  0.0101 -0.0716
24558W        W41406   7.970  13.054   1.473  0.1551  0.2290 -0.1005
24559W        W41407   7.222   7.787  15.196 -0.0311 -0.1211 -0.4893
24560W        W41408  11.929  14.857   3.964  0.0246 -0.1615 -0.1528
24561W        W41409  15.564   8.946   1.266  0.0965  0.0625  0.4030
24562W        W41410   1.962  15.712  13.151 -0.0745 -0.2125 -0.0860
24563W        W41411  14.685  10.932  12.276  0.0363  0.0200 -0.0470
24564W        W41412  12.768   6.566  11.281  0.0529 -0.0317  0.0268
24565W        W41413  17.076  15.977  13.520  0.4667  0.4730 -0.1367
24566W        W41414  13.003   6.626  11.753 -0.1404  0.0640  0.0642
24567W        W41415  17.709  13.955  13.502  0.0447 -0.1454  0.2471
24568W        W41416   0.098   4.545  11.440 -0.3819  0.0081 -0.0919
24569W        W41417  13.662   4.090   5.510  0.2716  0.0111 -0.0034
24570W        W41418  17.842   4.198  12.987 -0.1118 -0.2357  0.1508
24571W        W41419  14.923   8.803  15.454 -0.0013  0.0761 -0.2351
24572W        W41420   5.108   3.006   4.519 -0.0107 -0.0744 -0.0585
24573W        W41421   8.262  11.374   4.844 -0.1533  0.0017 -0.0531
24574W        W41422  15.242   4.535  14.633  0.2616 -0.0650 -0.0370
24575W        W41423  12.456  12.932  16.326 -0.0846 -0.0982  0.3963
24576W        W41424   4.536   2.196   5.234 -0.0302 -0.1826 -0.0532
24577W        W41425   6.202  12.754  15.459 -0.0690  0.3001 -0.0130
24578W        W41426   0.104  17.332   0.973 -0.0613  0.0280  0.4413
24579W        W41427   8.775  14.471   4.971 -0.4271 -0.4043 -0.0331
24580W        W41428  13.622  15.422   2.123 -0.2584  0.0448 -0.1805
24581W        W41429   1.727  17.350  12.822  0.1338 -0.0401 -0.0746
24582W        W41430  10.177  15.085   1.643 -0.0018  0.1925 -0.1169
24583W        W41431   5.871  14.892   5.949 -0.0721 -0.0123 -0.1963
24584W        W41432   8.939   6.927  14.068 -0.1192 -0.0146  0.1527
24585W        W41433   1.573   4.461   3.805 -0.1105 -0.1599 -0.1819
24586W        W41434  13.075   1.655   3.486 -0.0320 -0.2138  0.0087
24587W        W41435  11.546   6.236  16.414 -0.3116  0.1686 -0.0473
24588W        W41436  15.042   0.026  15.021 -0.0100  0.0240 -0.2226
24589W        W41437   0.496  16.325  13.392 -0.1008  0.0364 -0.1142
24590W        W41438   1.876  11.811  12.303  0.1699 -0.3186 -0.1636
24591W        W41439   7.707  13.552   2.752 -0.0697  0.1473  0.0235
24592W        W41440  14.250   9.787  12.659 -0.0555  0.1713 -0.2561
24593W        W41441  13.372   3.331   1.428  0.1636 -0.0379  0.0652
24594W        W41442   2.620   7.633  15.037 -0.1027 -0.3696 -0.2177
24595W        W41443  14.228   1.931  12.932 -0.2349  0.0081 -0.2502
24596W        W41444  14.921  10.321   1.950 -0.1436  0.1516  0.0847
24597W        W41445  12.770  13.641  13.777  0.0419 -0.2343  0.0592
24598W        W41446   1.000  16.657  11.975  0.1334  0.0679 -0.2503
24599W        W41447  11.647   1.069   1.819 -0.0212  0.0609  0.1212
24600W        W41448  11.100   5.633  13.025 -0.0778 -0.0729 -0.1244
24601W        W41449   6.056  12.823   5.155  0.1213  0.1137  0.1369
24602W        W41450   6.540   7.806  13.846 -0.1269 -0.2335  0.1068
24603W        W41451   2.580  17.207  13.322  0.2442  0.0257  0.0017
24604W        W41452   1.191   1.689  16.340 -0.0658 -0.2915 -0.0874
24605W        W41453   0.672  13.549  13.735 -0.0986 -0.0468 -0.1289
24606W        W41454  14.671  10.778   2.644 -0.4457  0.0613 -0.0650
24607W        W41455   3.817   8.643  15.872  0.1682  0.0508 -0.1622
24608W        W41456   4.067  11.695   1.123 -0.4278 -0.1945 -0.3079
24609W        W41457  14.365  15.674   1.789  0.0584  0.0642 -0.3512
24610W        W41458   1.198  12.410  11.826  0.0184  0.2213 -0.0310
24611W        W41459  15.397   6.637   4.266 -0.1756 -0.1393  0.2262
24612W        W41460   0.636   5.191  10.942 -0.0774  0.0177 -0.0172
24613W        W41461  10.742   7.513   4.500 -0.2363  0.2816  0.2421
24614W        W41462   3.209  15.365   1.161  0.0759  0.0173  0.0138
24615W        W41463   6.144   5.740   4.980 -0.0303 -0.2679  0.1077
24616W        W41464   3.509   4.030  12.534 -0.0196 -0.2120  0.1000
24617W        W41465   7.243   2.905  12.309  0.0180 -0.0893  0.1848
24618W        W41466   4.319  12.960  14.282  0.0738 -0.0344  0.1597
24619W        W41467   7.954   0.766   0.479 -0.0313  0.1208  0.0478
24620W        W41468   1.491  10.313  14.215  0.1437 -0.4389  0.0138
24621W        W41469  14.750   3.184  14.651 -0.2210 -0.2426 -0.0872
24622W        W41470   6.160   7.816   3.138 -0.0554  0.0744 -0.1681
24623W        W41471   9.941   8.303   4.421 -0.0178  0.2572 -0.0526
24624W        W41472   6.955  11.583   3.216  0.2631 -0.3646 -0.0664
24625W        W41473   0.733  13.052  12.976 -0.2307 -0.0555  0.0673
24626W        W41474   2.727   5.671  16.412 -0.0486 -0.0807 -0.1251
24627W        W41475   2.444   8.370  13.752  0.2669 -0.1093 -0.1849
24628W        W41476  10.311   3.678  15.189  0.1207 -0.0912 -0.1361
24629W        W41477   2.553  15.460   2.074 -0.0624  0.0864  0.0824
24630W        W41478  12.895   1.507  14.503 -0.1679 -0.0440  0.2517
24631W        W41479  12.654   6.293   0.757  0.0843  0.2089 -0.1137
24632W        W41480  15.543  11.590  16.078 -0.0395  0.0029  0.2193
24633W        W41481   8.839  13.097   3.222  0.1125  0.1781 -0.2141
24634W        W41482  14.122   6.298  12.442 -0.2889  0.0766  0.0568
24635W        W41483  17.456  13.238  10.175  0.1759  0.0887  0.1342
24636W        W41484  16.479  11.260  13.483 -0.3251 -0.2504  0.3344
24637W        W41485   1.776   5.731   1.043 -0.3644  0.1452  0.0009
24638W        W41486  11.271  17.301  12.982  0.4476  0.2682  0.0016
24639W        W41487  16.686  13.549  13.655 -0.1785 -0.3350  0.1421
24640W        W41488   5.264   9.853  14.396  0.0816 -0.3144  0.1663
24641W        W41489  11.542  11.233  14.932 -0.2347 -0.0444 -0.1095
24642W        W41490   9.620   5.665  15.570 -0.0865 -0.0496  0.1121
24643W        W41491   9.639   9.443  11.736  0.1123  0.0119 -0.3052
24644W        W41492   9.375  16.466   1.690 -0.2786  0.6071 -0.2589
24645W        W41493  14.598   1.106  15.110  0.1132 -0.2252  0.0917
24646W        W41494   7.811  14.066  11.462  0.1211  0.0793 -0.2470
24647W        W41495   5.809   0.379  16.362  0.0182  0.0416 -0.0702
24648W        W41496   7.165   3.267   0.147 -0.0433  0.1476 -0.1763
24649W        W41497   4.932   4.737  14.014  0.2362 -0.0091  0.0526
24650W        W41498  13.412   8.656  11.712 -0.1206  0.0121 -0.5021
24651W        W41499  13.899  10.618   4.969 -0.1371 -0.3962  0.1469
24652W        W41500  16.190   3.752   4.184  0.0395 -0.0801  0.0942
24653W        W41501  11.446   5.291  13.709  0.0168  0.0839 -0.3287
24654W        W41502  16.770   8.998  14.343  0.1637  0.3258  0.1947
24655W        W41503  12.939   7.620  12.136 -0.3073 -0.2414  0.2117
24656W        W41504   0.409  16.399  10.241 -0.1748 -0.0277 -0.5280
24657W        W41505   3.195  16.318  13.476 -0.0417 -0.2538 -0.1128
24658W        W41506   2.630   6.670   1.792  0.2479  0.1516  0.1236
24659W        W41507   2.296  12.472   4.689 -0.0341  0.0362  0.2530
24660W        W41508  14.365   3.849  11.959  0.0602 -0.0678 -0.1594
24661W        W41509   6.032   7.610  13.080 -0.4864  0.0661  0.3194
24662W        W41510  11.267  15.491   0.404 -0.2539 -0.1123 -0.1722
24663W        W41511  16.455  16.147   1.676 -0.1663  0.0317 -0.1004
24664W        W41512   4.939   8.357  15.720 -0.3577 -0.1257 -0.0445
24665W        W41513   1.647   6.354  12.818 -0.0505  0.0829 -0.3486
24666W        W41514   4.573   9.178  13.024  0.0138  0.3273  0.1090
24667W        W41515   0.519  10.540  12.459 -0.2234 -0.1531 -0.4026
24668W        W41516  15.099   2.864  13.406 -0.1626 -0.0810 -0.2688
24669W        W41517  10.076   7.814  12.576  0.1632  0.2382  0.2292
24670W        W41518  11.968   2.560   5.170 -0.3778  0.0713  0.0163
24671W        W41519  14.110   1.987   3.138  0.0928  0.0809  0.2493
24672W        W41520   3.072   0.621   0.529  0.3630  0.1871 -0.0372
24673W        W41521   6.152  15.802   2.301  0.0727 -0.1364 -0.1112
24674W        W41522  14.044   8.382  13.745 -0.0555 -0.1397 -0.0227
24675W        W41523   2.217   7.349  11.762  0.0018 -0.2839  0.0932
24676W        W41524   0.577  10.509  13.978 -0.0103 -0.1212  0.1025
24677W        W41525  10.761   3.631  11.821 -0.2591  0.1011  0.0160
24678W        W41526   6.598  14.464   0.971 -0.0430  0.0443  0.2685
24679W        W41527   5.607   0.743  13.597  0.0099  0.1844  0.2209
24680W        W41528   9.191  15.528   1.869 -0.1772  0.1040  0.1661
24681W        W41529   2.093  11.936   3.186  0.0793 -0.1412  0.0351
24682W        W41530   3.593   7.550  10.693 -0.1279 -0.0450  0.2492
24683W        W41531   3.603  15.679   1.094 -0.2681  0.1397 -0.2081
24684W        W41532   7.593   6.550   0.186 -0.2110  0.0100  0.1314
24685W        W41533  15.496   8.249  10.722 -0.1030 -0.0619 -0.1090
24686W        W41534   1.164  13.733  13.212 -0.1230 -0.2782 -0.0534
24687W        W41535   0.308   9.704   4.092 -0.0254 -0.3439  0.0440
24688W        W41536   4.540  14.795   1.692  0.0857 -0.0348  0.1533
24689W        W41537  13.896   1.318   3.760 -0.1757 -0.0712  0.0272
24690W        W41538   8.731   1.095   3.760  0.0804  0.0596 -0.2306
24691W        W41539   1.699   9.724   2.213 -0.4135 -0.0836  0.0816
24692W        W41540  12.730  15.068   3.174  0.1366 -0.1745 -0.1606
24693W        W41541  10.184   7.149   0.442  0.0467  0.0604  0.1127
24694W        W41542   9.769   2.963  12.352 -0.0945 -0.2115  0.3068
24695W        W41543   0.738  15.598  14.442 -0.3173  0.1271 -0.2655
24696W        W41544  15.066   7.362  13.777 -0.1548  0.4433  0.0756
24697W        W41545   9.225  13.396   1.723 -0.1904  0.0267 -0.1343
24698W        W41546  16.043  17.031   3.066 -0.2258  0.1898 -0.0612
24699W        W41547  16.396   1.652  14.545 -0.5330  0.2563 -0.0180
24700W        W41548  16.648  15.321   4.867  0.1737  0.1528 -0.2761
24701W        W41549   3.745   5.026   2.842 -0.2099 -0.0612 -0.0434
24702W        W41550  11.256  16.662   2.257 -0.0994 -0.1713  0.1739
24703W        W41551  10.670  12.659  14.492 -0.5546 -0.0475 -0.3011
24704W        W41552   3.651   5.891  11.467 -0.0755  0.0303  0.1135
24705W        W41553  12.208   3.636   0.233 -0.1554  0.3080  0.0874
24706W        W41554   2.500   8.119  14.905 -0.1024 -0.1577 -0.1937
24707W        W41555   8.371   2.573   0.439 -0.0263  0.0173  0.1101
24708W        W41556   3.619  14.660   0.254 -0.2299 -0.1721 -0.1233
24709W        W41557  11.214   7.164  13.484 -0.2081  0.4214  0.0094
24710W        W41558  16.292   3.530  11.789 -0.1576  0.0365  0.0251
24711W        W41559   9.926  13.145  11.756 -0.0761  0.1027  0.1055
24712W        W41560  17.128  16.552   0.541 -0.0567 -0.0327  0.2583
24713W        W41561  15.684   7.799   2.402 -0.2382  0.0691 -0.2600
24714W        W41562  10.448   1.414   2.293 -0.1180  0.2057 -0.1152
24715W        W41563   1.035  10.061   4.959  0.0767  0.0790 -0.1641
24716W        W41564   8.457  17.023  16.021  0.2469  0.0558 -0.0458
24717W        W41565  12.929   0.594   5.215 -0.0932  0.1064 -0.1297
24718W        W41566   2.874  17.838   5.402 -0.0142 -0.0034 -0.2503
24719W        W41567   3.000  13.566   1.120 -0.0426  0.1766  0.2696
24720W        W41568  10.306  17.350  12.648  0.0705 -0.1362 -0.1627
24721W        W41569  10.359  11.930   2.126  0.2695  0.3055  0.0847
24722W        W41570   0.965   3.961  16.581 -0.0925 -0.0854 -0.2116
24723W        W41571  14.150   9.199   2.696  0.2393 -0.4218 -0.0291
24724W        W41572  13.822   2.668  16.575 -0.0141  0.1437  0.0454
24725W        W41573   4.609   1.213  15.270  0.4049  0.0312 -0.0024
24726W        W41574  16.983  17.739   2.968  0.1104 -0.0760 -0.1772
24727W        W41575   0.552   1.804   3.692  0.0765  0.0554 -0.0831
24728W        W41576  10.888   1.224   2.397  0.1709 -0.0148  0.2808
24729W        W41577  11.326   6.195  15.480 -0.1179  0.0225  0.1451
24730W        W41578  10.604   3.867  16.543 -0.3144 -0.1608  0.2326
24731W        W41579   7.373   2.166   4.412 -0.0567 -0.0013 -0.1417
24732W        W41580   6.062  13.441   1.706 -0.0079 -0.2328 -0.0078
24733W        W41581  12.179  11.884  13.031 -0.2245  0.2026 -0.1634
24734W        W41582   4.918  14.970   6.239  0.2355 -0.0302 -0.1361
24735W        W41583  15.756  10.989  11.544  0.2336 -0.0950  0.2282
24736W        W41584   5.648  10.530   0.361  0.3668  0.0891 -0.0628
24737W        W41585   2.298   9.100   4.738  0.0957  0.1409  0.2441
24738W        W41586   5.042  11.262  10.595 -0.2454  0.1224  0.2485
24739W        W41587   7.731  10.036  12.443 -0.2341 -0.0027  0.3880
24740W        W41588   0.649  16.385  12.272 -0.0246  0.0979 -0.0399
24741W        W41589   9.558   4.247  13.621 -0.1937 -0.2663  0.0239
24742W        W41590   1.413  12.262   2.483  0.0318 -0.0296  0.1435
24743W        W41591  13.402  11.444   2.836  0.0479 -0.0041 -0.1275
24744W        W41592  13.931   8.484   3.707 -0.3328  0.1817  0.0763
24745W        W41593  16.770   3.877   2.173 -0.0625  0.0063  0.0915
24746W        W41594  10.772  13.962   5.863 -0.3944 -0.2252 -0.1251
24747W        W41595  11.273  16.285   4.734 -0.0135 -0.1993  0.0047
24748W        W41596   2.515  16.788  16.360  0.1410  0.1433  0.1460
24749W        W41597  10.878  16.707  11.330 -0.1723  0.0016  0.0284
24750W        W41598  11.434   8.476   1.910  0.2322 -0.2363  0.1470
24751W        W41599  17.077  10.315   4.462 -0.0937  0.3049 -0.3622
24752W        W41600   4.281   1.307   2.612  0.0220  0.3108 -0.1208
24753W        W41601   1.171  11.770   5.140 -0.0235  0.2402  0.4721
24754W        W41602   5.566   4.711   4.348  0.1759  0.3340 -0.1071
24755W        W41603  17.548  13.754  15.736 -0.1799 -0.1213 -0.1743
24756W        W41604  10.115   7.995   2.351 -0.1057  0.0023  0.0937
24757W        W41605  13.693   1.310  13.801  0.0155 -0.1156 -0.0872
24758W        W41606   3.189   2.067  11.396  0.0605  0.0937  0.3819
24759W        W41607   7.152  13.488  14.359 -0.2528  0.0873 -0.1993
24760W        W41608   8.098   0.107   4.550 -0.1090  0.0106 -0.0233
24761W        W41609  10.228  12.398   1.040  0.1985 -0.0174 -0.3383
24762W        W41610   3.063  12.226   3.625 -0.2589  0.1505  0.2152
24763W        W41611  15.120  15.594  12.634 -0.0049 -0.1657  0.0797
24764W        W41612  13.027   8.539  12.062 -0.3221  0.0271 -0.1415
24765W        W41613   8.660  13.464   0.333  0.1303 -0.1009  0.2426
24766W        W41614   6.558   5.244   4.151  0.5187  0.1519  0.1358
24767W        W41615   7.522   0.155   4.783 -0.1318  0.1241 -0.0701
24768W        W41616   3.629  17.488   1.497  0.0955  0.0524 -0.1668
24769W        W41617   4.308   6.237  13.867  0.0052  0.1133  0.0192
24770W        W41618   8.164   9.154   3.707 -0.1801  0.1724 -0.0708
24771W        W41619   0.941  15.442  16.335  0.1454  0.0060  0.2055
24772W        W41620   5.370  13.952  12.635  0.0483  0.0513  0.1190
24773W        W41621   9.176   8.276  12.452  0.0057 -0.0982  0.0415
24774W        W41622  17.464   8.291   0.346  0.0577  0.0215  0.0370
24775W        W41623   2.574  14.883   2.065 -0.1888  0.1322  0.0073
24776W        W41624   7.700   1.532  14.749 -0.1107 -0.0115 -0.1654
24777W        W41625   6.258   2.344   0.114 -0.1266  0.0945 -0.3894
24778W        W41626  11.647   0.279  16.398  0.3265 -0.1942 -0.3177
24779W        W41627   9.434  13.305   0.604  0.3447  0.3796  0.2110
24780W        W41628   2.005   8.221   5.112 -0.0054  0.0749 -0.2419
24781W        W41629   7.239  10.468   1.498  0.0454  0.1678  0.0726
24782W        W41630  12.310   8.758  12.542 -0.3765 -0.2822 -0.0929
24783W        W41631  16.207  15.208   1.921 -0.0041 -0.0858  0.2543
24784W        W41632  17.708  10.229   2.532 -0.3641  0.0525  0.1169
24785W        W41633   1.604   4.501  14.919  0.0717 -0.5706  0.2024
24786W        W41634   9.288   0.889  14.758 -0.0179 -0.3245 -0.1730
24787W        W41635  15.328  13.635  13.188 -0.0104 -0.1393 -0.2415
24788W        W41636  14.578   5.240   1.171  0.1283 -0.0790  0.0399
24789W        W41637  17.231  16.469  11.917  0.0709 -0.1361  0.0106
24790W        W41638  15.559   0.438   6.277 -0.1859  0.1072 -0.3594
24791W        W41639   7.127  11.143   3.013 -0.0651 -0.0441 -0.1479
24792W        W41640   2.459  13.706   1.421 -0.1454  0.1448  0.1184
24793W        W41641  16.524   6.523   4.833 -0.2367  0.1928 -0.1971
24794W        W41642   9.637  12.330   4.153  0.1836  0.3682  0.0432
24795W        W41643   6.547  12.069  15.756  0.1276  0.0748  0.1925
24796W        W41644  10.181  10.458   1.110 -0.2085 -0.0453 -0.4852
24797W        W41645   2.197   9.777   2.249 -0.0238  0.1648 -0.0388
24798W        W41646  10.819  16.702   4.009 -0.1489 -0.4881  0.1141
24799W        W41647   3.897   4.259  15.908  0.5388  0.3723 -0.1137
24800W        W41648  12.504  10.081   4.891 -0.1041  0.1823 -0.0160
24801W        W41649  13.941  11.310   4.230 -0.0337 -0.3204  0.4349
24802W        W41650   8.216   9.007   2.003 -0.0186  0.1547 -0.2143
24803W        W41651   1.346  15.151  14.829 -0.4867  0.1778  0.2529
24804W        W41652  13.469  16.051   2.827 -0.1528 -0.2914  0.2073
24805W        W41653   7.197   6.598   4.863 -0.5180 -0.0975  0.1309
24806W        W41654  10.921  13.080   0.858 -0.0180 -0.1888 -0.1514
24807W        W41655  11.704  12.672  14.294 -0.2063  0.1616 -0.1269
24808W        W41656   0.249   2.585  11.789 -0.0042 -0.0866  0.2621
24809W        W41657  15.306   0.931   3.890  0.1638  0.0774  0.1323
24810W        W41658  12.330  14.327  12.725 -0.1708  0.1046  0.1656
24811W        W41659   2.911  14.800  14.385  0.0823 -0.1421 -0.1553
24812W        W41660   5.866  13.147   0.837 -0.0819 -0.1438 -0.2128
24813W        W41661   1.127   9.038  13.009  0.0412 -0.2975  0.0287
24814W        W41662  15.185   7.677  14.587 -0.2144 -0.3380 -0.0738
24815W        W41663  12.580   8.956  13.915 -0.1254  0.0780  0.1177
24816W        W41664   8.206   6.013   2.707  0.0239 -0.2399 -0.1012
24817W        W41665   7.057   2.152  14.554  0.3226 -0.5120  0.4091
24818W        W41666   7.643   7.284   5.589  0.0009 -0.1071  0.1338
24819W        W41667  15.193   4.804   0.722 -0.1220  0.0515  0.3410
24820W        W41668   2.213   8.474   0.353  0.2491 -0.2348 -0.2157
24821W        W41669   4.191   4.478   1.516  0.1947  0.0946  0.1250
24822W        W41670   5.764   1.641  13.969  0.0007  0.0371 -0.4912
24823W        W41671   6.850  12.178  11.386  0.1711 -0.1942 -0.0450
24824W        W41672   1.069   2.580  16.184 -0.3062  0.1418  0.1083
24825W        W41673  13.968  16.949  15.982  0.1645 -0.1573  0.0159
24826W        W41674   1.015   1.164  16.525 -0.0676 -0.3451 -0.1544
24827W        W41675   1.932  12.582  12.462  0.2230 -0.2338  0.0161
24828W        W41676   0.225  14.677   4.939 -0.3605  0.2202  0.2698
24829W        W41677   7.840   6.923   4.179 -0.0030 -0.0127 -0.0516
24830W        W41678   9.192  12.479  16.110  0.0263 -0.0050 -0.1676
24831W        W41679   5.065  17.169  15.070 -0.1594  0.1303  0.2885
24832W        W41680   6.069  13.794  16.299 -0.0880  0.0403  0.3623
24833W        W41681   3.536   4.913   0.909  0.1512  0.0867 -0.1483
24834W        W41682   9.567  17.413   3.187 -0.0079 -0.0041  0.0518
24835W        W41683   1.393   9.149   4.317  0.0150 -0.2681 -0.1828
24836W        W41684  14.025  16.009  12.931 -0.2018  0.0843  0.2670
24837W        W41685  16.824   7.174  16.576 -0.0393 -0.0280  0.0449
24838W        W41686  15.754   6.835  13.202  0.0593 -0.2589  0.2877
24839W        W41687   7.162   9.621   2.421 -0.0514  0.0981 -0.2279
24840W        W41688  10.966  16.208  15.528 -0.0995 -0.0067 -0.3420
24841W        W41689   3.634  14.326   4.062 -0.2065  0.0201  0.2640
24842W        W41690   6.597  16.064  15.818 -0.0137  0.1822  0.1503
24843W        W41691   6.432   1.452   2.165 -0.2304  0.0518 -0.0870
24844W        W41692   6.680   1.417  15.545 -0.1479 -0.2132  0.0276
24845W        W41693   2.369   3.468  16.589  0.1479 -0.1388  0.0990
24846W        W41694  11.395   8.181  14.074 -0.1599 -0.0813 -0.0296
24847W        W41695   4.745  16.772  15.802  0.0915  0.1983 -0.0279
24848W        W41696   0.301  14.225   5.582  0.0015  0.0794  0.2950
24849W        W41697   9.894  16.082  11.688  0.3121 -0.0750 -0.0895
24850W        W41698   4.510  16.941   3.542  0.2949 -0.0943  0.0756
24851W        W41699  11.108   5.929   0.020 -0.1100 -0.3559  0.2264
24852W        W41700   1.739   0.061   4.576 -0.2206 -0.0432 -0.0034
24853W        W41701   1.819   7.524  14.665  0.1039 -0.0794 -0.0147
24854W        W41702  12.182   9.259  16.614  0.1881  0.0255  0.1536
24855W        W41703  10.360   4.352  13.131  0.1042  0.1295 -0.3929
24856W        W41704   7.697  14.861  14.819 -0.0164 -0.3560  0.0996
24857W        W41705  10.787   7.813  15.705 -0.2742 -0.3337  0.0755
24858W        W41706  12.389  10.195  15.266 -0.0777  0.0425 -0.4298
24859W        W41707   7.441  16.210   5.078 -0.0560 -0.0140 -0.2134
24860W        W41708   9.598  10.970  14.450  0.1439  0.1261  0.3602
24861W        W41709  10.886   5.351   0.808 -0.1154 -0.0629  0.0875
24862W        W41710   3.017   3.835   1.667 -0.0498 -0.1107  0.1352
24863W        W41711  17.518   1.013   3.828  0.2298  0.3411 -0.1930
24864W        W41712  15.727  10.317  13.308 -0.3493  0.0440  0.3632
24865W        W41713   1.598   3.952   5.030  0.0135 -0.2747  0.2241
24866W        W41714   4.829   7.956   1.735 -0.0361  0.0758 -0.1484
24867W        W41715   8.421   7.451  12.003  0.0388  0.2336 -0.0140
24868W        W41716   0.757  11.298   3.228  0.0149 -0.1479 -0.1312
24869W        W41717   2.265   9.640   3.166 -0.1849 -0.1185 -0.0724
24870W        W41718  15.263  15.807  15.113 -0.0660  0.2034  0.0957
24871W        W41719  13.486   6.802  13.731  0.3486  0.0074  0.1732
24872W        W41720   2.521   8.025   3.233 -0.0761  0.0167 -0.2481
24873W        W41721   8.500  13.041   4.225  0.1179 -0.0584 -0.1656
24874W        W41722  13.365   6.004   2.398  0.2009  0.1112  0.2297
24875W        W41723   9.937  13.274   3.714  0.2036 -0.2143 -0.0527
24876W        W41724   2.556   0.552   0.747 -0.1944 -0.3204 -0.0142
24877W        W41725   4.217  15.645   0.320 -0.1430  0.1637  0.2533
24878W        W41726  11.241   4.994   0.932  0.0061  0.0387 -0.1994
24879W        W41727   7.004   9.277   5.667 -0.0904 -0.1899  0.1411
24880W        W41728   4.006   0.550   2.827 -0.1226 -0.1572  0.0008
24881W        W41729   4.486  13.091   3.429 -0.0535 -0.0510 -0.2040
24882W        W41730  14.936  11.176  14.638 -0.0193 -0.1713  0.1383
24883W        W41731   1.107   7.745   3.271  0.0088  0.0712  0.4572
24884W        W41732  15.630   8.266   2.148 -0.3682  0.0346 -0.0256
24885W        W41733   0.775   1.983  15.537  0.0490 -0.1879 -0.1514
24886W        W41734   3.522  14.662   3.308 -0.0313  0.1134  0.1005
24887W        W41735   0.700   6.329   3.056  0.2469  0.0618 -0.0215
24888W        W41736   4.836  16.287   4.239 -0.2137  0.1271  0.2257
24889W        W41737   2.016   0.084   5.165 -0.1959 -0.2826  0.1493
24890W        W41738  17.585   0.828  12.055 -0.1880 -0.0494  0.1391
24891W        W41739   4.430   6.659   2.831 -0.0022  0.2238  0.1499
24892W        W41740  11.296   6.698  16.323  0.3957  0.0098 -0.0252
24893W        W41741  17.254  10.354  16.314 -0.1150  0.0924  0.0881
24894W        W41742   9.419  12.577  13.701  0.2435 -0.0757 -0.2269
24895W        W41743   2.811   2.273  11.574  0.2435 -0.0323  0.2386
24896W        W41744  17.313   8.188   3.683  0.0722 -0.1708  0.2425
24897W        W41745   9.108   5.764  15.656 -0.0653 -0.4643 -0.0225
24898W        W41746   2.368  14.543   4.223 -0.5402 -0.1473  0.0137
24899W        W41747  15.507   9.800   5.904  0.3066  0.0437  0.0817
24900W        W41748  12.173   6.647   4.698  0.1226 -0.0291  0.2255
24901W        W41749   4.155   2.825   4.252  0.1819  0.0923  0.0605
24902W        W41750   4.518   4.587  10.896  0.1388  0.0641  0.1121
24903W        W41751  11.862   7.196   0.377  0.1304  0.0714 -0.2922
24904W        W41752   9.644  17.077  15.040  0.0394  0.0047  0.1175
24905W        W41753   6.388   0.660   4.501  0.2121 -0.0974 -0.1218
24906W        W41754  17.356   6.602  10.922  0.4335 -0.2820 -0.1232
24907W        W41755  12.222   6.028   2.125  0.2176  0.0677 -0.1948
24908W        W41756  11.380   4.141  13.393 -0.0984  0.0481 -0.2447
24909W        W41757  10.473   4.010  13.533  0.0754  0.1300  0.1093
24910W        W41758  12.764   2.203  14.431  0.0478  0.3356  0.3728
24911W        W41759   0.904  16.496  16.498 -0.1947  0.0485 -0.0241
24912W        W41760  11.324   3.114  14.602 -0.0322 -0.1203 -0.0547
24913W        W41761   1.052  17.838   0.981  0.1525 -0.0424 -0.2268
24914W        W41762   7.213  15.852   4.884  0.0681  0.4489 -0.0878
24915W        W41763   5.152   5.014   2.645  0.0941 -0.1706  0.0126
24916W        W41764   5.846   5.040  13.550  0.2712  0.3721 -0.0255
24917W        W41765  13.085  12.123   2.288  0.0378  0.3217 -0.1552
24918W        W41766  12.978   4.343   3.071 -0.3524  0.0559  0.0160
24919W        W41767   4.153   7.184  16.239 -0.1113 -0.0209  0.1399
24920W        W41768   6.364  17.671  14.503 -0.2034  0.2085  0.1897
24921W        W41769   5.849  13.369   2.649 -0.0185 -0.0156 -0.0774
24922W        W41770   7.993   8.131   5.894 -0.1987 -0.2361  0.2862
24923W        W41771   4.047  16.554   0.886  0.0798 -0.0182 -0.2183
24924W        W41772   2.043   7.141  13.283 -0.0164 -0.0931 -0.0805
24925W        W41773   5.366   8.903   2.848  0.0146  0.2076  0.0011
24926W        W41774  13.363   0.754   3.474  0.0776  0.2712 -0.1283
24927W        W41775  13.939   8.818  16.121  0.0519 -0.1132  0.4571
24928W        W41776   0.129  15.132  13.109  0.0993  0.0663 -0.1362
24929W        W41777   5.369   6.449   2.509 -0.0243  0.0036 -0.3693
24930W        W41778   6.285  11.491   4.179  0.2248  0.0552  0.1418
24931W        W41779  15.050  13.393  12.706 -0.0884  0.0505  0.0271
24932W        W41780   3.094  14.501   2.136 -0.0222 -0.2149 -0.0810
24933W        W41781   1.413  17.053   1.956 -0.2791  0.1769  0.1042
24934W        W41782   5.152   0.075  14.749  0.0013  0.1601 -0.1073
24935W        W41783   3.854  10.539  11.813 -0.1605 -0.0061 -0.0763
24936W        W41784   5.599   1.398   2.213  0.1817  0.2287  0.0516
24937W        W41785  15.430   9.649  16.127  0.0261 -0.0771 -0.1168
24938W        W41786  12.745  13.878  15.072 -0.0752 -0.1104 -0.2159
24939W        W41787  13.240  13.635  15.219 -0.2945  0.3440 -0.0708
24940W        W41788   9.980   1.623  13.969 -0.3187 -0.2457 -0.0244
24941W        W41789  14.300   3.714   1.206 -0.0103  0.0494  0.1926
24942W        W41790  15.216   6.083   2.152  0.1168  0.0813  0.1949
24943W        W41791  13.466  17.498  16.261 -0.1833 -0.2678 -0.0547
24944W        W41792   8.314  10.421  10.540  0.0803 -0.2167 -0.0936
24945W        W41793  14.540   3.667  12.911  0.3187 -0.1893 -0.2931
24946W        W41794  10.205  14.942   3.238 -0.0551 -0.0019 -0.1039
24947W        W41795  10.258  11.317   4.417  0.0144  0.1024  0.2485
24948W        W41796   7.013   7.596   0.427 -0.0795 -0.1838 -0.0498
24949W        W41797   1.035   0.927  13.431  0.1349  0.0301  0.0416
24950W        W41798   9.101   5.428   1.349  0.3737  0.0973 -0.1678
24951W        W41799   8.411   3.087  14.534 -0.0019  0.2222 -0.0210
24952W        W41800   1.916  11.988  14.748 -0.1580  0.0730 -0.0344
24953W        W41801  14.689  14.594  11.908 -0.1260  0.0474  0.0906
24954W        W41802  17.539   8.564   2.430  0.4102  0.2616  0.1416
24955W        W41803  15.171  16.240  15.899  0.2013  0.0555 -0.1975
24956W        W41804   9.661  15.293   1.738  0.1230  0.3096 -0.1914
24957W        W41805   3.440   4.618   3.517  0.1059  0.0577 -0.0621
24958W        W41806  16.036   6.615  12.758  0.3041  0.1158  0.0873
24959W        W41807   9.889  10.838  15.734 -0.1500 -0.2298  0.3072
24960W        W41808   4.475  15.341   3.368 -0.3721 -0.0461  0.2936
24961W        W41809  13.697  14.172  13.675  0.1631  0.0829  0.0158
24962W        W41810   5.926  17.770   1.528  0.2292 -0.4342 -0.0050
24963W        W41811  12.231   5.168  15.872  0.3049  0.0440 -0.0773
24964W        W41812   0.491   6.773   2.828 -0.0276 -0.2542 -0.2528
24965W        W41813   2.603  10.813  15.491  0.0095  0.0683  0.1130
24966W        W41814   9.677   1.818  16.475 -0.0622 -0.0168  0.0273
24967W        W41815   7.227   7.499  12.390  0.2092 -0.1275  0.0684
24968W        W41816   0.016  13.217   1.046 -0.0599  0.2590  0.0938
24969W        W41817  13.000   2.879  16.085 -0.1903 -0.3627 -0.0960
24970W        W41818  12.878  16.280  14.434  0.1127 -0.0145 -0.4406
24971W        W41819  13.242  13.652   2.868 -0.3290  0.3529  0.1752
24972W        W41820   3.250   0.835  13.820  0.0509 -0.0102  0.0782
24973W        W41821   4.636   6.333  16.346  0.2298 -0.2982  0.0898
24974W        W41822  15.635   2.560   5.781 -0.1532  0.0711  0.1026
24975W        W41823   4.348   3.511  14.540  0.2476 -0.0753  0.1435
24976W        W41824  11.859   5.390  10.402  0.1211 -0.3659 -0.0187
24977W        W41825   6.052  15.898  15.900 -0.0845  0.2046  0.2596
24978W        W41826   4.684   8.623  12.913  0.1644  0.0877 -0.0790
24979W        W41827  10.823   3.401   3.345  0.0072 -0.0768  0.0578
24980W        W41828  14.295   3.646   3.419 -0.1423 -0.1312  0.0544
24981W        W41829  13.881  14.462  14.514 -0.3201  0.0090  0.3521
24982W        W41830   9.318   0.511   2.817  0.1031  0.2866  0.0568
24983W        W41831  14.762  11.983  14.804  0.1683  0.0080 -0.1653
24984W        W41832   9.376  10.102   4.791  0.0077 -0.2270 -0.2118
24985W        W41833  15.520   6.480   1.051 -0.1243  0.0001 -0.1739
24986W        W41834   5.167   9.009  13.056  0.0510 -0.0395  0.0431
24987W        W41835   4.198   1.369  15.786  0.0629  0.0776 -0.2171
24988W        W41836   8.600  12.337   2.666 -0.2261  0.0454 -0.1116
24989W        W41837  13.106   1.898  14.165 -0.0969 -0.0393 -0.1007
24990W        W41838  15.702  14.848  12.696 -0.2844  0.1736 -0.0155
24991W        W41839  10.983  14.468  11.387  0.1122  0.0394  0.0555
24992W        W41840  15.047  17.382  15.179 -0.0901  0.1110  0.0749
24993W        W41841  13.484  15.166  15.705 -0.2097  0.0723  0.1972
24994W        W41842  13.347  13.378  11.521  0.2440 -0.1754  0.0203
24995W        W41843  11.764  11.938  12.752  0.2488  0.0334  0.2890
24996W        W41844   7.410   6.650  12.936  0.2931 -0.3007 -0.2876
24997W        W41845   5.352  14.115  15.036  0.0499 -0.3288 -0.3573
24998W        W41846   5.950   4.446   5.309 -0.0819  0.1065 -0.1576
24999W        W41847   6.486  15.060   4.956  0.0958  0.0230 -0.0493
25000W        W41848   8.738   1.598   5.503 -0.0906 -0.2084  0.2777
25001W        W41849  13.048  11.539  16.231 -0.0667 -0.0811  0.0890
25002W        W41850  11.932  11.246   2.400 -0.1179 -0.1676 -0.1308
25003W        W41851  12.541   5.056  12.246  0.2643  0.0375 -0.2333
25004W        W41852   4.823  13.958  13.706 -0.1603 -0.3244  0.1477
25005W        W41853   2.830  15.590   2.854  0.0015 -0.1593  0.1045
25006W        W41854   6.912  11.666  11.197 -0.3627  0.1713 -0.1243
25007W        W41855   1.472   8.462  16.223  0.0767 -0.0258 -0.1470
25008W        W41856  13.655  14.068   1.203  0.0335 -0.2830  0.3464
25009W        W41857  17.481  13.828   6.005 -0.1591 -0.1012  0.2066
25010W        W41858   7.580  12.471  12.656 -0.1941  0.1175 -0.2382
25011W        W41859  13.506   1.090   0.651 -0.0795  0.1927  0.2148
25012W        W41860   5.335  10.710   5.117 -0.0672  0.2056  0.3083
25013W        W41861   6.760   3.763  15.985  0.0427 -0.1496  0.0783
25014W        W41862  14.299  12.991   0.605  0.1113 -0.0621  0.1512
25015W        W41863  17.026   9.027   2.746  0.2398 -0.0485  0.1555
25016W        W41864  14.793  15.397   0.432 -0.2868  0.0961  0.1189
25017W        W41865  11.557  15.128  15.593 -0.1454 -0.0385 -0.3195
25018W        W41866  16.650  14.155  15.592  0.1642 -0.1376 -0.2782
25019W        W41867  10.759  17.515   1.427  0.0800  0.2741 -0.0837
25020W        W41868   8.631  16.284   4.870 -0.0238 -0.1226 -0.4170
25021W        W41869   2.087   0.197   3.867 -0.3284 -0.0557  0.0915
25022W        W41870   1.601  13.374   3.927  0.3063  0.2924 -0.0134
25023W        W41871   2.257   2.194  13.360  0.0278  0.1934 -0.0028
25024W        W41872   6.780   8.373   3.125 -0.0779 -0.0964 -0.0952
25025W        W41873  11.836  14.295  14.341 -0.2920  0.2425  0.0622
25026W        W41874   8.252   0.725   4.586  0.0690 -0.0602 -0.0465
25027W        W41875  17.406  11.405   2.512  0.0885  0.2272  0.0326
25028W        W41876   5.328   7.412   1.866 -0.1736  0.2530 -0.0249
25029W        W41877   1.643   8.855  13.494 -0.0063  0.2561  0.0062
25030W        W41878  11.528   3.630  15.721 -0.0678  0.4482  0.0074
25031W        W41879   3.135   9.476   0.515 -0.2500 -0.0948  0.2846
25032W        W41880  17.515  17.120   3.374 -0.0985  0.0882  0.0705
25033W        W41881  14.678  17.361   4.974 -0.3462 -0.2727  0.1066
25034W        W41882  16.311  15.541  11.771  0.2724  0.0145 -0.1619
25035W        W41883  13.379   7.324  16.153 -0.1745  0.2816 -0.2336
25036W        W41884   4.245   0.604   0.855  0.0484 -0.2155 -0.3069
25037W        W41885   3.844   9.288  13.102 -0.3309  0.1627 -0.0347
25038W        W41886   3.717   7.605   3.454  0.1373  0.4075  0.0848
25039W        W41887  16.288   8.049  12.599  0.0235 -0.0503  0.0271
25040W        W41888   2.875  11.445  13.052  0.0673 -0.1063  0.1676
25041W        W41889   9.280   2.687  11.698  0.3445  0.1514 -0.0734
25042W        W41890  14.602   2.872   5.175  0.1805  0.0179  0.0742
25043W        W41891   0.654   4.257  11.635 -0.4390 -0.0684 -0.0152
25044W        W41892  14.291   0.044  12.228 -0.0048 -0.3238  0.1531
25045W        W41893   2.487  16.975  10.836 -0.1160 -0.0166 -0.2353
25046W        W41894  13.979   7.586   3.114  0.0168 -0.0536 -0.1558
25047W        W41895  16.623   5.434   1.840  0.0105  0.1615  0.1768
25048W        W41896   6.109  11.771   4.656  0.0139 -0.0920  0.4114
25049W        W41897  10.255  13.407   6.282 -0.1135 -0.2338 -0.1019
25050W        W41898   4.935   0.235   2.429  0.4682  0.1610  0.0590
25051W        W41899  11.135   7.958   5.225 -0.0947  0.0199  0.1511
25052W        W41900  14.317  17.759   1.597  0.2310 -0.0059  0.0008
25053W        W41901   2.747  13.946   5.378 -0.4494 -0.1383 -0.0488
25054W        W41902  17.510   8.461  14.171  0.0016  0.2356  0.1637
25055W        W41903  11.657   3.146  12.299  0.0410 -0.1704  0.1547
25056W        W41904  11.190   0.888   2.075 -0.1366  0.0449 -0.0498
25057W        W41905   6.861   5.477  16.385  0.0580 -0.0453  0.1269
25058W        W41906   0.916  15.620  13.502 -0.0956 -0.0967 -0.3040
25059W        W41907   0.404   8.346   3.838  0.0375  0.0105 -0.0513
25060W        W41908   7.612   3.045  13.757  0.0831 -0.0385  0.0724
25061W        W41909  14.728   7.029  14.010 -0.0934  0.2736  0.2739
25062W        W41910  15.083  15.407  13.540 -0.1424  0.1105 -0.0712
25063W        W41911  17.679   7.812   1.155 -0.1758 -0.1935  0.0986
25064W        W41912   8.525  17.314  12.138  0.0418  0.0681  0.0098
25065W        W41913  11.409   5.061  14.239  0.1893  0.1587 -0.2366
25066W        W41914   0.480   5.665   4.458 -0.0813  0.0781 -0.1677
25067W        W41915  14.459  17.617  14.398 -0.1288  0.3076 -0.0640
25068W        W41916  11.134   0.047   4.673  0.1304  0.1573 -0.0664
25069W        W41917   0.424   2.435  14.234  0.2872  0.0593 -0.1812
25070W        W41918  12.693  12.714   4.430  0.3320 -0.0515 -0.0405
25071W        W41919   2.460  15.470  12.095  0.3235  0.2143  0.1054
25072W        W41920   1.787   7.052   3.949 -0.1004  0.0859  0.1647
25073W        W41921  14.372   0.662   5.182 -0.1050  0.1594  0.4014
25074W        W41922  17.269  14.086  14.999 -0.1177 -0.0473  0.1620
25075W        W41923  12.376  13.502  14.206 -0.1287  0.0885 -0.0417
25076W        W41924   6.459  17.053  14.851  0.0318 -0.3100  0.3333
25077W        W41925  16.588   5.317  13.668  0.1331  0.3285 -0.1518
25078W        W41926   1.433   6.697   0.985 -0.0923 -0.0145 -0.1472
25079W        W41927  10.063   5.515  11.817 -0.0816 -0.0175  0.1472
25080W        W41928   3.184  14.136  16.108 -0.1826  0.2277 -0.1462
25081W        W41929  12.773   9.751   0.804 -0.1460  0.0378 -0.0282
25082W        W41930   3.595   1.973  12.834  0.0119  0.0575 -0.0451
25083W        W41931   4.511  16.384  14.553  0.5306  0.2198 -0.2988
25084W        W41932   9.052  12.773   4.135 -0.2706 -0.0147  0.0778
25085W        W41933   9.133  13.059   2.785  0.1809 -0.4685  0.1800
25086W        W41934   2.258  10.185  16.273 -0.0945 -0.1473 -0.2620
25087W        W41935   5.446   4.424  13.132  0.1049 -0.0189 -0.1456
25088W        W41936   8.005   4.771   4.153 -0.0545 -0.0563 -0.1902
25089W        W41937  13.180   5.734   2.013 -0.0853 -0.3164  0.2942
25090W        W41938   2.162   5.510   1.271  0.0182  0.0035 -0.0155
25091W        W41939   6.446  10.013   3.907 -0.0354 -0.0206  0.0994
25092W        W41940   5.422  11.658   4.258  0.0202 -0.3407 -0.0750
25093W        W41941   6.732  13.285   4.691  0.1352  0.4178 -0.2467
25094W        W41942   9.296   5.034   2.514 -0.1022  0.1303  0.2101
25095W        W41943   0.081  16.959  12.625 -0.1701  0.1361  0.0378
25096W        W41944   9.518  14.809  11.757 -0.2640  0.0160  0.0569
25097W        W41945  11.479   7.896   0.193 -0.2031 -0.1584  0.1266
25098W        W41946  12.967  13.486  15.766 -0.0746  0.0201 -0.1133
25099W        W41947  17.438  15.442   2.661  0.2922  0.2317  0.1506
25100W        W41948   9.626  12.443  13.267  0.0225 -0.2413  0.3650
25101W        W41949   4.358   7.255   2.849  0.0400  0.1084  0.2550
25102W        W41950   9.400  10.145   3.002  0.0864 -0.0404 -0.2968
25103W        W41951   9.089   6.601   1.191 -0.3720  0.2014 -0.1352
25104W        W41952  15.399   2.268   0.398 -0.1645  0.2224 -0.0222
25105W        W41953  10.133   2.928  12.656  0.0540 -0.0425 -0.0078
25106W        W41954   2.421  15.760   1.668 -0.0471  0.0795 -0.2101
25107W        W41955  17.376   0.813   2.531  0.1926  0.0249  0.0503
25108W        W41956   8.564  11.579  16.562  0.0837 -0.1649  0.2220
25109W        W41957   9.526  17.261   2.744 -0.1211  0.2489  0.1173
25110W        W41958   6.526  16.537   1.689  0.0294 -0.0152  0.3125
25111W        W41959  15.585   1.044  14.569  0.1159  0.2532 -0.3118
25112W        W41960   6.173  17.735   3.975 -0.1419 -0.3313 -0.2874
25113W        W41961   5.305  14.205   4.528 -0.0401  0.1670  0.0676
25114W        W41962   7.048   2.747   2.107 -0.1378  0.4848 -0.1472
25115W        W41963  16.967   2.359  12.019  0.0625  0.1804 -0.1879
25116W        W41964   5.004  16.269   2.815 -0.0920 -0.2824 -0.2539
25117W        W41965  15.198  12.810  16.565 -0.0954 -0.2300 -0.0570
25118W        W41966  13.610   7.704  14.230  0.2130 -0.1563 -0.1421
25119W        W41967  15.739   4.169   4.445 -0.1418  0.2624 -0.0699
25120W        W41968   4.691  17.112  13.862 -0.0774  0.1267  0.1221
25121W        W41969  14.014   0.996   3.270  0.0910 -0.2107  0.1929
25122W        W41970  12.150   1.507   2.540  0.3121 -0.0903 -0.1191
25123W        W41971   7.509   2.049  13.403  0.1136  0.0424 -0.1495
25124W        W41972   6.135   8.490   5.006 -0.1709  0.3374  0.2494
25125W        W41973   8.999  10.695  15.296 -0.2371  0.0303  0.0505
25126W        W41974  13.839  10.165  12.805  0.0516  0.3721  0.0291
25127W        W41975  10.163   7.539  14.335  0.0006  0.0888 -0.2712
25128W        W41976   0.132   3.936  11.827  0.1052  0.1839  0.1988
25129W        W41977  15.667   5.119  11.852  0.1016 -0.0912  0.1644
25130W        W41978  17.793   4.519   4.787 -0.1819 -0.1286 -0.1014
25131W        W41979   9.686   9.336   0.961  0.0123 -0.2568  0.3485
25132W        W41980   3.894   4.486  13.343  0.0134 -0.1527  0.3546
25133W        W41981   5.249   4.101   3.843  0.0836  0.1427 -0.1303
25134W        W41982   7.149   1.748   4.084  0.0392 -0.2262  0.1000
25135W        W41983  15.212   1.720  15.856  0.0457  0.1903  0.1999
25136W        W41984  16.715  14.466  12.546  0.0284  0.0619 -0.0044
25137W        W41985   2.303   5.814   0.856  0.0766 -0.1964  0.0205
25138W        W41986  11.075  17.668  15.728 -0.3967 -0.0116 -0.2356
25139W        W41987   4.803  15.684  15.160  0.0504 -0.0326  0.0155
25140W        W41988   9.688  13.672  12.886 -0.0776 -0.2536 -0.0996
25141W        W41989   8.361   2.254   0.068  0.1018 -0.1634  0.0341
25142W        W41990   1.805  12.724  13.048 -0.0407 -0.3324 -0.1174
25143W        W41991   0.376   1.286  15.616 -0.1119  0.0789 -0.3557
25144W        W41992  16.103   7.128   3.477 -0.1408 -0.1804  0.2303
25145W        W41993  16.740  13.459  11.246 -0.3503 -0.0674 -0.1199
25146W        W41994   3.549  15.015  13.641  0.0377  0.2002 -0.5286
25147W        W41995  17.433   8.395   3.262 -0.1401 -0.0059 -0.1900
25148W        W41996  15.914   6.891  11.821  0.1605  0.0248  0.0198
25149W        W41997  17.679   6.540   1.069  0.4871 -0.3926  0.3520
25150W        W41998   4.070   2.834  11.667  0.0373 -0.3458  0.0616
25151W        W41999   8.275  14.826  12.184  0.2650  0.2305 -0.2513
25152W        W42000   9.997  12.121  16.284  0.0027 -0.0370  0.2549
25153W        W42001   2.154  13.945  16.257  0.2480  0.0529  0.1323
25154W        W42002  11.674   3.616  12.685  0.1559  0.2274 -0.1783
25155W        W42003   5.453   5.047  15.318  0.2043  0.3893 -0.2642
25156W        W42004  13.625   5.505   3.078 -0.1647  0.0646 -0.0093
25157W        W42005   4.174  11.595  14.324  0.3287 -0.2424  0.2273
25158W        W42006  15.219   7.271  11.717 -0.1360  0.1607 -0.2133
25159W        W42007   9.086   3.049   3.177 -0.0589 -0.3763  0.0388
25160W        W42008   8.011   1.695  13.663  0.0002  0.2848 -0.2258
25161W        W42009   0.297  15.564  12.877  0.0413 -0.0191 -0.1264
25162W        W42010   5.710  12.415  16.046  0.0356  0.2427  0.1928
25163W        W42011   9.756  10.344   3.778  0.1945 -0.1364  0.0671
25164W        W42012  11.843   4.172  13.863 -0.1640  0.0309  0.3303
25165W        W42013  14.957   6.829   4.258 -0.1524  0.3311  0.3142
25166W        W42014   4.677  15.798  15.717  0.0157  0.1070 -0.0641
25167W        W42015   6.629  15.717   2.101  0.1563 -0.2214  0.1734
25168W        W42016  13.373   9.395  12.318 -0.1902 -0.2136 -0.0789
25169W        W42017  11.648   7.711  13.163  0.3700  0.0971  0.0329
25170W        W42018   6.210  15.961  12.834 -0.1656  0.2193  0.0024
25171W        W42019   7.496  17.503  15.547 -0.0262 -0.0631 -0.0797
25172W        W42020   1.749   8.017   1.081 -0.2104  0.0604 -0.2614
25173W        W42021   6.682  14.396  12.878 -0.0759  0.2149  0.0086
25174W        W42022   9.192   5.036   0.209  0.1474 -0.0078 -0.1373
25175W        W42023  13.514  17.226  15.287 -0.0897  0.0739  0.2131
25176W        W42024   2.386   1.575   0.698 -0.1582  0.1891 -0.2099
25177W        W42025   1.890  10.107  12.945 -0.0233  0.2832  0.2189
25178W        W42026  17.484   5.130   2.424 -0.0475  0.2076  0.0083
25179W        W42027   0.395  12.920  12.091 -0.1678 -0.2419  0.0473
25180W        W42028  15.227  10.337   3.299 -0.1729 -0.2534 -0.1823
25181W        W42029  14.877  12.470   2.642 -0.0767 -0.3205  0.0417
25182W        W42030  13.221  17.719   2.293  0.1190 -0.0552 -0.0845
25183W        W42031  14.723  12.871   0.306 -0.0911 -0.0630 -0.2333
25184W        W42032   5.112   8.667   0.785  0.2431 -0.0532  0.2506
25185W        W42033   0.763   4.016  15.269  0.0528  0.3762 -0.5297
25186W        W42034   1.159   7.380  14.797  0.0954 -0.0176  0.0081
25187W        W42035   8.626  12.609   0.801  0.2506  0.0284  0.0481
25188W        W42036   9.144   9.889  13.532  0.2184  0.0991  0.2077
25189W        W42037   5.548   4.522  15.316  0.0902 -0.3208 -0.0896
25190W        W42038   1.895  12.856   3.896 -0.1278  0.1687  0.0113
25191W        W42039  11.544   9.711   4.514  0.3314 -0.1370 -0.0862
25192W        W42040   9.647   6.939  12.167 -0.0904 -0.1592 -0.3473
25193W        W42041   3.393   3.390  13.079 -0.1939  0.1358  0.0900
25194W        W42042   7.753  12.537  15.040  0.0744 -0.1797  0.0746
25195W        W42043   4.242   1.840   3.458 -0.0685  0.1320 -0.0588
25196W        W42044  16.435  11.279  11.486  0.2893 -0.3140 -0.0015
25197W        W42045  12.695   0.696   2.629 -0.1948  0.0175 -0.0953
25198W        W42046   7.713  17.850   1.603  0.1259  0.0809 -0.1968
25199W        W42047   7.961  12.073  14.743 -0.0847 -0.1130 -0.2038
25200W        W42048  11.170   8.935   5.346 -0.2683  0.2090 -0.1098
25201W        W42049   0.633   7.058  13.173 -0.0711  0.2995 -0.0088
25202W        W42050  14.578  17.482   0.868  0.2722 -0.5663  0.2234
25203W        W42051   9.508   0.489  15.116  0.0835  0.2924  0.0186
25204W        W42052   0.523  12.195   5.255  0.5652  0.1225 -0.1086
25205W        W42053  16.708   7.339   2.551 -0.1283 -0.0907  0.0392
25206W        W42054  17.048  13.164  11.498  0.0249  0.1287  0.0099
25207W        W42055  13.098   8.030   3.791  0.0665  0.1369 -0.1347
25208W        W42056  13.441   9.298   2.969  0.0618  0.0084  0.1233
25209W        W42057   3.169  14.862   2.492 -0.0741 -0.3056 -0.2777
25210W        W42058   7.993  14.676  14.397  0.0161  0.0274 -0.0466
25211W        W42059   1.997  12.332   0.382 -0.0781  0.1968  0.0350
25212W        W42060   0.226  13.490   2.622 -0.1094  0.0299  0.1298
25213W        W42061  11.141  10.738   1.006 -0.2708 -0.1605  0.0120
25214W        W42062   8.632  17.653   2.735  0.1735 -0.4242  0.0871
25215W        W42063  12.017  17.050  16.591 -0.1333 -0.2190  0.0294
25216W        W42064   0.458   3.473  12.099  0.4589  0.2558  0.0366
25217W        W42065   6.566   8.895   1.949  0.0038  0.1482  0.1475
25218W        W42066   1.158  14.591  11.516 -0.1260 -0.0536 -0.0001
25219W        W42067   4.034   2.253  14.757 -0.4339 -0.2467  0.0644
25220W        W42068  12.551   3.358  12.853  0.0328  0.1146  0.3981
25221W        W42069   9.499  13.008  12.099 -0.1249  0.0365 -0.1676
25222W        W42070   9.519   8.659  14.701 -0.1249 -0.0846  0.3448
25223W        W42071  14.420  16.223   0.931 -0.2686 -0.3247 -0.0719
25224W        W42072  10.089   7.906  15.390  0.1263 -0.1086  0.1371
25225W        W42073  14.975  12.598   0.853  0.1633  0.1978  0.2205
25226W        W42074   1.405  11.066   5.668 -0.1709 -0.2098 -0.0654
25227W        W42075  13.628   3.059  12.783 -0.2124 -0.0126 -0.0590
25228W        W42076  11.297  15.985  12.392  0.1434  0.0825  0.0244
25229W        W42077  16.033  16.971  16.333  0.2886  0.0318 -0.0490
25230W        W42078  15.341  11.337   0.244  0.0352  0.1121 -0.0312
25231W        W42079   9.029  17.031   5.200  0.4088  0.0528 -0.1391
25232W        W42080  15.586   6.095  15.534  0.1314 -0.0116 -0.1051
25233W        W42081  16.865   7.138   1.070 -0.4525  0.0866  0.0534
25234W        W42082  16.659  12.662   1.481  0.0502  0.1625 -0.1442
25235W        W42083  13.629  16.200  13.186 -0.1687 -0.3064  0.1231
25236W        W42084   8.290  14.491  12.609 -0.2340 -0.0007 -0.2321
25237W        W42085   6.590   8.247  16.468  0.1016 -0.2643 -0.1900
25238W        W42086   4.698   0.581   2.802 -0.0766  0.1000  0.2333
25239W        W42087   2.636  14.053   4.298  0.1328 -0.1562  0.1894
25240W        W42088   7.504   9.068   5.660  0.0967 -0.1570  0.1318
25241W        W42089  11.458   2.957  11.797  0.3391  0.0076 -0.1717
25242W        W42090   0.701  13.220  11.890 -0.2919 -0.0232 -0.0235
25243W        W42091   2.174   9.141  11.336  0.1743  0.2549  0.1711
25244W        W42092   6.561  10.577  15.658  0.1396  0.2345 -0.1122
25245W        W42093   0.841   4.849  15.644 -0.5546  0.0955 -0.0544
25246W        W42094  13.517  13.342   1.784  0.0483 -0.0877  0.0289
25247W        W42095  11.349  13.814   0.416 -0.1858 -0.2471  0.0587
25248W        W42096  16.581  14.608  12.985 -0.3901  0.0804 -0.0934
25249W        W42097   2.756   0.385  11.234  0.0260 -0.0960  0.4183
25250W        W42098  14.065  14.583  11.392  0.0512  0.1715 -0.2843
25251W        W42099  14.512  16.468   4.780  0.1096  0.0535  0.1157
25252W        W42100   3.358  13.955   1.776 -0.1201 -0.2750 -0.0144
25253W        W42101   6.637   7.430   0.062  0.0292 -0.1059 -0.0097
25254W        W42102  12.694  14.185   3.926 -0.2721 -0.1721 -0.0220
25255W        W42103   8.394  13.617  12.176 -0.3201 -0.3143 -0.2243
25256W        W42104   8.772  16.267  15.459 -0.0239 -0.0851 -0.0858
25257W        W42105  16.020  10.080   3.877  0.2197 -0.3588  0.1148
25258W        W42106  11.077  13.099  15.342  0.1820 -0.2439  0.1371
25259W        W42107  11.190   5.579  16.235 -0.1644 -0.3267 -0.1286
25260W        W42108  13.912  15.963   5.536 -0.1583  0.1311  0.0930
25261W        W42109   5.197   3.863   4.400  0.0791  0.0152 -0.0531
25262W        W42110  11.669  12.667   4.548 -0.1137  0.1897 -0.0613
25263W        W42111  16.722  17.829   4.412 -0.4457 -0.1450 -0.1797
25264W        W42112  11.996   1.575  15.289  0.2266 -0.1660 -0.0405
25265W        W42113   7.376   3.258   0.598  0.1335 -0.0096  0.0357
25266W        W42114  10.740  13.388  15.870  0.0351 -0.0510  0.1326
25267W        W42115   5.004   9.252  16.441  0.1137  0.0887  0.0753
25268W        W42116   9.191  16.768   2.132  0.0365 -0.0407 -0.0662
25269W        W42117   1.576   9.384  11.993 -0.2365 -0.1747  0.2293
25270W        W42118   2.786   4.450  16.460  0.1086 -0.2705  0.5316
25271W        W42119   2.981  16.736  16.168 -0.0775 -0.0222  0.0976
25272W        W42120   2.328  14.039  12.454 -0.1735  0.2095  0.0879
25273W        W42121  14.998  17.659   4.801  0.0992 -0.0107 -0.2038
25274W        W42122   9.326   2.361  11.250 -0.0391 -0.3031 -0.3211
25275W        W42123   2.128   5.977  12.121  0.0843 -0.2803 -0.1623
25276W        W42124   5.699   1.529  14.524  0.2064  0.3231  0.0973
25277W        W42125  17.782  16.923  16.575 -0.2438  0.2268  0.0343
25278W        W42126   6.311   2.421  15.654  0.0343 -0.3053 -0.2473
25279W        W42127  15.638   5.503   1.221  0.0092 -0.1724  0.3643
25280W        W42128  13.706   5.028  16.230  0.0752  0.1388  0.4137
25281W        W42129   9.076   4.242  15.012  0.0562  0.0588  0.0454
25282W        W42130  16.307  13.441  16.326 -0.0467 -0.1098 -0.2032
25283W        W42131  10.982  13.816  12.538  0.0559  0.2253 -0.0178
25284W        W42132  11.136  11.560  15.259 -0.3137 -0.0862  0.1325
25285W        W42133   1.626   6.346   3.830  0.1872 -0.1522  0.0603
25286W        W42134   0.085   4.022   4.959  0.0016  0.0872  0.1899
25287W        W42135   9.838   9.053  13.344 -0.1020 -0.1422  0.0821
25288W        W42136   5.320  17.703   2.856  0.1156  0.0295  0.1958
25289W        W42137  10.316   3.968   3.567  0.3247  0.2936  0.2053
25290W        W42138   5.979  13.631   4.853  0.1838  0.0175  0.1726
25291W        W42139  15.793   4.450   1.773 -0.2377  0.0851  0.0569
25292W        W42140  11.051  11.342   3.860 -0.2716  0.1315 -0.2744
25293W        W42141   8.774   9.899  15.738  0.0318  0.0731 -0.3461
25294W        W42142  15.686   6.928   0.268 -0.0527 -0.0097  0.1874
25295W        W42143  12.942  11.787  13.207  0.1600  0.0674  0.0848
25296W        W42144   1.703  10.588   6.163 -0.2627 -0.1147 -0.1106
25297W        W42145   8.798  11.571   3.010  0.0013  0.0083 -0.1281
25298W        W42146  14.369  17.281  16.075 -0.2207 -0.1261 -0.4503
25299W        W42147   1.474   4.716   0.690  0.1475  0.2138 -0.0951
25300W        W42148  10.643  14.706  14.598 -0.2546 -0.0713 -0.3103
25301W        W42149   4.083  16.489   1.985  0.3192 -0.1783 -0.1030
25302W        W42150  11.573   8.423  14.533  0.1152 -0.1178 -0.2245
25303W        W42151   7.318  11.311  11.094 -0.0024  0.0432  0.2103
25304W        W42152  14.274  13.144   4.715  0.0631 -0.1638 -0.0765
25305W        W42153  17.605  13.474   3.402 -0.1174  0.1309 -0.0809
25306W        W42154  13.533   3.219   3.511  0.1155  0.1590 -0.3338
25307W        W42155   3.477   0.494   0.774  0.2932 -0.1552 -0.0992
25308W        W42156   2.092   4.539   6.350 -0.2314  0.1338  0.0223
25309W        W42157   0.329  12.713   1.052 -0.0038  0.0859  0.0809
25310W        W42158   7.541  15.173   0.603 -0.2977 -0.1562 -0.1236
25311W        W42159   4.120   4.436  16.413  0.0581  0.0700 -0.2336
25312W        W42160   3.976   4.674   0.197 -0.1870 -0.1311 -0.3530
25313W        W42161   4.894  16.150  14.689  0.1337  0.5191 -0.1396
25314W        W42162  10.137  12.686  14.443 -0.0576 -0.2687 -0.0864
25315W        W42163  10.613   8.884   1.686  0.1599 -0.0151 -0.3093
25316W        W42164  12.550  13.118   2.955  0.0559 -0.0792 -0.3159
25317W        W42165   9.592   8.140   0.776 -0.1016 -0.2194  0.1648
25318W        W42166  16.737  11.335   3.596 -0.0701  0.1354  0.2178
25319W        W42167  10.358   3.547   3.879 -0.0638  0.1235  0.0270
25320W        W42168   1.199   0.527   5.258 -0.2216 -0.1817  0.1213
25321W        W42169   4.237   9.514   3.539  0.0430  0.0262  0.2091
25322W        W42170   6.348  14.555   1.412  0.5100 -0.0788 -0.0722
25323W        W42171  12.605  14.744  15.743  0.3277  0.0244 -0.0181
25324W        W42172  14.957  16.251  16.587 -0.2294 -0.1348  0.0166
25325W        W42173  12.315  11.454   4.273  0.0418 -0.1684 -0.1142
25326W        W42174   0.056   1.207  11.862 -0.1015 -0.0794  0.0064
25327W        W42175   7.952  14.426   4.045 -0.0105  0.3139 -0.1713
25328W        W42176   2.962  11.062  12.223  0.3541  0.4739  0.1113
25329W        W42177   3.577   9.742  15.260 -0.0977  0.3160 -0.0732
25330W        W42178  16.869  15.238   3.588 -0.0960  0.1807 -0.0004
25331W        W42179   6.616  12.847  15.215  0.1472 -0.2906 -0.2172
25332W        W42180   5.832  17.066   1.861 -0.2606  0.2259 -0.0390
25333W        W42181   5.937   5.557   0.022  0.1764 -0.1395  0.2001
25334W        W42182   0.361  11.467  15.809 -0.0608 -0.1157 -0.1615
25335W        W42183   8.215   4.643  13.902  0.2128 -0.0351  0.1763
25336W        W42184  16.906  17.054  14.994  0.1293  0.3673  0.1752
25337W        W42185  11.476  14.685   0.704  0.0502 -0.0429 -0.0123
25338W        W42186   5.985   9.617   1.846 -0.1935 -0.1150  0.3476
25339W        W42187  12.828  12.178   0.639  0.3460 -0.1291 -0.1008
25340W        W42188   2.184   7.977  14.520  0.1187  0.0067 -0.2027
25341W        W42189   6.098   1.323  14.321 -0.5494  0.1051  0.0902
25342W        W42190   9.811  14.204  13.800  0.0633 -0.1515 -0.0086
25343W        W42191   1.814   0.393   1.132  0.3358 -0.0745 -0.0942
25344W        W42192  14.263   8.064   0.080  0.0110 -0.0277 -0.1608
25345W        W42193   0.331   1.049  12.879  0.2015  0.3870  0.0721
25346W        W42194  11.708   5.075  15.049 -0.1649  0.0303 -0.1766
25347W        W42195   0.723   4.754   3.434 -0.2037  0.3292  0.2674
25348W        W42196   3.956   9.377   4.538  0.1213 -0.0554 -0.1618
25349W        W42197   5.487   6.238  14.662  0.1600  0.3144  0.3665
25350W        W42198   5.911   7.282  15.309 -0.0532 -0.3078 -0.2999
25351W        W42199   0.469   9.560  12.755 -0.1926 -0.1037  0.2287
25352W        W42200   5.421   3.176  13.350 -0.0778 -0.0711 -0.0550
25353W        W42201   8.922  10.352  13.461  0.1858  0.0491  0.1199
25354W        W42202   9.774  12.896  15.807  0.1510 -0.1811  0.1096
25355W        W42203  12.491   9.160   2.645 -0.0726 -0.1012  0.0089
25356W        W42204   2.997   6.511  15.805  0.4012 -0.0382 -0.0699
25357W        W42205   5.310  17.224   3.047 -0.3383 -0.3751  0.1871
25358W        W42206  10.937  11.590   0.936  0.1427 -0.1200  0.1129
25359W        W42207  12.774   4.120  11.148 -0.1669  0.1983 -0.2700
25360W        W42208  15.712  16.456   3.819 -0.1516  0.0086  0.0770
25361W        W42209  13.079  12.910  14.375 -0.2133 -0.0737 -0.1629
25362W        W42210  13.346  10.549  15.054  0.1209 -0.0861 -0.1451
25363W        W42211  17.650  15.460  12.791 -0.0612 -0.0246  0.2938
25364W        W42212   0.044   5.608  13.068 -0.0556 -0.0517  0.0366
25365W        W42213   6.566  12.516   4.247  0.0624  0.1964 -0.1534
25366W        W42214  10.713   8.465  14.956 -0.0676 -0.0017 -0.1884
25367W        W42215  14.855  14.063   3.555 -0.0566  0.1659  0.2576
25368W        W42216   4.196  10.759  11.559 -0.2878  0.0290 -0.1657
25369W        W42217  10.870   9.539   2.434 -0.1015  0.0743  0.2480
25370W        W42218  12.991   7.798  16.086  0.2093  0.1625 -0.0764
25371W        W42219   8.313  12.342   1.400  0.0833  0.0699 -0.0336
25372W        W42220   8.896   9.368   1.127 -0.2403  0.0707 -0.0915
25373W        W42221  10.638  11.023  11.230  0.0426  0.1545  0.0903
25374W        W42222   4.682   9.917   5.284  0.0777  0.1089  0.0232
25375W        W42223   7.589   1.278  11.959 -0.2196 -0.0205 -0.0644
25376W        W42224   5.930   7.311   2.933 -0.1357  0.0862 -0.1082
25377W        W42225  16.399   3.214  13.215 -0.2428 -0.0467 -0.1211
25378W        W42226   6.171   8.225  13.863  0.1489 -0.0730 -0.2654
25379W        W42227   3.353  15.844  16.020  0.1581 -0.2619 -0.0616
25380W        W42228  10.416   4.904   2.897 -0.1604  0.0985  0.4781
25381W        W42229   4.704   5.037  16.265  0.0170  0.2884  0.1023
25382W        W42230   3.480  12.797   2.723 -0.2947 -0.3002 -0.2369
25383W        W42231   9.828  14.899   5.175  0.2197  0.3881 -0.1460
25384W        W42232   4.053   8.453  15.517 -0.3894 -0.2680  0.2988
25385W        W42233   9.239   4.620   3.768 -0.2331  0.0090  0.1897
25386W        W42234  15.399  13.682   1.901  0.2049 -0.0655 -0.1653
25387W        W42235  15.890  15.139  14.302  0.1115  0.0059  0.0414
25388W        W42236  10.705  13.655   5.181  0.3836 -0.1753  0.1910
25389W        W42237  11.376  14.172   3.951  0.1065 -0.1498 -0.1887
25390W        W42238   4.035  12.486  11.753 -0.0692  0.2579 -0.3284
25391W        W42239   9.112   9.890  14.463  0.1075  0.1371  0.1330
25392W        W42240   6.819  15.853  15.193  0.0413 -0.0121 -0.0938
25393W        W42241   7.475   3.329   6.308  0.0572  0.1182 -0.0135
25394W        W42242   2.267   4.006  15.267 -0.0492 -0.2128  0.2347
25395W        W42243   2.864  14.029  12.358 -0.1339  0.2068  0.2621
25396W        W42244   7.015   4.964  12.379 -0.0069 -0.2862 -0.0857
25397W        W42245  15.510  16.060  13.356 -0.1001 -0.2640 -0.0832
25398W        W42246  13.087   9.210   2.526 -0.2169  0.2019  0.0939
25399W        W42247  16.576  13.751  14.658 -0.1616  0.0208 -0.1094
25400W        W42248   7.398   9.198   2.266 -0.0509 -0.0896 -0.0645
25401W        W42249   5.122   7.039   0.153 -0.0673 -0.0104  0.0058
25402W        W42250  13.095  10.134   0.702 -0.4610 -0.0323  0.0955
25403W        W42251   2.586  12.099  12.965 -0.2114 -0.1977 -0.1923
25404W        W42252  16.385   1.808   4.340 -0.0132 -0.0071  0.0714
25405W        W42253  11.195   7.277   4.355  0.0384 -0.1459 -0.0013
25406W        W42254   1.345  15.554  15.188 -0.0087  0.0560  0.1563
25407W        W42255   6.612  14.896  13.808  0.2712  0.0787 -0.0993
25408W        W42256  14.544  10.665   1.200 -0.2203 -0.1422 -0.0870
25409W        W42257   0.677   1.192  11.704  0.0657  0.2076 -0.3391
25410W        W42258   3.396   2.036  15.345 -0.1587  0.1794  0.1621
25411W        W42259   4.272  12.282   2.812  0.0688  0.1497 -0.0042
25412W        W42260  14.699   0.518   0.263 -0.0726  0.0725  0.1381
25413W        W42261  10.892   8.896  15.387  0.1242  0.0254  0.1706
25414W        W42262  10.792  10.805  14.276  0.2438 -0.0030 -0.5712
25415W        W42263   1.623   8.935  15.837  0.1852  0.0427 -0.0239
25416W        W42264   1.155  13.266  12.136 -0.0875  0.0703 -0.0438
25417W        W42265  17.367  16.166  11.394 -0.0091  0.0736 -0.2510
25418W        W42266   9.538  15.675  14.172 -0.0055 -0.0265  0.3138
25419W        W42267   2.146  16.561  12.829  0.0044  0.0537  0.0613
25420W        W42268   9.624  11.719   1.479 -0.1172  0.1438  0.0899
25421W        W42269   5.937   5.713   2.785 -0.0318  0.0197 -0.0117
25422W        W42270  13.742   0.723   4.119  0.1125 -0.0181  0.0060
25423W        W42271  15.938  14.621  15.615  0.2902  0.1549  0.3465
25424W        W42272  12.660   2.101   5.680 -0.1497  0.2107  0.2504
25425W        W42273   6.060  11.530   2.790  0.2082 -0.0091  0.1607
25426W        W42274  17.316  14.241  12.274 -0.1742 -0.2157  0.1944
25427W        W42275   8.697   8.394   1.445 -0.0296 -0.0687 -0.0405
25428W        W42276   3.973   3.277  12.285  0.1514  0.1142  0.1406
25429W        W42277   5.977  12.206   3.615  0.1444  0.1591  0.0946
25430W        W42278   4.949  15.155  14.669 -0.4467 -0.0666  0.0451
25431W        W42279   0.106   6.520  12.959  0.3227  0.2564  0.4302
25432W        W42280   5.818  16.203   3.151 -0.1256 -0.0728 -0.2129
25433W        W42281  15.072  13.277   4.677 -0.2968  0.0934 -0.1257
25434W        W42282  14.131  14.253   0.938 -0.3151 -0.3393  0.0838
25435W        W42283   7.078   2.866   1.039  0.1604 -0.1026  0.2145
25436W        W42284  14.218   9.958  15.332 -0.3840 -0.1992  0.1711
25437W        W42285   8.461  13.266   2.944  0.1010  0.1285 -0.1785
25438W        W42286  14.295   0.874   1.757 -0.1558 -0.0823 -0.2403
25439W        W42287   2.942  17.758   2.645  0.0750  0.2988 -0.0760
25440W        W42288  12.096  14.669   1.435  0.3255  0.1181  0.1627
25441W        W42289  12.278   5.775  15.904 -0.1233 -0.1873  0.1467
25442W        W42290   7.127  11.125   1.032  0.1986  0.0503 -0.2034
25443W        W42291   3.542  11.163   4.439  0.0837  0.2983 -0.0389
25444W        W42292   1.229  16.990   2.673  0.1199 -0.0516  0.0907
25445W        W42293   5.046   3.025   0.063 -0.0710 -0.1385 -0.2099
25446W        W42294   4.015  15.601   3.366  0.0195 -0.0406 -0.0655
25447W        W42295  17.747   5.796  12.092  0.0650 -0.1626  0.2044
25448W        W42296   4.207  11.144   1.896  0.0728  0.0645  0.0071
25449W        W42297  12.961   9.277  11.442 -0.1821  0.0905 -0.0422
25450W        W42298   6.141   1.538   4.758 -0.0280 -0.2426 -0.0842
25451W        W42299   4.130  15.565   1.367  0.0966 -0.0245 -0.1892
25452W        W42300  10.572  14.954  14.102  0.1788 -0.1483 -0.1152
25453W        W42301   4.491  14.667  13.032 -0.1275 -0.3058 -0.1002
25454W        W42302   5.033  14.571   5.276 -0.0801  0.1440  0.1640
25455W        W42303   7.821  16.974   0.893  0.5229 -0.3401  0.2923
25456W        W42304   6.121  11.710   3.628 -0.1045  0.3357 -0.0558
25457W        W42305  11.007   8.710  16.283  0.0430 -0.3551  0.1516
25458W        W42306   1.142  10.603   0.845 -0.3037 -0.1520 -0.1579
25459W        W42307  15.187  11.361   2.781 -0.1987  0.0540  0.2290
25460W        W42308  15.775  11.654  14.215  0.4181  0.1782  0.0550
25461W        W42309   7.990  17.254   5.366 -0.0712  0.0339  0.0847
25462W        W42310   4.576   5.982   1.948  0.0291  0.0931  0.2140
25463W        W42311   5.803  16.143   4.329 -0.1502  0.1197  0.0548
25464W        W42312   6.289   7.849  12.659  0.4349  0.2805  0.0153
25465W        W42313   2.471  11.175  11.600  0.2733 -0.1638 -0.1651
25466W        W42314  15.275   8.356   4.860 -0.2317 -0.0553  0.1873
25467W        W42315  17.824  14.349  13.846 -0.2191  0.3968 -0.0920
25468W        W42316  16.107   6.806   0.498  0.4423  0.1449 -0.2679
25469W        W42317  17.470   3.058   1.427  0.1731  0.1032  0.0023
25470W        W42318   5.770   5.181   5.799  0.0718  0.0559 -0.0210
25471W        W42319   6.425   7.299  15.152  0.0924 -0.0635 -0.1557
25472W        W42320   4.978  13.571  12.764 -0.4691  0.0851 -0.1431
25473W        W42321   0.442  13.466   0.356 -0.1664 -0.1196 -0.1545
25474W        W42322  12.667   0.885  13.260  0.1957 -0.2134 -0.0526
25475W        W42323  11.521   0.678   3.533  0.1418 -0.1399 -0.0185
25476W        W42324  16.394   5.844   0.679  0.3708 -0.2414  0.0384
25477W        W42325   7.164   4.792  13.530 -0.0250  0.1825  0.0802
25478W        W42326  13.660  12.304   2.896 -0.1292  0.0519 -0.1500
25479W        W42327  12.689  16.179  16.574 -0.0634  0.1983 -0.2722
25480W        W42328  13.397   6.134   4.715 -0.0363 -0.4651 -0.1250
25481W        W42329   3.926   9.519  13.595 -0.0886 -0.0310 -0.1076
25482W        W42330   5.553  14.239  11.563 -0.1924  0.0905 -0.1952
25483W        W42331  15.503   1.728   5.504  0.2211  0.0377  0.1616
25484W        W42332   0.343   0.024  14.059 -0.2081  0.1129  0.4065
25485W        W42333   5.670   3.815  14.509 -0.2804  0.4321  0.0153
25486W        W42334  13.754  11.391   4.859  0.0882  0.0703 -0.2635
25487W        W42335  12.520   2.926  16.333  0.1495 -0.0463 -0.1289
25488W        W42336   5.138   9.669   6.309  0.0904  0.5213 -0.0560
25489W        W42337  12.934  10.811  16.356 -0.0975  0.0398 -0.1242
25490W        W42338   9.550  13.113   5.746  0.0645  0.0342  0.1163
25491W        W42339  13.234   7.594  11.568  0.2940 -0.0773  0.3156
25492W        W42340  14.789  13.891  13.932  0.1640  0.2851  0.0006
25493W        W42341  13.718   2.957   0.501 -0.1542  0.1129 -0.1418
25494W        W42342   9.362  16.924   1.532 -0.2199  0.3439 -0.0805
25495W        W42343  11.824   5.893  14.037 -0.0974  0.1361  0.1879
25496W        W42344  13.274   2.710  10.342 -0.0309 -0.1418 -0.0899
25497W        W42345  13.978   4.748  12.369 -0.3629 -0.0441 -0.3648
25498W        W42346   5.373  13.626   1.403  0.4419 -0.1425  0.0212
25499W        W42347  10.746  11.367   4.261  0.1412 -0.2793 -0.2178
25500W        W42348   6.600  15.796  14.418 -0.1370 -0.0658  0.1714
25501W        W42349  16.467  13.424   0.217  0.0520  0.1095  0.1817
25502W        W42350  12.786  16.917  11.688  0.0606  0.6897 -0.0364
25503W        W42351  17.686  13.168   2.823  0.0047  0.3630  0.3238
25504W        W42352  11.770   7.311   4.854 -0.1915 -0.0364 -0.0696
25505W        W42353   7.999  17.773   1.082  0.1532 -0.0074 -0.1369
25506W        W42354   6.826  10.256   3.020 -0.0604  0.2801 -0.1499
25507W        W42355  16.084   1.206  11.668 -0.1077  0.0873 -0.0344
25508W        W42356  11.207   5.189   5.144  0.0398 -0.1832 -0.2586
25509W        W42357  11.070  17.834  11.764  0.1006  0.0980 -0.0426
25510W        W42358   7.819   9.784   0.937  0.1071 -0.1869 -0.0976
25511W        W42359   5.246   7.545   0.889  0.3657 -0.0061 -0.2222
25512W        W42360   5.476  15.052   3.703  0.0232 -0.3216 -0.0951
25513W        W42361   2.579   6.739  15.050 -0.0278 -0.1059 -0.2937
25514W        W42362   2.335   6.973   0.270 -0.3908  0.1314 -0.2183
25515W        W42363   6.691  16.185   3.240 -0.0410  0.2085 -0.1335
25516W        W42364   1.839   2.463   4.439  0.1356  0.2040  0.1295
25517W        W42365  17.611   1.091   2.208  0.2053  0.3015 -0.0086
25518W        W42366  13.435   1.584   2.161  0.3574  0.2678 -0.0162
25519W        W42367   5.859   2.185  15.416 -0.0465 -0.1272  0.0756
25520W        W42368   9.257  12.722   4.676  0.1642 -0.0739 -0.1059
25521W        W42369   9.182   7.756  16.148 -0.0249  0.0808  0.0522
25522W        W42370  12.093   3.241   0.960  0.1979 -0.0366 -0.2561
25523W        W42371  14.539  16.669   0.201 -0.2235  0.1280 -0.0120
25524W        W42372  11.717   3.994  11.941  0.0798 -0.1624 -0.1803
25525W        W42373  16.746   9.563   2.582  0.3117  0.1870  0.4687
25526W        W42374  15.435  17.851  15.403 -0.3369  0.1186  0.2186
25527W        W42375  15.606   8.809  12.005 -0.2162 -0.1385  0.0962
25528W        W42376   7.190   4.583   0.794 -0.0417 -0.0926  0.2452
25529W        W42377  10.730   5.842   3.623 -0.0451 -0.2682  0.1093
25530W        W42378   1.886   4.682  16.188 -0.1126 -0.1586  0.1596
25531W        W42379  14.021   0.881   0.797 -0.5024  0.4100  0.0988
25532W        W42380   9.452   0.711   2.063 -0.2699 -0.0282  0.2215
25533W        W42381  17.605   9.393  14.530 -0.0889  0.3171 -0.1818
25534W        W42382   2.429  14.777   3.097  0.2059  0.0569  0.0260
25535W        W42383   8.361  15.622  12.510 -0.2030 -0.0228  0.2817
25536W        W42384   4.498   7.701   4.084 -0.1788 -0.3085 -0.0062
25537W        W42385   9.264   3.615   1.105  0.3933 -0.0446 -0.2799
25538W        W42386  14.438   6.858  11.728 -0.0615  0.3103  0.1055
25539W        W42387   7.054  17.151   4.792  0.0509 -0.2403 -0.0966
25540W        W42388   2.381  17.726  11.946 -0.2100  0.0531  0.0389
25541W        W42389   6.466   8.474  15.374 -0.0482  0.1162 -0.0852
25542W        W42390   3.873   2.572   0.844  0.0735  0.0673  0.2945
25543W        W42391  16.987  14.454  15.318  0.1100  0.0228 -0.0890
25544W        W42392  10.868   0.935  13.294  0.1437 -0.0395  0.0289
25545W        W42393   7.177   1.179   3.335 -0.1620  0.0819  0.2087
25546W        W42394   6.781   5.008   0.717  0.0133 -0.0899  0.0534
25547W        W42395   3.733  14.560   0.720 -0.0648  0.2788 -0.1923
25548W        W42396  11.710  13.477   3.383 -0.1426  0.0286  0.3251
25549W        W42397  11.972   8.959   3.578 -0.0823  0.1101 -0.1972
25550W        W42398   8.940   4.641  12.034  0.0243  0.0619  0.2704
25551W        W42399   4.362  11.683  15.504  0.3278  0.3869 -0.1554
25552W        W42400  13.228   2.793   1.381  0.0299  0.2033 -0.1478
25553W        W42401   7.242   5.816  16.329 -0.0986 -0.0395 -0.2118
25554W        W42402  14.442  10.281  16.542  0.0090 -0.1487  0.1753
25555W        W42403  10.339   6.344  12.683  0.2760 -0.0216  0.1346
25556W        W42404  11.007   5.850  15.288  0.1264  0.1401 -0.4929
25557W        W42405   0.992  12.749   4.172  0.0091 -0.2916 -0.1676
25558W        W42406  12.892   3.523  15.776  0.4451 -0.1330  0.0626
25559W        W42407   7.798   0.507   4.495  0.0516  0.2189 -0.0846
25560W        W42408   7.497   7.760  16.611 -0.0927 -0.3167  0.0909
25561W        W42409   4.677  11.844   3.630 -0.0232  0.1081 -0.1521
25562W        W42410  11.999   8.696   1.962  0.2190 -0.0386 -0.0025
25563W        W42411   6.583   7.186   1.906  0.0405 -0.1399 -0.3328
25564W        W42412  13.614  14.422   1.579  0.2752 -0.4196 -0.2753
25565W        W42413   8.910   0.220   0.811  0.2364 -0.1206  0.1337
25566W        W42414  14.092  16.455   0.202  0.1963  0.0102  0.1963
25567W        W42415   1.562  15.335   3.205  0.0155  0.2074 -0.0630
25568W        W42416   2.375   3.008   0.181  0.3715  0.0098 -0.4092
25569W        W42417  16.066   2.486  12.610 -0.2498  0.1478  0.2303
25570W        W42418   2.968   6.531  13.758  0.3557 -0.0399 -0.0054
25571W        W42419   0.653  15.271   2.364  0.1479  0.0359  0.0449
25572W        W42420   9.808   4.304  12.105  0.0776  0.1130  0.2707
25573W        W42421   1.494  17.321  14.700 -0.1161  0.0929  0.0469
25574W        W42422   9.389   7.125  14.877 -0.2263 -0.1127 -0.0200
25575W        W42423   2.746  11.393   1.744 -0.0459  0.1389  0.1529
25576W        W42424  10.558   5.888   4.119 -0.1938 -0.1336 -0.1412
25577W        W42425   6.969  10.466  12.124 -0.0551 -0.0263 -0.2609
25578W        W42426   0.509  16.638  14.629  0.4467 -0.0214  0.1611
25579W        W42427  15.182  15.270   4.955 -0.1565 -0.0340 -0.0707
25580W        W42428  17.613  16.306   4.966 -0.1282 -0.0893  0.1028
25581W        W42429  15.980  12.972   0.505 -0.0331 -0.0237 -0.1238
25582W        W42430   9.349   2.254   0.691 -0.0150 -0.1558  0.1176
25583W        W42431   6.359  15.544  13.014 -0.3118  0.3294 -0.2644
25584W        W42432   6.021   8.632   4.087  0.0901  0.1286  0.0894
25585W        W42433  16.228   8.815   3.079 -0.0130  0.0279 -0.0355
25586W        W42434  15.092  12.094  10.888 -0.1487  0.1344 -0.0384
25587W        W42435   7.664  11.239  12.838 -0.1413 -0.0537  0.2932
25588W        W42436   3.992  13.187  15.169  0.0285  0.0449 -0.1446
25589W        W42437  16.305   0.902  16.537  0.1418  0.0159 -0.0358
25590W        W42438   3.364   6.043   1.647  0.0683  0.0099 -0.0096
25591W        W42439  13.695  15.058  16.600  0.2032  0.1505 -0.0756
25592W        W42440   7.696  11.273  15.779  0.1600 -0.0894  0.0636
25593W        W42441  14.975   6.506  14.866  0.0161  0.0093  0.2535
25594W        W42442  16.528   9.306   0.499  0.1843 -0.1598  0.1152
25595W        W42443  13.113   2.075  11.517  0.2750  0.0963 -0.0328
25596W        W42444   8.040  15.530  14.023 -0.1186  0.1858 -0.1377
25597W        W42445   2.541   4.403  13.507 -0.0952 -0.0492 -0.3115
25598W        W42446  13.669   8.000  12.463 -0.1561  0.1453  0.0531
25599W        W42447  17.720   6.940  11.445 -0.2947 -0.0450 -0.3099
25600W        W42448   0.869   9.640   4.844  0.2543  0.1423 -0.2169
25601W        W42449  15.910   5.555  11.937 -0.0288  0.0237  0.2943
25602W        W42450   5.851   8.628   0.465  0.1629  0.0565  0.1274
25603W        W42451   7.085  12.857  14.377 -0.2524 -0.0499  0.0177
25604W        W42452  12.237   0.342  14.673 -0.1594 -0.0931 -0.2058
25605W        W42453   4.653   3.796   1.781 -0.0279 -0.3121  0.2929
25606W        W42454  16.248   9.246   1.754 -0.0658 -0.0760 -0.0280
25607W        W42455  12.100  12.039  16.177  0.4077  0.0826 -0.0855
25608W        W42456   2.655   5.141  11.569  0.0441  0.0859 -0.1326
25609W        W42457  17.342   7.479  14.546 -0.4628  0.1040 -0.1075
25610W        W42458   1.246   2.641  11.372  0.0042  0.1312 -0.0320
25611W        W42459   8.756  15.789   1.993  0.1518 -0.0435  0.0233
25612W        W42460  10.384   5.420   0.440 -0.4160  0.1341 -0.2159
25613W        W42461  10.659   2.349   3.642  0.2682  0.0867  0.0681
25614W        W42462  15.173   0.122   2.421  0.0214  0.1126 -0.0066
25615W        W42463  16.740  15.491  13.401  0.0309 -0.0981  0.3347
25616W        W42464  10.445   7.052  12.814  0.1729  0.0576 -0.1114
25617W        W42465   4.744  16.798  14.869  0.0776  0.0861 -0.2281
25618W        W42466   6.037  13.892   1.418 -0.3191 -0.1305 -0.0258
25619W        W42467   0.429  14.817   2.240 -0.1702  0.1586 -0.0501
25620W        W42468   5.720  16.445   0.267  0.0328 -0.0364 -0.2596
25621W        W42469   0.643   8.753   3.008 -0.2074 -0.0484 -0.3283
25622W        W42470   7.915  12.517   3.177  0.1093 -0.2784  0.4399
25623W        W42471   8.107   7.902  11.362  0.0228  0.0019 -0.1964
25624W        W42472  13.011  14.546   0.682 -0.0965  0.2457 -0.0181
25625W        W42473   2.627   2.085   4.707 -0.0057 -0.0540  0.0836
25626W        W42474  14.071   4.470   1.796 -0.0839  0.1244 -0.0252
25627W        W42475  13.649   6.933   1.417 -0.2523  0.2716  0.0253
25628W        W42476  10.475   2.176   5.046 -0.0768  0.0620  0.0106
25629W        W42477   9.546  12.361   3.051 -0.0714  0.1081  0.0848
25630W        W42478  16.891   9.802  16.136  0.2468  0.1471  0.2164
25631W        W42479   3.110  11.695   5.359  0.0355 -0.3499 -0.0786
25632W        W42480  12.970   4.520   0.033 -0.1874  0.0673 -0.1962
25633W        W42481  16.774   9.069   4.764  0.1010 -0.2842  0.0210
25634W        W42482   1.398   2.231  10.353  0.0048 -0.0836 -0.0316
25635W        W42483  14.358   1.307   0.110  0.0915 -0.0208 -0.3825
25636W        W42484   8.957   6.453  13.717 -0.1966 -0.2738  0.2267
25637W        W42485  17.495  14.994  13.062  0.2994  0.0414  0.0187
25638W        W42486   1.426  15.127   5.158 -0.2547 -0.1558 -0.0591
25639W        W42487   9.819   0.095   3.744 -0.0829  0.0901 -0.0084
25640W        W42488   3.874   5.584  12.013 -0.0177  0.1062 -0.1845
25641W        W42489  11.921   8.985  15.057  0.3110  0.0032 -0.2780
25642W        W42490   8.398  16.441   0.071 -0.2666 -0.2731 -0.0023
25643W        W42491  14.911  14.482   2.709 -0.0889 -0.2600 -0.2503
25644W        W42492  11.593   2.899   1.784  0.2038 -0.0558  0.4215
25645W        W42493   9.677  14.350  11.724  0.2129 -0.2845  0.0494
25646W        W42494   3.798   4.548   0.642 -0.1137 -0.4434 -0.0744
25647W        W42495   2.490  10.739   2.414  0.3586  0.2027  0.0186
25648W        W42496   4.760  13.399   5.422 -0.2864  0.0967  0.1961
25649W        W42497  13.819   1.193   1.102 -0.0779  0.4205 -0.0485
25650W        W42498  15.328   1.809  14.283  0.3675 -0.0559 -0.1659
25651W        W42499  13.573   5.921  15.668  0.2043  0.1356 -0.1487
25652W        W42500   4.177  17.191   4.790  0.1917  0.0237 -0.3316
25653W        W42501   6.573  13.367   5.252 -0.2191  0.3988 -0.0083
25654W        W42502  12.788   2.030   2.863  0.1906  0.0364 -0.1675
25655W        W42503   9.725  10.465  13.404 -0.0161 -0.3884  0.3506
25656W        W42504   3.035   4.471   3.220  0.0438  0.0478  0.1596
25657W        W42505  16.429  12.730   2.418  0.0330 -0.1241  0.1227
25658W        W42506   6.945  15.496   5.359  0.1155 -0.0593 -0.0224
25659W        W42507  14.924   8.916  14.940  0.1897 -0.2558  0.0998
25660W        W42508   5.991  16.815  15.768  0.0949  0.2334  0.0619
25661W        W42509   1.070  10.333  15.066 -0.1413 -0.0273 -0.1890
25662W        W42510   2.667  17.673  14.528 -0.1337 -0.2712 -0.0419
25663W        W42511   7.551   9.251   1.088 -0.3288 -0.1970 -0.1264
25664W        W42512  11.383   2.856   4.505 -0.1112 -0.0770 -0.2457
25665W        W42513   5.414   0.463  15.805  0.0620  0.0103 -0.3823
25666W        W42514   5.057   7.032  11.790 -0.1545 -0.5021  0.2479
25667W        W42515   4.405  11.192  14.127  0.2693 -0.2646  0.1448
25668W        W42516   0.255   8.260  13.659  0.0782  0.0669  0.1154
25669W        W42517   5.731  10.399   1.373 -0.2017 -0.2807  0.0462
25670W        W42518   3.527  17.091  15.833 -0.2210 -0.0678 -0.0490
25671W        W42519  12.003  16.927  13.554  0.1895  0.0005 -0.0874
25672W        W42520  12.428   2.995   2.712 -0.1680 -0.1893 -0.0506
25673W        W42521  11.989   6.065  11.762  0.2125  0.2420  0.2041
25674W        W42522   1.654  12.821  15.979  0.0037 -0.1050  0.3612
25675W        W42523  11.764   7.327   2.969 -0.2217 -0.0813 -0.0404
25676W        W42524   7.493   7.747   0.473  0.0155 -0.3607  0.0877
25677W        W42525  10.023  16.655  15.226 -0.0228 -0.1358  0.1681
25678W        W42526  11.107   7.697   0.915  0.1525  0.2565  0.0203
25679W        W42527   1.907   4.355  15.287 -0.2509  0.0342  0.1149
25680W        W42528   6.502  15.563  14.936  0.0157 -0.2363  0.1565
25681W        W42529   1.570  12.545   2.856 -0.2231  0.2017 -0.0488
25682W        W42530  11.796   5.232   4.298 -0.0279 -0.0337  0.0988
25683W        W42531   0.512  11.683   3.078 -0.0201  0.1052 -0.2583
25684W        W42532   3.592  14.048   2.224 -0.0219 -0.2038 -0.1526
25685W        W42533   1.178   1.028   1.661  0.4430  0.1527 -0.0785
25686W        W42534   1.005   2.929   1.315 -0.1643 -0.1708 -0.2868
25687W        W42535   2.913   7.657  13.197 -0.0665  0.1103  0.2123
25688W        W42536   3.457  10.527   4.889 -0.1655 -0.1734 -0.2766
25689W        W42537  13.930  13.156   3.203 -0.0019  0.2961  0.0831
25690W        W42538  16.656   4.987   2.238  0.0259  0.2474 -0.0962
25691W        W42539  16.163   8.391   3.897 -0.1596 -0.1414  0.0211
25692W        W42540  15.560  14.477   3.283  0.0034  0.0936 -0.2004
25693W        W42541  13.124  15.432   4.166 -0.1116 -0.2194  0.1912
25694W        W42542   4.155  15.329  12.729 -0.2391 -0.3010 -0.1030
25695W        W42543   4.431   4.186  12.170 -0.0700  0.0221  0.1602
25696W        W42544  13.498   5.401  14.732 -0.3093  0.1430 -0.3037
25697W        W42545  15.011  12.079   2.235 -0.0837 -0.0370 -0.0283
25698W        W42546   6.155  11.464  12.427 -0.0000  0.0070  0.2093
25699W        W42547  16.382  16.917   0.036  0.1395 -0.2403 -0.2267
25700W        W42548  15.575   1.395  14.075 -0.1214  0.0821 -0.1669
25701W        W42549  16.132  11.514  16.202 -0.2766 -0.3465  0.1689
25702W        W42550   7.958  16.586   1.917  0.2267 -0.1820 -0.0670
25703W        W42551  15.718  12.107   3.712 -0.0091 -0.0538  0.1812
25704W        W42552   2.381  13.729   3.151  0.2109 -0.2088  0.0586
25705W        W42553  12.209   0.390  14.139  0.0627  0.2629  0.1797
25706W        W42554   3.850  12.341   2.392  0.3012  0.1767  0.0872
25707W        W42555   4.840  16.758  11.983 -0.2650  0.1734 -0.0950
25708W        W42556  10.095  14.754  13.249 -0.0305  0.0824 -0.0496
25709W        W42557  15.652   4.541   0.619 -0.1501 -0.0036  0.0393
25710W        W42558   7.608   0.106  14.846 -0.1150 -0.2621 -0.0243
25711W        W42559   4.176  10.276  12.117  0.2414 -0.0929  0.0661
25712W        W42560  10.556  17.475  10.949 -0.0256  0.0101 -0.0656
25713W        W42561  17.249  13.144   2.551  0.2472  0.0071 -0.3508
25714W        W42562   9.156  12.696  16.612 -0.3110 -0.0657 -0.0684
25715W        W42563   3.850  14.147   5.793  0.0840  0.0902 -0.1921
25716W        W42564   6.420  12.041   2.034 -0.0261  0.1410 -0.1152
25717W        W42565  14.957  10.927   1.564  0.3330 -0.0970 -0.0493
25718W        W42566   7.517  15.388   1.944  0.0520 -0.1716  0.5344
25719W        W42567  12.014  10.548   3.223 -0.3005  0.2338 -0.1773
25720W        W42568   1.578   9.691  14.763 -0.1464 -0.3745  0.2801
25721W        W42569  13.282  12.150  15.475  0.1153 -0.0868 -0.2328
25722W        W42570  14.915  16.080   1.498 -0.0897  0.2282  0.1007
25723W        W42571   7.530  13.453  11.425 -0.1665  0.1949 -0.2269
25724W        W42572  15.578  16.373   6.312  0.0764 -0.0425 -0.2138
25725W        W42573  11.788  13.338  15.376 -0.4508 -0.0374 -0.0617
25726W        W42574  14.411   2.323  16.346  0.0003  0.2049 -0.0723
25727W        W42575   6.617  12.686  13.433 -0.1883 -0.2508 -0.0691
25728W        W42576  14.013   9.534  16.591  0.1649  0.1876 -0.1716
25729W        W42577   8.578  13.723  14.184 -0.0702  0.0909 -0.3703
25730W        W42578  15.073   1.927   5.789 -0.1693  0.1240 -0.0967
25731W        W42579  14.500  17.408   3.896 -0.1116 -0.1587  0.0512
25732W        W42580   6.861   5.843   0.132  0.1675 -0.1470  0.1520
25733W        W42581   2.312  14.788   2.574  0.0835 -0.0270  0.3420
25734W        W42582   9.860   5.293  11.426  0.1148  0.2156 -0.0837
25735W        W42583   0.897  10.835  13.719 -0.2794  0.5782 -0.1405
25736W        W42584   8.269   7.748   2.440 -0.1114  0.1304 -0.2377
25737W        W42585   9.708   4.902   3.930  0.0967 -0.0239 -0.0661
25738W        W42586   1.588   1.928  16.085  0.0329  0.1836 -0.1935
25739W        W42587  12.201   9.683   4.897 -0.1312 -0.1299  0.1093
25740W        W42588  15.830   9.878  12.402 -0.1067 -0.1254  0.0918
25741W        W42589  17.224  11.765  15.394 -0.0760  0.1172  0.1093
25742W        W42590  16.487  11.345   2.791 -0.2562 -0.0836 -0.2114
25743W        W42591  12.042  11.807   0.957  0.0246  0.1058  0.1008
25744W        W42592   4.959  14.457   3.108  0.1345  0.0566 -0.2044
25745W        W42593   8.967   1.734  15.843  0.2057  0.1308 -0.1254
25746W        W42594   2.314  14.341  11.549  0.1429  0.0315  0.3582
25747W        W42595  16.424   3.873   0.030 -0.1795  0.0853  0.1560
25748W        W42596  15.042   0.101   0.187  0.1230  0.1756 -0.3444
25749W        W42597  10.117   6.414   5.010  0.3330  0.0594  0.2969
25750W        W42598   5.368   5.651  11.870  0.0763 -0.0463 -0.1167
25751W        W42599   2.338  15.924  13.490 -0.2177  0.0874 -0.1567
25752W        W42600   2.268   5.571   3.956 -0.0221 -0.0395 -0.1904
25753W        W42601  15.150  12.902  11.953  0.1214 -0.0749  0.0147
25754W        W42602  15.379   8.632   1.979 -0.0632 -0.1038  0.2388
25755W        W42603   1.556  14.568  12.873  0.1294  0.0420 -0.0136
25756W        W42604   2.513   0.215   2.504 -0.1033 -0.0920 -0.1213
25757W        W42605   6.528  10.317   2.614  0.0254  0.2075  0.0996
25758W        W42606   1.881  13.414  15.339 -0.1326 -0.0970  0.0507
25759W        W42607   4.369  11.423  12.703 -0.1205 -0.3220 -0.1908
25760W        W42608   4.704   7.360   0.016 -0.1360 -0.1591  0.1084
25761W        W42609   4.492   0.444   3.530  0.2483  0.0648 -0.1033
25762W        W42610   4.139   4.218   2.431 -0.1570 -0.0864 -0.1352
25763W        W42611   9.678  10.697   2.488 -0.1065 -0.1188  0.0020
25764W        W42612  14.235   1.301   1.444  0.1640 -0.0901 -0.0320
25765W        W42613   3.344  13.183  15.572 -0.0887 -0.0589  0.2655
25766W        W42614   4.239  12.714   0.636 -0.0462  0.0825 -0.3819
25767W        W42615   3.405   4.177  15.893 -0.2098  0.0759 -0.0401
25768W        W42616   7.215  12.397   2.892  0.0100  0.1927  0.1133
25769W        W42617   9.719   2.201   4.625 -0.1166 -0.0466  0.0219
25770W        W42618   5.487   1.032  14.581  0.1514  0.0442 -0.1305
25771W        W42619   8.538  16.357   0.594 -0.1752  0.0300  0.2137
25772W        W42620  14.865  14.984  13.733 -0.0950 -0.3205 -0.3733
25773W        W42621   6.264   1.845   3.872 -0.0066 -0.1564  0.2145
25774W        W42622  10.926   7.159  15.128 -0.3222 -0.0059  0.1047
25775W        W42623   6.384  15.333   4.115  0.2435  0.0764 -0.1621
25776W        W42624   8.247  11.737   5.304 -0.1390 -0.2291  0.0600
25777W        W42625  11.607   3.286   3.090 -0.1958  0.1750  0.1178
25778W        W42626  13.746  15.441   1.337  0.0740  0.0596 -0.3980
25779W        W42627  13.484  12.852   1.820 -0.1508  0.0265  0.2640
25780W        W42628  17.852  12.494   2.148 -0.0155  0.1515 -0.1591
25781W        W42629   4.494   7.213   4.251  0.4786  0.1417  0.2518
25782W        W42630  11.904   3.282  15.523  0.0134  0.0789 -0.1372
25783W        W42631  13.267  10.336   3.847  0.2361 -0.0815 -0.0323
25784W        W42632  15.826   9.787   2.180 -0.0080  0.1880 -0.2254
25785W        W42633  12.475  13.133   5.457 -0.0294 -0.0665  0.0382
25786W        W42634  15.228   6.827  13.905 -0.2056  0.2887  0.2349
25787W        W42635   5.642   1.361  13.114 -0.0742  0.1474 -0.0775
25788W        W42636   2.001   7.054   3.044 -0.0551 -0.0232  0.1251
25789W        W42637  11.778   5.015  12.572 -0.1559  0.1097  0.2540
25790W        W42638  15.903   9.620  11.413 -0.2993  0.2630 -0.1679
25791W        W42639   5.490   0.514   0.695  0.0945  0.0564  0.1941
25792W        W42640   7.185   8.291  14.266 -0.0150 -0.3186 -0.2093
25793W        W42641   9.908   7.534  16.159  0.0622 -0.2923  0.0355
25794W        W42642   9.239  14.637   1.516 -0.1845  0.1781 -0.0940
25795W        W42643   1.939   7.693   0.135  0.0375 -0.0937 -0.2032
25796W        W42644   2.195  13.878  11.572  0.0083 -0.2635  0.0758
25797W        W42645  16.629  16.475  11.758  0.1734  0.0510  0.1333
25798W        W42646  15.821  12.675   3.719  0.0525  0.0558  0.1551
25799W        W42647  16.460   9.593  15.310 -0.1558  0.3511  0.3830
25800W        W42648   9.775   9.095   2.847  0.1033  0.0944 -0.2240
25801W        W42649  17.060   8.475  12.649  0.0530 -0.0471  0.0371
25802W        W42650  11.884   2.982   1.411 -0.2303 -0.1805  0.1255
25803W        W42651  11.820  15.886   0.369 -0.1889  0.0559  0.0553
25804W        W42652  14.609  11.376   4.550 -0.0340 -0.4558 -0.1572
25805W        W42653  10.093  17.133  15.996  0.0963  0.1797  0.0532
25806W        W42654  12.923   9.950  12.997 -0.0459  0.1314 -0.1564
25807W        W42655  14.853   3.690   4.129  0.0000  0.1696  0.0268
25808W        W42656   8.103  14.124   0.117 -0.0602  0.1966 -0.3592
25809W        W42657  14.667  17.810   2.080  0.2622 -0.2761 -0.1646
25810W        W42658   8.070   9.224  15.890 -0.0533 -0.1521 -0.1327
25811W        W42659  11.633   9.446  14.865  0.0168  0.0948  0.1416
25812W        W42660  10.330   6.716   2.059 -0.0327  0.1644 -0.1990
25813W        W42661  10.385   8.538   4.591 -0.4170  0.2829  0.3033
25814W        W42662  17.655   3.243  16.405  0.4804  0.4115 -0.1669
25815W        W42663   0.318  11.388  13.214 -0.1418  0.0483 -0.3088
25816W        W42664  10.019   8.061   2.892 -0.1078  0.2419 -0.2063
25817W        W42665   2.970  12.677   1.954 -0.1563  0.2917  0.0859
25818W        W42666   2.351   8.473   1.673 -0.1750 -0.0569  0.2837
25819W        W42667  16.317  11.641   1.254  0.1787  0.2039 -0.0234
25820W        W42668   4.236  17.806   0.096  0.1600 -0.5655 -0.2011
25821W        W42669  17.660  10.712   2.207  0.1385 -0.1435 -0.0785
25822W        W42670  15.166   5.203   2.204 -0.3176  0.3707 -0.2072
25823W        W42671  13.250  11.231   4.664  0.2031 -0.3247  0.0536
25824W        W42672  13.700  17.165   0.267 -0.3864  0.0115 -0.0806
25825W        W42673  13.178  11.707  13.787 -0.0086  0.2983  0.1692
25826W        W42674   4.982  14.900  12.542 -0.1540 -0.3831 -0.0192
25827W        W42675  11.070  10.644   3.745  0.3175 -0.0344 -0.1279
25828W        W42676   2.541  13.200  11.856  0.1028  0.0851 -0.2267
25829W        W42677   1.047  10.997   4.831  0.0491  0.0529  0.2172
25830W        W42678   0.590   7.191  15.062 -0.0568 -0.3261 -0.0976
25831W        W42679  14.333  14.748  14.467 -0.0475  0.0409  0.0590
25832W        W42680  11.125  12.436  14.647  0.1549  0.1189  0.0424
25833W        W42681   1.523  12.944   4.637  0.1163  0.2862 -0.1124
25834W        W42682  17.660  17.105   5.658 -0.0780 -0.4712 -0.3219
25835W        W42683  14.575   8.345   3.543  0.0580  0.0909 -0.0946
25836W        W42684  16.794   8.679   1.571 -0.4361  0.1275 -0.3075
25837W        W42685  14.484  11.601   3.368  0.0348  0.1164 -0.0332
25838W        W42686   3.590   5.825   1.288  0.2746 -0.3004 -0.0955
25839W        W42687   4.148   1.859   0.336 -0.1113  0.2661 -0.3876
25840W        W42688  13.139  15.904   4.097  0.2608  0.2052 -0.3369
25841W        W42689   7.801   3.074   2.103 -0.1368  0.0351  0.0201
25842W        W42690   9.847  17.098   0.332 -0.0373 -0.1145 -0.1462
25843W        W42691  14.637   2.933  12.453 -0.0333 -0.2549 -0.0410
25844W        W42692  15.937   7.620  11.465 -0.0464  0.3456  0.1841
25845W        W42693   8.368   3.585  11.998 -0.0287 -0.1126  0.0990
25846W        W42694  10.010   0.303   1.647 -0.1197 -0.0167  0.0024
25847W        W42695   8.007  11.180  13.181 -0.0149 -0.0221  0.0702
25848W        W42696   8.226   1.950  14.016  0.0035 -0.1708 -0.0435
25849W        W42697  15.513  15.444  15.981  0.1079 -0.0377 -0.2985
25850W        W42698  17.191   6.428  11.578 -0.3507  0.0532  0.1280
25851W        W42699   1.659  16.973   5.878 -0.1021  0.1820 -0.0200
25852W        W42700   9.501   6.443   4.535  0.1470 -0.0262  0.1043
25853W        W42701   7.434  13.446  15.107  0.2395 -0.1418  0.3030
25854W        W42702   9.278  13.627   1.228 -0.0330 -0.0968 -0.0411
25855W        W42703   4.235  16.473   2.442 -0.0596  0.1664 -0.5141
25856W        W42704  11.437   3.095  15.592  0.1991  0.1606 -0.2216
25857W        W42705   0.178   2.946  12.847 -0.1994  0.4235  0.0901
25858W        W42706  12.141  10.499   4.348 -0.1986  0.1944 -0.3123
25859W        W42707  13.813   9.634   2.784  0.4328 -0.2026 -0.3030
25860W        W42708   4.240  16.994  12.176  0.1675  0.0857  0.2501
25861W        W42709   2.747   7.093   4.881 -0.1473 -0.1586 -0.0136
25862W        W42710   8.510  15.637   3.438  0.0273  0.1360  0.0340
25863W        W42711   5.579  13.025  16.569 -0.0175 -0.5108 -0.2903
25864W        W42712  10.861  13.643   3.660 -0.4199  0.0215  0.1446
25865W        W42713   9.854   8.691  11.331 -0.1725 -0.3802  0.0449
25866W        W42714  13.192  13.920   3.800 -0.2344  0.2110  0.0136
25867W        W42715   3.996  14.238  11.839 -0.0519  0.3072  0.5439
25868W        W42716  16.988   8.215  14.853 -0.2884 -0.0402 -0.0920
25869W        W42717  12.167  16.268   4.852 -0.1050 -0.3567  0.3348
25870W        W42718   4.703  17.704   4.180 -0.1536 -0.1545  0.1358
25871W        W42719   1.397   4.576  12.310 -0.1952 -0.1214 -0.0369
25872W        W42720   7.251  10.448   4.246  0.0008  0.0978  0.3214
25873W        W42721  12.415  10.603   2.885 -0.0695  0.0413  0.2093
25874W        W42722   5.060   7.370   3.898  0.2099 -0.1297  0.3634
25875W        W42723  10.893  16.191  14.890 -0.0603 -0.0532 -0.0104
25876W        W42724   4.058  16.401   3.774  0.0774 -0.1027 -0.3774
25877W        W42725   7.660   0.699   2.766  0.1607  0.2821 -0.0569
25878W        W42726  12.168   1.132  15.387  0.0017  0.2245 -0.0404
25879W        W42727   7.318  15.788  15.121  0.2663  0.0526  0.4250
25880W        W42728  17.141   7.748  15.233  0.1126  0.2892  0.0531
25881W        W42729  16.218  13.768  15.390  0.1388 -0.1481 -0.0551
25882W        W42730  11.756  15.409  13.653  0.2326  0.1326 -0.1429
25883W        W42731   4.537  13.571   0.874  0.1462  0.3535  0.0509
25884W        W42732  16.828  12.604   3.950  0.0985  0.1958 -0.0718
25885W        W42733   8.894   2.107  16.334 -0.1639  0.1523 -0.0505
25886W        W42734  12.430   7.135   0.367 -0.1354  0.0615 -0.3180
25887W        W42735  17.672   3.050  15.956  0.1021 -0.0468 -0.0706
25888W        W42736   5.605  13.591  16.538  0.1129  0.1811 -0.0677
25889W        W42737   6.678   2.099   1.346 -0.3217 -0.3230  0.4665
25890W        W42738  10.440  15.289  14.495 -0.0923  0.0425 -0.2396
25891W        W42739  11.089   8.739  12.327  0.0808  0.3239  0.1908
25892W        W42740   9.838  11.949   4.916 -0.1215  0.0273  0.0740
25893W        W42741  14.900   3.751   2.735  0.1159 -0.1016 -0.2535
25894W        W42742   7.693  17.501  16.057 -0.1332  0.0068  0.0545
25895W        W42743   7.923   7.207  14.596  0.1450 -0.1857 -0.1640
25896W        W42744  16.594  13.216  10.719 -0.3717  0.1870  0.1910
25897W        W42745  12.275   7.594   1.133  0.0360  0.1744 -0.0288
25898W        W42746   6.264   9.797  14.511  0.0720  0.2765  0.0913
25899W        W42747   8.496   0.475   2.021 -0.0264 -0.0835  0.0822
25900W        W42748   0.839   5.530   1.242  0.2834  0.0233 -0.0068
25901W        W42749  13.071  11.333  13.409 -0.3024 -0.1164  0.0032
25902W        W42750   3.525   6.698  13.480 -0.1097  0.4480  0.1138
25903W        W42751   6.512   4.247   1.370 -0.0957 -0.0071  0.0711
25904W        W42752  14.035  13.239  14.458 -0.2685  0.1545  0.1510
25905W        W42753  11.168  15.874   2.741 -0.0091  0.1756 -0.1673
25906W        W42754  15.576  15.738   0.565 -0.0436 -0.0623  0.0321
25907W        W42755   3.533   8.910   2.196 -0.0062 -0.1904 -0.1853
25908W        W42756   3.508   5.519   1.720 -0.1054 -0.0907 -0.1309
25909W        W42757   6.019   0.596  13.874  0.3189  0.0309 -0.0935
25910W        W42758  16.655   4.753  11.428  0.1041  0.1505  0.2611
25911W        W42759  14.377   2.706  13.829  0.1364 -0.1138  0.0088
25912W        W42760   8.053   9.322   0.625  0.0520 -0.0619 -0.1768
25913W        W42761   8.280   8.936   4.521  0.1103 -0.2337  0.0317
25914W        W42762  10.802  16.579  15.745 -0.1309 -0.0586 -0.2134
25915W        W42763   4.159  17.364  13.706 -0.0461 -0.0894 -0.0477
25916W        W42764  15.045  13.253   0.099 -0.0002  0.2150 -0.1782
25917W        W42765  16.922  15.666   2.486 -0.0905  0.5043  0.1497
25918W        W42766   0.146   6.174  14.242  0.1327  0.0292  0.1884
25919W        W42767   1.962  16.999  13.109  0.1207  0.0477 -0.2618
25920W        W42768  15.209  17.429  14.433  0.0183 -0.2019  0.1716
25921W        W42769   7.710   1.819   2.877  0.0829  0.2359 -0.1058
25922W        W42770  14.796  10.208  15.214  0.0599 -0.1085 -0.1845
25923W        W42771  13.856  15.006   2.274  0.2100 -0.1685  0.1948
25924W        W42772   3.456   4.534   2.881 -0.0599 -0.1494 -0.2438
25925W        W42773   9.157  16.572  12.424  0.1062 -0.1467  0.1332
25926W        W42774   0.219   4.636  12.895 -0.0501  0.1129  0.0418
25927W        W42775   2.921  10.336  14.711 -0.0454 -0.0740 -0.2291
25928W        W42776  17.521  13.018  13.152 -0.0583  0.0732  0.4476
25929W        W42777   3.588   4.740  15.796  0.0774 -0.0441 -0.0348
25930W        W42778  13.095   5.687  15.807 -0.1030 -0.0151 -0.0419
25931W        W42779  12.956  17.317  15.506 -0.0795  0.0075  0.0318
25932W        W42780  13.937  16.280   0.708 -0.0357 -0.1816 -0.1533
25933W        W42781  14.479  13.880   3.293 -0.0367  0.4251 -0.1584
25934W        W42782   9.022  13.632   2.099  0.0172  0.0190  0.1080
25935W        W42783  12.596  13.032  14.719  0.1784 -0.3138 -0.1353
25936W        W42784   5.697   6.440  13.518  0.0405  0.0379  0.0172
25937W        W42785  15.860  17.068   1.805 -0.4938  0.0682 -0.1230
25938W        W42786   5.710   7.166   4.889  0.1157  0.1035  0.2399
25939W        W42787   9.358   2.126  16.043 -0.2426  0.0074 -0.0595
25940W        W42788  13.232  12.970  12.756 -0.1195 -0.0803 -0.0713
25941W        W42789   4.287   5.103   3.507 -0.0389 -0.0829 -0.0193
25942W        W42790  16.163  12.983  12.048 -0.0310  0.1796 -0.2530
25943W        W42791   6.022  17.234  14.688  0.4783 -0.0437  0.2067
25944W        W42792  10.425  17.181   3.495  0.4377 -0.1494  0.3239
25945W        W42793  11.513  12.574  11.993  0.1959  0.1783  0.1912
25946W        W42794  11.471   1.787  14.259  0.2678 -0.3211 -0.1611
25947W        W42795  13.769  16.211  13.743  0.1400  0.0641  0.2079
25948W        W42796  11.012  12.608   3.860 -0.0010  0.0063 -0.0898
25949W        W42797   5.624   0.147  13.113  0.0081  0.0098 -0.3158
25950W        W42798  11.149  17.755  14.144 -0.0909 -0.1453  0.0696
25951W        W42799   7.905  14.169   0.597 -0.2147  0.1008  0.2892
25952W        W42800   8.713  14.475   0.831 -0.1691  0.4342 -0.1043
25953W        W42801  12.029  16.111   0.776 -0.0271 -0.1765 -0.1304
25954W        W42802   0.351  10.988   4.246  0.1169  0.1254 -0.1466
25955W        W42803   1.993   7.428   4.365  0.0656  0.0862 -0.0063
25956W        W42804   3.833   3.298  11.126 -0.2170 -0.0154  0.1587
25957W        W42805   1.165  14.082   1.311 -0.1963 -0.0067  0.0558
25958W        W42806  17.254  10.053   1.995 -0.0120 -0.2779 -0.0000
25959W        W42807   2.108  16.987  16.598 -0.2615  0.1076 -0.3786
25960W        W42808  11.954   2.725  12.521 -0.0859  0.1777  0.2378
25961W        W42809   7.780  15.272  11.712 -0.1129 -0.0786  0.2248
25962W        W42810   9.107  15.670  11.517 -0.1785  0.2790 -0.0562
25963W        W42811  12.806   5.437  13.528 -0.1751  0.1484  0.1516
25964W        W42812  12.497  15.585   4.980 -0.3008  0.0852 -0.0719
25965W        W42813  15.025   8.516   0.208  0.0095  0.2011 -0.0764
25966W        W42814   0.145  14.399   3.627 -0.2706 -0.1275  0.0555
25967W        W42815   1.309   2.619   0.067 -0.1170 -0.0893 -0.0676
25968W        W42816   8.164  11.872   1.302  0.1293  0.0623 -0.1506
25969W        W42817   4.990   9.057   2.488 -0.1367  0.2713 -0.0462
25970W        W42818   1.820   0.844   0.385 -0.0607 -0.1923  0.0102
25971W        W42819  13.401  14.823   4.357 -0.1113 -0.1626 -0.0766
25972W        W42820   9.728  17.602   2.449  0.0639 -0.0753  0.1898
25973W        W42821  13.982   3.370   0.419 -0.0988 -0.1856 -0.0016
25974W        W42822  11.977   3.120   3.807  0.2585  0.2766 -0.2273
25975W        W42823  14.670   6.426  13.210  0.1658 -0.0626  0.0069
25976W        W42824   6.064   9.833  11.873 -0.0907  0.2265  0.0061
25977W        W42825  17.754   5.647  15.342 -0.0603  0.0583 -0.3232
25978W        W42826  11.978   6.839   3.457  0.2835  0.1664 -0.1915
25979W        W42827   7.316   7.294   3.093  0.0882 -0.1739 -0.0897
25980W        W42828  15.873  16.768  13.044  0.2743 -0.1531  0.0231
25981W        W42829  10.368   2.151   1.903 -0.0218  0.1057  0.1230
25982W        W42830   9.347  10.809  11.241  0.1624 -0.0461  0.2089
25983W        W42831   8.164  15.054   4.681 -0.0860 -0.0518  0.1152
25984W        W42832  12.662   4.992  11.629  0.1888  0.1380  0.1835
25985W        W42833  16.669  17.227   0.523  0.2018  0.1397  0.3000
25986W        W42834  17.086   3.459   4.088  0.0343  0.3634 -0.2034
25987W        W42835   1.980  14.668  16.021  0.3193  0.2285 -0.0188
25988W        W42836  13.843  16.673  13.294 -0.0359 -0.1578 -0.0938
25989W        W42837  16.644   2.907  12.899  0.0064  0.0127 -0.3147
25990W        W42838   7.107  12.613   1.948  0.1758 -0.4706  0.1428
25991W        W42839   3.944  10.042  15.026  0.3276  0.2705  0.0206
25992W        W42840   2.667   6.847  11.565 -0.1323  0.2317  0.0671
25993W        W42841   6.926   7.633  14.829 -0.1252  0.0335  0.0759
25994W        W42842   5.770   0.738  11.821 -0.2107 -0.0801  0.0150
25995W        W42843   2.326   0.937  11.439 -0.1469  0.2496  0.0098
25996W        W42844  11.735  10.821  12.249 -0.2049 -0.0615 -0.1130
25997W        W42845   7.401  12.339   1.657 -0.0975  0.3408  0.3779
25998W        W42846  12.356   8.258  12.837  0.1211 -0.1864  0.1270
25999W        W42847   0.451  15.080  12.756 -0.2656 -0.1951  0.0269
26000W        W42848  15.901   0.661  12.931 -0.0100  0.2860 -0.0303
26001W        W42849  10.970  16.364   1.883  0.2064 -0.3251 -0.2093
26002W        W42850  17.706  16.040   4.207  0.1968 -0.0911 -0.1267
26003W        W42851   3.645  12.008   1.096  0.1059 -0.0933 -0.2010
26004W        W42852   1.142   9.123  15.792  0.3135 -0.3074  0.3742
26005W        W42853   0.566  17.427   0.780  0.2699 -0.1191 -0.3049
26006W        W42854   0.423  12.759  12.700 -0.0714  0.0545  0.1403
26007W        W42855  14.375   2.476   0.589  0.1212 -0.2258 -0.0239
26008W        W42856   2.089  17.211   4.152 -0.0365  0.1818  0.1146
26009W        W42857   7.631  13.841  12.760 -0.0715  0.0154 -0.2585
26010W        W42858   0.862  13.462   4.466 -0.0247 -0.2333 -0.2274
26011W        W42859  10.973   8.067   1.524  0.0452  0.2710  0.3811
26012W        W42860   4.862   2.676  14.456  0.6020  0.4814  0.2313
26013W        W42861  13.534   1.590  15.995  0.0813  0.1502 -0.1256
26014W        W42862   4.578  15.999  12.396 -0.0610  0.1358 -0.0809
26015W        W42863  17.579   9.000   5.248  0.2514  0.1355 -0.5993
26016W        W42864   2.431  14.927  12.686 -0.0002  0.0258 -0.4029
26017W        W42865   8.289  11.843  13.853  0.0260  0.0100  0.1895
26018W        W42866   2.966  10.020  12.414 -0.0342  0.0682  0.0000
26019W        W42867  15.713   8.397   2.652  0.1579 -0.1385  0.2635
26020W        W42868   3.403   7.041   2.940  0.0490  0.0591 -0.1855
26021W        W42869   4.227   4.338   5.617  0.3534  0.0547 -0.1447
26022W        W42870  16.443  17.623  11.970 -0.0929  0.0624 -0.3590
26023W        W42871  15.300  14.511  12.625  0.0640  0.1640  0.0383
26024W        W42872   4.866   0.351  15.861  0.1753  0.1012 -0.0822
26025W        W42873   8.143  11.517  14.827 -0.2318  0.0519 -0.0086
26026W        W42874  12.741   9.327  14.297  0.1346  0.0644  0.0250
26027W        W42875  13.970  13.442  12.679  0.0032  0.4154 -0.2612
26028W        W42876   7.777   3.905   2.848 -0.0482 -0.1670  0.0023
26029W        W42877   3.649  16.886   5.550 -0.0518  0.1266 -0.0654
26030W        W42878  16.521   9.026  12.486 -0.1634  0.1648  0.0061
26031W        W42879   7.814   2.771  12.322  0.0600 -0.1396  0.2836
26032W        W42880  15.360  13.134   2.033 -0.2754  0.0053  0.1707
26033W        W42881   2.475  15.650   2.522 -0.0446 -0.0331  0.1031
26034W        W42882   3.883   8.360  11.716 -0.1617  0.0827 -0.2091
26035W        W42883  11.453  16.001  15.110 -0.0859 -0.0131  0.2101
26036W        W42884  17.109  14.001   1.284 -0.1217 -0.1604 -0.0255
26037W        W42885  12.387   3.786   4.918  0.1208  0.0627 -0.1456
26038W        W42886  15.353   1.691  13.635  0.1081  0.0519 -0.1380
26039W        W42887  14.598  15.083  11.798 -0.0564 -0.3050 -0.2575
26040W        W42888  17.324   2.901   1.883  0.0380 -0.0334  0.2455
26041W        W42889  13.437   2.051   3.654  0.1015  0.1144  0.3564
26042W        W42890  12.971   3.078  16.624 -0.1197 -0.2325 -0.0030
26043W        W42891   4.211  10.567   4.904 -0.0763  0.0544 -0.3533
26044W        W42892  10.198  10.573   1.959 -0.0975  0.1042 -0.1342
26045W        W42893   7.148  13.104   1.887  0.0085  0.1406 -0.0502
26046W        W42894  11.220  14.315   0.390 -0.3620  0.0888  0.3866
26047W        W42895  14.862   2.620   3.254  0.1483 -0.0601  0.0780
26048W        W42896   1.558   9.800  11.290 -0.1692 -0.1674 -0.0969
26049W        W42897   6.262  13.077   2.916  0.0293  0.1937 -0.0441
26050W        W42898  13.926   1.210   1.897  0.0555 -0.0553 -0.0827
26051W        W42899  17.766   5.187  16.133 -0.0510 -0.1232  0.1669
26052W        W42900   3.910   7.712  16.178 -0.0343 -0.1976 -0.2253
26053W        W42901  13.144  16.352  12.795 -0.0934 -0.0544  0.1574
26054W        W42902   9.043   7.588  15.743  0.0127 -0.1032  0.2045
26055W        W42903   4.970   8.041   4.440  0.1478 -0.0035 -0.0635
26056W        W42904  11.467  17.266   4.224  0.0033  0.0228  0.0806
26057W        W42905  10.051  13.924  14.649 -0.0867  0.0257  0.1303
26058W        W42906   7.108  11.683   2.216  0.1533  0.1098  0.0549
26059W        W42907  15.379   8.841   3.420  0.1258  0.0217  0.0918
26060W        W42908   0.448  16.974   2.905  0.1714  0.0272 -0.1190
26061W        W42909   1.550  11.983  15.498 -0.1741  0.0685 -0.2124
26062W        W42910   1.277   2.423  13.164 -0.1620 -0.0462 -0.1238
26063W        W42911   2.747  15.332   5.725 -0.4121  0.2706 -0.0441
26064W        W42912  15.008   2.958  15.774  0.1199 -0.1243  0.4535
26065W        W42913   8.412   3.800   2.177  0.2698 -0.0240 -0.1248
26066W        W42914   3.803  15.642  16.080 -0.1349  0.2689 -0.1684
26067W        W42915  12.167   7.943   1.879  0.1680  0.2049  0.2261
26068W        W42916  10.667   5.967  13.500 -0.2317 -0.0669  0.1101
26069W        W42917   3.431   6.345   4.714 -0.0571 -0.0584  0.1543
26070W        W42918  13.945   6.379   2.473  0.1001 -0.1870  0.1909
26071W        W42919  11.566   0.517   4.007 -0.2855  0.0908 -0.0834
26072W        W42920   7.556   9.007   0.538  0.1138 -0.1826 -0.0533
26073W        W42921   9.194  14.219  11.531  0.1364  0.0061  0.0281
26074W        W42922   7.400   3.445   4.434 -0.0026 -0.1232  0.0520
26075W        W42923  10.408  15.880   1.267 -0.1017 -0.1940  0.3043
26076W        W42924   9.567   6.951  15.494 -0.2195  0.1913  0.1443
26077W        W42925   9.188   6.714   4.997  0.2125 -0.1059 -0.0086
26078W        W42926  12.595   8.406   5.400  0.0368 -0.1136  0.0131
26079W        W42927   6.274   3.454  13.840 -0.0301 -0.3269  0.4701
26080W        W42928   1.989  10.612   4.527  0.0112  0.2588  0.3894
26081W        W42929   9.485   4.257   1.426  0.0443  0.0184 -0.1927
26082W        W42930  11.858   6.865  12.268  0.2422 -0.1898  0.1180
26083W        W42931   7.645  10.516   4.627  0.1007 -0.0184  0.0152
26084W        W42932   4.789   7.018   2.729  0.0970 -0.2050  0.3248
26085W        W42933  11.245  11.054   0.014  0.1002 -0.1402  0.2029
26086W        W42934  16.385  14.006   4.680 -0.3103  0.2295 -0.0245
26087W        W42935   5.984   4.008   2.792  0.0259 -0.0638  0.3044
26088W        W42936   8.319  10.957  12.025 -0.3874  0.2780  0.1341
26089W        W42937   6.001  10.215  14.636  0.0630  0.1719 -0.0951
26090W        W42938  17.416  10.249   4.108  0.0089  0.1133 -0.2120
26091W        W42939  15.702  17.299   1.404 -0.0824  0.1627  0.2681
26092W        W42940  10.700   4.890   1.098  0.2957 -0.0871  0.4297
26093W        W42941   9.300   6.419  13.226 -0.0790  0.3241 -0.0225
26094W        W42942   9.041   6.439   3.533 -0.2917 -0.2524  0.2180
26095W        W42943  16.334   3.474  14.646  0.0418  0.1196  0.3568
26096W        W42944   2.659   5.147   1.443 -0.2290 -0.0327 -0.0163
26097W        W42945  10.377   1.057   0.427  0.0205 -0.2842 -0.3016
26098W        W42946  10.565   8.951   4.770  0.2213  0.0686  0.0674
26099W        W42947   1.436   5.115  12.410 -0.0300 -0.1260  0.2095
26100W        W42948  12.471   9.825   2.358  0.2294 -0.2115 -0.3151
26101W        W42949  17.699  11.358  16.155 -0.1154  0.1376  0.1063
26102W        W42950   3.334   4.970  15.393  0.1371 -0.3450  0.4193
26103W        W42951   0.695   0.987   1.702 -0.0770 -0.1067 -0.2131
26104W        W42952  13.807   0.724   0.250  0.0154  0.3147 -0.1017
26105W        W42953  10.571   8.394  11.967  0.2263  0.3675  0.0316
26106W        W42954  10.521   5.553  13.887 -0.1014 -0.0938  0.0702
26107W        W42955  16.621  17.640  12.771  0.1640  0.1603  0.1954
26108W        W42956   6.808  12.490  12.018 -0.2219 -0.0294  0.1256
26109W        W42957   2.455   5.138   0.956  0.0069 -0.1840  0.0325
26110W        W42958  14.346  16.561  13.308 -0.2714  0.1433  0.0335
26111W        W42959  12.391   8.875   3.271  0.0758 -0.1855 -0.0517
26112W        W42960   4.485   4.596  11.413 -0.1196  0.0700  0.1721
26113W        W42961  14.112  14.527   5.129  0.1357 -0.1865  0.0258
26114W        W42962   3.488   7.976  10.891  0.2161 -0.1898 -0.0732
26115W        W42963  10.870   4.005  14.498 -0.1752  0.0228 -0.0923
26116W        W42964   5.010  15.696   5.406 -0.2707  0.1696 -0.1228
26117W        W42965   0.726   9.206  14.044 -0.1053  0.0538  0.1541
26118W        W42966   7.015   0.942  16.466 -0.3689  0.3717  0.1496
26119W        W42967  17.739   2.578   5.201 -0.0854 -0.3119 -0.0772
26120W        W42968   4.715   2.061  12.593 -0.1638  0.0706  0.1030
26121W        W42969  17.557  16.873   4.265  0.2403 -0.0233  0.1379
26122W        W42970   3.526   3.807   3.914 -0.0636  0.0222 -0.0723
26123W        W42971  14.809   7.413   1.979 -0.2687 -0.0932 -0.0972
26124W        W42972  16.158   0.969   5.083  0.1005  0.0922 -0.1427
26125W        W42973  13.472   5.450   1.714  0.1236  0.2429  0.1192
26126W        W42974  14.011  11.889   5.039 -0.3304  0.1752 -0.1987
26127W        W42975  15.147  11.674  14.338 -0.2806 -0.0042  0.0289
26128W        W42976  13.825   6.479  16.239  0.0094  0.1532  0.2531
26129W        W42977  16.284   5.696   1.109  0.2303  0.0147  0.1067
26130W        W42978   4.774   5.753  14.294  0.0076  0.2217 -0.3362
26131W        W42979   7.895   2.902  11.298 -0.0148  0.0602  0.1134
26132W        W42980  15.531  11.457  15.191  0.1984 -0.1064 -0.2697
26133W        W42981  11.888  12.211   4.360 -0.3482  0.1101 -0.2059
26134W        W42982  11.007  10.451   4.296  0.0047  0.4067 -0.2560
26135W        W42983   2.834   9.710   2.552 -0.2218  0.0535 -0.1705
26136W        W42984  12.607   3.617   3.551 -0.1619 -0.5475  0.1492
26137W        W42985   1.772  16.565   1.614  0.2247 -0.0645  0.1890
26138W        W42986   1.957   1.316   0.860  0.1731 -0.0223  0.0078
26139W        W42987  17.201   4.901  16.419 -0.2965  0.2711  0.2504
26140W        W42988  16.870  11.015   0.075 -0.1135 -0.0274 -0.2317
26141W        W42989   4.886  15.132   0.304  0.1827 -0.2616  0.2999
26142W        W42990   5.686   5.674   2.239 -0.0616 -0.3410 -0.4037
26143W        W42991  10.762  14.878  15.904  0.0320  0.0900  0.2555
26144W        W42992   0.759   2.649  11.739  0.1721 -0.1003 -0.1266
26145W        W42993  10.492  14.087  15.442 -0.2835 -0.0519 -0.1916
26146W        W42994  14.867   7.536   4.900 -0.0096  0.2808  0.2410
26147W        W42995  14.551   9.486  15.879  0.0028 -0.0337 -0.1709
26148W        W42996   9.795   3.031   5.114  0.0312 -0.1047  0.0673
26149W        W42997  12.465  11.557   5.515 -0.2061  0.1155  0.1421
26150W        W42998  10.274   9.839  10.986  0.0922 -0.0866  0.2359
26151W        W42999  13.368  12.804   2.593 -0.0773 -0.1577  0.0219
26152W        W43000   4.627  17.168  14.543  0.3514  0.1943 -0.0742
26153W        W43001   6.242  10.874  15.947  0.2138 -0.1564 -0.3102
26154W        W43002   8.720   4.494  13.794 -0.4051 -0.0529  0.3346
26155W        W43003   7.256  10.618   0.969  0.2337  0.0958 -0.2450
26156W        W43004   1.961   5.666  14.211  0.0602 -0.1203  0.3880
26157W        W43005   2.970  15.818  15.610 -0.0175  0.1115 -0.0773
26158W        W43006   9.746  17.714  11.752  0.0763  0.0649  0.3286
26159W        W43007  13.694   1.623   4.397 -0.0759 -0.0625  0.1243
26160W        W43008   4.118   5.791   0.155 -0.2552  0.1602 -0.1137
26161W        W43009   4.393   8.731  13.307  0.1046  0.1203 -0.0471
26162W        W43010   5.007   3.572   0.517 -0.0587 -0.1215 -0.0157
26163W        W43011  16.482   3.376  12.712  0.1035  0.0541 -0.3674
26164W        W43012  16.049   7.588  12.736  0.5492 -0.0087 -0.0499
26165W        W43013   5.201  13.385  15.663  0.1085  0.1378  0.0168
26166W        W43014   4.426   4.389   0.415  0.1885  0.2653  0.0559
26167W        W43015   4.154  15.891  16.433  0.1623 -0.0409  0.1813
26168W        W43016   6.103  10.929  12.645 -0.2876  0.2276  0.3357
26169W        W43017   2.767  16.448   2.329  0.0934  0.3473 -0.1208
26170W        W43018  11.435   0.859  11.739 -0.2363 -0.2129 -0.0831
26171W        W43019  15.591  16.804  15.684 -0.2857  0.0363 -0.5382
26172W        W43020   7.394   8.890   2.714 -0.0912 -0.1107  0.0277
26173W        W43021   8.735   2.291   2.228  0.1162 -0.3001 -0.0575
26174W        W43022  15.777   1.390   2.555 -0.2062  0.0468  0.1023
26175W        W43023   1.786   8.755   0.319  0.1276 -0.1769 -0.0332
26176W        W43024   9.877   0.814  14.871  0.4066  0.0613 -0.3519
26177W        W43025   9.735  12.497   4.747  0.1546  0.0675 -0.0274
26178W        W43026   2.279   2.055   2.385 -0.1126 -0.0455 -0.3194
26179W        W43027  16.570   9.529  15.884 -0.2246  0.0577 -0.0410
26180W        W43028   1.818   2.941   2.727 -0.2136  0.0202  0.2216
26181W        W43029  12.647   4.172  10.539  0.3342  0.0048  0.2807
26182W        W43030  10.471  13.598  13.351  0.1653 -0.0092 -0.0321
26183W        W43031  10.576   1.785  13.939  0.2558 -0.2189  0.3992
26184W        W43032   1.832  16.598  12.203  0.1034  0.0168  0.0840
26185W        W43033   7.482   7.560   1.009  0.2303 -0.1120  0.2113
26186W        W43034   0.072  16.094   3.274 -0.1356  0.0732 -0.0689
26187W        W43035   6.639  13.169  13.220  0.0057  0.1929 -0.0205
26188W        W43036  17.227  12.833   3.603 -0.1835 -0.0247  0.0340
26189W        W43037   0.868   1.474   3.056  0.0974  0.1107  0.2036
26190W        W43038  10.871  16.670  15.243 -0.1148  0.0140 -0.1482
26191W        W43039  15.955  11.091  12.980 -0.1096  0.2273  0.1976
26192W        W43040  11.477  10.243   6.088 -0.1541  0.0270 -0.4784
26193W        W43041  11.823   2.038  16.474  0.1097  0.1199 -0.1863
26194W        W43042   2.988  11.710   1.366  0.1484 -0.0323  0.1621
26195W        W43043   4.370  14.378  15.211 -0.1362  0.2011  0.4411
26196W        W43044  13.973   5.024  12.919  0.3675 -0.0346 -0.2505
26197W        W43045   9.410  14.122  15.508  0.3230 -0.1718 -0.1278
26198W        W43046   1.780   8.996  11.614 -0.0501  0.0354 -0.0800
26199W        W43047   3.683   8.560  16.342  0.1702  0.0391  0.3601
26200W        W43048   5.294  14.949   0.783 -0.0197 -0.1280  0.2650
26201W        W43049   6.204  12.682  13.810  0.1234  0.2852 -0.1410
26202W        W43050   3.855  17.020   1.483  0.3248  0.0882  0.0335
26203W        W43051   5.423   8.047   1.860 -0.3364 -0.1765 -0.0459
26204W        W43052  17.590  12.175   3.989  0.1048  0.0416  0.0190
26205W        W43053   0.314  17.298  15.288  0.2408  0.3301  0.2074
26206W        W43054  16.256   6.937  12.358  0.1249 -0.0411  0.0181
26207W        W43055  16.450   0.225  11.792  0.1379 -0.0752  0.1579
26208W        W43056   2.541  17.382   0.529 -0.0875 -0.2051 -0.1935
26209W        W43057   1.278   8.451   3.215 -0.2146  0.1280  0.1679
26210W        W43058   7.436  12.534  14.565 -0.1689 -0.2167  0.0236
26211W        W43059  10.921   7.921  16.167  0.1676 -0.2099 -0.0882
26212W        W43060   3.832  10.909   4.762  0.1763 -0.0653 -0.0390
26213W        W43061  13.745   6.099   0.715 -0.0536 -0.1644  0.0730
26214W        W43062  12.183   4.137   5.211 -0.2198  0.1012 -0.1855
26215W        W43063   8.998   7.716   3.450  0.1756  0.0865 -0.1074
26216W        W43064   2.728  11.235   3.285  0.0973  0.3537 -0.2027
26217W        W43065   3.968  11.322  13.958  0.0038  0.1081 -0.4236
26218W        W43066  14.748  13.037  16.335  0.2392  0.0486 -0.1262
26219W        W43067   5.330  10.773   0.684 -0.1054  0.2081 -0.0278
26220W        W43068  14.427   4.032   1.961 -0.1234  0.1765  0.0313
26221W        W43069  17.010  10.547  14.483 -0.1953  0.1256  0.0580
26222W        W43070  15.997   7.123   2.996  0.0814 -0.1322  0.0030
26223W        W43071  17.576   3.519  13.625  0.1743  0.2955 -0.1463
26224W        W43072   3.234   7.410   0.672  0.3373  0.0812 -0.1389
26225W        W43073   4.025  10.467  13.713  0.0547 -0.0569 -0.1230
26226W        W43074  12.388  10.001  15.860  0.0224  0.3877  0.1033
26227W        W43075   1.392   8.876   4.760 -0.1483  0.3863  0.1070
26228W        W43076  11.443   9.688  12.998  0.0928 -0.3709 -0.1288
26229W        W43077   8.760   4.380  15.744  0.0939  0.0564  0.0146
26230W        W43078  15.473   9.659   2.934  0.0225 -0.0323  0.0100
26231W        W43079   9.097  11.149   0.527  0.0619  0.0139  0.0680
26232W        W43080   8.080  11.203  11.532 -0.1972  0.1974  0.2671
26233W        W43081   5.371   1.220   4.820  0.1256  0.0061 -0.3325
26234W        W43082   6.314   7.359   1.555  0.2318 -0.1275 -0.0740
26235W        W43083  15.118  15.795   0.722  0.0165  0.0791 -0.2388
26236W        W43084  10.528   4.545  15.761 -0.2803  0.1029  0.1399
26237W        W43085  10.263  15.239   1.167  0.1062  0.0868 -0.0016
26238W        W43086   9.638  16.154  13.517  0.0446  0.0431  0.1636
26239W        W43087   2.387   3.731  12.092  0.0119 -0.2931 -0.1279
26240W        W43088   3.099  16.100  12.405  0.0006  0.2805 -0.0712
26241W        W43089  11.262   6.517   4.043 -0.0681 -0.1370 -0.5560
26242W        W43090  14.623   3.840  15.329  0.1174 -0.2963  0.1454
26243W        W43091  17.535  10.270   0.101 -0.1080 -0.0854  0.2806
26244W        W43092   5.814  10.412   5.065 -0.0139 -0.0088 -0.1130
26245W        W43093  10.214   5.348  16.121  0.0824 -0.0602 -0.1726
26246W        W43094   0.445   1.203  15.112 -0.1156  0.2566  0.1889
26247W        W43095   6.638  14.736  12.537  0.0975  0.3831 -0.2155
26248W        W43096  14.338   7.715  12.635 -0.0196 -0.4207 -0.1282
26249W        W43097   8.948   8.457  13.320  0.2380  0.1192  0.0570
26250W        W43098   6.782   2.880  13.277 -0.1292  0.0804 -0.1691
26251W        W43099   4.308  14.702   0.726 -0.2785 -0.0897  0.0869
26252W        W43100  17.737   3.718   4.595  0.0203  0.0827  0.1123
26253W        W43101  13.323   8.099  11.799 -0.0499 -0.2532 -0.2781
26254W        W43102  16.302   0.167   4.706 -0.3182  0.0385  0.1347
26255W        W43103   7.953  10.391  13.814  0.0936  0.0384 -0.1906
26256W        W43104  14.860   1.568   0.198 -0.2332  0.2218  0.1694
26257W        W43105   0.981  13.737   0.280  0.0206  0.3126 -0.1419
26258W        W43106  17.513   0.894   1.719  0.0810  0.0486 -0.0210
26259W        W43107  17.385  15.828  15.167  0.0093  0.0985 -0.1828
26260W        W43108   2.393   0.672  14.149 -0.0907 -0.0609  0.0643
26261W        W43109   5.383  15.372  12.702  0.0549 -0.2015 -0.1735
26262W        W43110  12.786  14.547   1.153 -0.0603  0.0266  0.0813
26263W        W43111  16.906   8.546  14.171  0.3555  0.3877  0.0542
26264W        W43112  12.189   6.681   2.855  0.2070 -0.1092 -0.0799
26265W        W43113   7.303   0.373   2.933 -0.0049  0.1705  0.2487
26266W        W43114  11.473   3.014   4.039 -0.3157  0.0491 -0.1796
26267W        W43115   1.371   3.281   1.229 -0.4024  0.2863  0.0012
26268W        W43116  12.110   6.238   0.726  0.0238  0.1147  0.0130
26269W        W43117  14.094  10.028   3.030 -0.2737  0.2868  0.1395
26270W        W43118   5.130   3.325  15.153 -0.1255 -0.2584 -0.2139
26271W        W43119   7.762   5.725  16.359 -0.0246  0.4254  0.4965
26272W        W43120  15.067  17.546   0.968  0.0265 -0.0262 -0.1909
26273W        W43121  13.292   7.830  14.908 -0.1924 -0.0753  0.2763
26274W        W43122   7.084  12.670   0.369 -0.0051 -0.0078 -0.0039
26275W        W43123   8.143   3.067   0.281  0.2269 -0.3845  0.1001
26276W        W43124   7.396   3.695  14.780  0.2067 -0.0060 -0.0338
26277W        W43125  16.181   2.040  15.990 -0.1737  0.2357 -0.0812
26278W        W43126  12.003   4.285   3.168  0.1808 -0.0475  0.0556
26279W        W43127   0.150  16.825  12.083  0.1905 -0.0836  0.0316
26280W        W43128  13.786   9.113  11.934  0.1812  0.2359 -0.1427
26281W        W43129   9.463  12.758  14.538  0.1159  0.1236 -0.1574
26282W        W43130   1.651  16.629  13.987 -0.1927 -0.2746 -0.0474
26283W        W43131   9.671   0.085  12.181 -0.3209  0.6075 -0.0366
26284W        W43132   7.417   1.076  13.370  0.0332  0.0183 -0.2300
26285W        W43133  13.445  14.252   2.039 -0.1011  0.0368  0.1787
26286W        W43134  16.528   7.911   2.227  0.3328  0.0428 -0.1355
26287W        W43135  15.196  10.122   6.242 -0.0333 -0.0090 -0.2364
26288W        W43136  17.396   4.426   3.663  0.0570 -0.1870  0.1171
26289W        W43137   4.510   8.157   1.339  0.3124 -0.1390  0.1956
26290W        W43138  10.402   1.649   1.254 -0.1891  0.1677 -0.2468
26291W        W43139  11.627  13.064   2.097 -0.1633 -0.1857 -0.0886
26292W        W43140  10.360   1.142  16.545  0.1987 -0.0905 -0.2028
26293W        W43141   6.425  10.367   2.085  0.0433  0.0704 -0.0049
26294W        W43142   6.702   1.651   4.362 -0.1064 -0.1314 -0.0397
26295W        W43143   5.161   1.274   2.381  0.0374  0.1095  0.1117
26296W        W43144  17.568   0.969   0.153 -0.0926 -0.0098  0.2475
26297W        W43145   9.998  10.379  14.389  0.0596  0.0326 -0.1114
26298W        W43146   2.578  17.632   2.231  0.0414  0.1678 -0.1393
26299W        W43147   6.594  15.297  12.443 -0.0654  0.1678 -0.0864
26300W        W43148   6.633   5.471  14.662  0.0845  0.1086  0.1620
26301W        W43149  14.923   3.830  12.590  0.2778 -0.1875 -0.1228
26302W        W43150  17.626   5.590   3.233 -0.0437 -0.3314  0.1754
26303W        W43151  16.005  13.787  12.653 -0.1170 -0.0609  0.1734
26304W        W43152  17.396   4.319  14.190 -0.0083  0.1097  0.0497
26305W        W43153   3.043   1.126  16.430  0.1193 -0.0275 -0.1669
26306W        W43154  10.848   0.697  16.311  0.0443  0.1325  0.0030
26307W        W43155   4.144  13.323   1.698 -0.3721 -0.1397  0.1907
26308W        W43156   7.118  12.383  13.502  0.3009  0.0546  0.1709
26309W        W43157   7.014   7.930  15.624 -0.2202 -0.1126 -0.0493
26310W        W43158  12.289   9.722  16.212  0.0469  0.0164  0.0687
26311W        W43159  17.714  15.818   4.698 -0.0146  0.0331 -0.2925
26312W        W43160  17.551  10.513   2.991 -0.0235 -0.1746 -0.4141
26313W        W43161   3.515   6.550   0.176  0.3709 -0.1806  0.0019
26314W        W43162  16.955  15.823  16.210  0.0022  0.1262  0.1971
26315W        W43163   7.481   5.285  12.867 -0.2881 -0.1428 -0.2547
26316W        W43164   5.978  16.964  12.017 -0.0676  0.0294 -0.0382
26317W        W43165   0.303   6.429   4.565  0.1538  0.2014 -0.1649
26318W        W43166   7.381  14.121  13.702 -0.0211 -0.4530  0.1897
26319W        W43167   1.035  12.706  13.240  0.2454  0.0182 -0.1108
26320W        W43168   7.728   7.989   1.235 -0.0493 -0.0698  0.1387
26321W        W43169  16.098   2.484  13.542  0.0865 -0.1183  0.2438
26322W        W43170   5.265  13.306   5.128 -0.0056 -0.2370  0.2260
26323W        W43171  10.997  14.161   3.537 -0.2142  0.1981  0.3006
26324W        W43172   6.139   8.125  15.601 -0.0899  0.2064 -0.3607
26325W        W43173  15.354   6.127   0.761  0.0549  0.0347  0.0944
26326W        W43174   4.209   5.160   2.020 -0.3841  0.1331 -0.0308
26327W        W43175  11.280   7.076   3.933 -0.1847  0.1437 -0.1302
26328W        W43176   6.415   1.044   2.738  0.0901 -0.1289  0.1027
26329W        W43177   3.986  15.366  13.601  0.2263  0.0793 -0.2145
26330W        W43178  10.473  15.871  12.396 -0.2195 -0.2386  0.1146
26331W        W43179  16.068  16.876  14.378  0.1709  0.1854  0.0063
26332W        W43180  17.830   4.624   0.798  0.4497  0.1213 -0.0208
26333W        W43181   7.538   0.129  15.850 -0.0881  0.0518 -0.1659
26334W        W43182   3.234  11.303   1.594 -0.0049 -0.2741  0.2190
26335W        W43183  13.898   2.532  14.072 -0.4096 -0.0552  0.2706
26336W        W43184   3.206  14.380   2.610  0.2413 -0.2092 -0.0658
26337W        W43185  13.873  13.384  14.046  0.2581  0.0111 -0.2141
26338W        W43186  11.171   9.121  13.987 -0.3531 -0.2014 -0.2707
26339W        W43187   3.865   1.984  16.021 -0.1313 -0.2878 -0.0173
26340W        W43188  14.059   6.089  14.453 -0.0011 -0.2148  0.0711
26341W        W43189  14.393   8.054   2.768  0.0783  0.4068 -0.1135
26342W        W43190   0.945   5.798  15.897  0.1547  0.2289 -0.0648
26343W        W43191   0.376  10.846   3.363  0.2940  0.1444  0.0502
26344W        W43192   2.636  12.955  11.386 -0.3881  0.0612  0.1692
26345W        W43193  16.552   2.605  14.373  0.1379  0.1407  0.1866
26346W        W43194  11.267  17.805   0.261  0.0856 -0.2287  0.0591
26347W        W43195  13.761   0.568   3.167  0.5517 -0.1701  0.0315
26348W        W43196  13.732   0.780   4.889  0.0222 -0.3446  0.0476
26349W        W43197   3.876  13.333  13.717  0.2482 -0.0048  0.0828
26350W        W43198   7.632   3.747  15.208 -0.2782  0.2196  0.0750
26351W        W43199  12.343   4.200  15.899  0.0323  0.1662 -0.0680
26352W        W43200  12.728  16.718   0.251 -0.1302  0.0653  0.0665
26353W        W43201  11.240  15.467   5.405  0.0284  0.1274 -0.0668
26354W        W43202   8.309  15.610   0.795 -0.3122 -0.2591  0.1048
26355W        W43203   5.844  12.678   3.287  0.2255 -0.1719  0.2137
26356W        W43204   7.192  14.060   1.721 -0.2316 -0.1871 -0.2910
26357W        W43205   6.482   9.812   0.203 -0.3373 -0.0828  0.4509
26358W        W43206   8.177  14.827   4.240  0.1476  0.1889 -0.0309
26359W        W43207  13.798   9.352   0.867 -0.5424 -0.3017 -0.3131
26360W        W43208   2.216  15.688  15.475  0.1331  0.5748  0.1578
26361W        W43209   3.009   4.312  12.248 -0.0412  0.0372 -0.0840
26362W        W43210   0.890   4.665  12.005  0.0786 -0.0708  0.0688
26363W        W43211   9.088  12.423  13.387  0.0968 -0.0321 -0.0854
26364W        W43212   2.929   6.838  12.606 -0.2567 -0.1974 -0.1406
26365W        W43213   2.315   0.469   2.026 -0.0715 -0.0408 -0.0366
26366W        W43214   0.021  16.667  15.960  0.3854  0.0508  0.1833
26367W        W43215  17.199   5.732  15.304 -0.1357 -0.0814  0.1376
26368W        W43216   9.881   9.576   1.427  0.1766 -0.2482  0.0151
26369W        W43217   1.877   6.503   0.867 -0.0138  0.3956 -0.0053
26370W        W43218   9.628  16.561  11.539  0.3579 -0.2366 -0.2922
26371W        W43219   5.271  14.728   0.333  0.3244 -0.2352 -0.2202
26372W        W43220   9.251  12.554  11.889 -0.1432  0.0177 -0.2470
26373W        W43221   6.802   3.726  13.707 -0.2727  0.1630 -0.2655
26374W        W43222   5.349   5.879   4.427 -0.0556  0.0967 -0.0718
26375W        W43223   8.077   8.208   2.469 -0.1408 -0.2248 -0.0303
26376W        W43224   5.146   2.281  12.146 -0.0690 -0.2130  0.1285
26377W        W43225  12.257   6.364  15.229  0.1754 -0.1230 -0.0989
26378W        W43226   1.541  15.233   4.677  0.3925  0.1620  0.3162
26379W        W43227  10.640  11.201   2.138 -0.0228  0.2220  0.5204
26380W        W43228   1.102   3.752   3.246 -0.0435 -0.1828  0.3993
26381W        W43229   3.954  10.738   1.678  0.2551  0.3619 -0.2534
26382W        W43230   6.855   9.900  11.178 -0.0178  0.3070  0.0288
26383W        W43231  17.288   7.240   3.955 -0.0646  0.1651 -0.2716
26384W        W43232   7.433   8.418  13.826  0.0042 -0.1363  0.0634
26385W        W43233  10.613   8.079   0.569 -0.3020 -0.1761  0.2577
26386W        W43234  13.518   2.581  13.436 -0.0285  0.1234  0.2938
26387W        W43235   1.419   6.684  11.395  0.0798  0.0891 -0.2974
26388W        W43236  17.162   5.275   1.028  0.1156  0.0411 -0.0586
26389W        W43237  11.910  10.941  15.093  0.2087  0.1537  0.0135
26390W        W43238  10.461   9.048  14.688 -0.0882 -0.0253 -0.1158
26391W        W43239   4.395   8.187  16.624  0.0194  0.2817  0.4155
26392W        W43240  14.156  10.332   2.567 -0.0624 -0.0743 -0.1330
26393W        W43241   5.889  12.284  12.027  0.2633 -0.1845 -0.3881
26394W        W43242   4.622   9.499   3.126  0.1912 -0.4059  0.3424
26395W        W43243  12.219  11.901  11.597 -0.1740  0.0933 -0.1344
26396W        W43244  12.339   4.602   0.028 -0.3023 -0.2315 -0.3751
26397W        W43245  10.056  17.341  14.762  0.4771 -0.0584 -0.0278
26398W        W43246   3.305   7.903   3.649 -0.2702 -0.0911 -0.1244
26399W        W43247  11.531  12.806  15.310  0.1574 -0.0721  0.0253
26400W        W43248   2.474   8.950   1.299  0.1227 -0.1747 -0.2320
26401W        W43249  13.279  15.482  14.774  0.0429  0.0536  0.1286
26402W        W43250  11.555   9.058  13.608 -0.4280  0.3857  0.1284
26403W        W43251   8.307  17.481   4.399 -0.0819  0.0699  0.1123
26404W        W43252   8.110  15.346  12.818  0.0411  0.0812 -0.2076
26405W        W43253   1.062   9.538   2.738  0.1198  0.2309  0.1421
26406W        W43254   4.482   1.086  14.101 -0.2798  0.0261 -0.3185
26407W        W43255   4.569   2.362   2.574  0.4171 -0.2639  0.1801
26408W        W43256   8.550  15.353  15.617 -0.1314  0.0473  0.2757
26409W        W43257   8.636  14.877   4.655  0.1674 -0.1931  0.0910
26410W        W43258  13.462   8.981  15.961 -0.1160  0.0197 -0.0260
26411W        W43259   1.380   5.854   0.610 -0.0727  0.1836 -0.1326
26412W        W43260  16.193   3.443  16.380  0.0790 -0.1034  0.2206
26413W        W43261   2.973  16.920   2.158 -0.1681 -0.1229  0.1444
26414W        W43262   2.464  10.040   4.383  0.0842  0.2906 -0.0427
26415W        W43263  16.376   6.439  12.360  0.2150 -0.0416  0.0304
26416W        W43264   2.698   8.179  14.399 -0.0126  0.2515 -0.0277
26417W        W43265  11.642   2.032  14.704  0.0740 -0.0711 -0.1712
26418W        W43266  14.777   7.639  12.407 -0.1318 -0.0627 -0.1703
26419W        W43267   9.301   9.887  13.990  0.0775  0.2663  0.3169
26420W        W43268   0.924  12.161   2.442 -0.0471  0.0386  0.1130
26421W        W43269  15.443   5.498   0.678 -0.0642  0.1413 -0.2052
26422W        W43270  17.500   4.992   1.381  0.1858 -0.0838 -0.1228
26423W        W43271   5.454   2.460  15.138  0.0255  0.6008 -0.2407
26424W        W43272  11.730  16.350   1.209  0.1877  0.0983 -0.1895
26425W        W43273   0.054   4.551  15.722  0.1238  0.1960  0.0466
26426W        W43274  17.682   3.778   2.038  0.0375  0.1571 -0.0272
26427W        W43275   4.962  15.720  12.016  0.2780  0.1236  0.1745
26428W        W43276   3.494  16.214   4.032 -0.2753 -0.1010  0.0269
26429W        W43277  14.525   0.844  15.994  0.0190 -0.2849  0.0436
26430W        W43278   3.791  17.857  15.216 -0.2715 -0.0725 -0.2528
26431W        W43279  16.128   3.844   3.680 -0.0567  0.1509 -0.0705
26432W        W43280   0.046   0.219  16.470 -0.1022 -0.2277 -0.3948
26433W        W43281   5.483   6.968   4.377 -0.0705  0.0834 -0.1102
26434W        W43282  17.262  16.877   2.936 -0.1439  0.0158  0.0267
26435W        W43283   8.346   6.987   4.113 -0.2994  0.1801  0.2035
26436W        W43284   4.960  16.202   5.276 -0.0847 -0.1342 -0.0946
26437W        W43285   7.903   2.599   1.854  0.3067 -0.0127 -0.1283
26438W        W43286   1.700   7.329  11.668  0.0164 -0.3319  0.0912
26439W        W43287   1.120  11.801  15.741 -0.0727 -0.2508  0.2758
26440W        W43288   8.817   9.891  11.501 -0.1485  0.1558  0.2292
26441W        W43289   9.927   8.226  11.323 -0.2304 -0.2695  0.3175
26442W        W43290   3.072   8.133  12.884 -0.0566  0.1780 -0.1170
26443W        W43291   3.901   3.365   0.612  0.1559  0.1118 -0.0817
26444W        W43292   3.766  11.599   4.215 -0.0410 -0.0590 -0.0034
26445W        W43293   0.277  12.194  16.613  0.4621  0.0348  0.2025
26446W        W43294   2.318   4.035  15.767 -0.3997 -0.1145  0.2193
26447W        W43295  15.918  10.393   3.461 -0.4577  0.0456  0.1447
26448W        W43296  10.771  10.859  16.466 -0.1955  0.0910 -0.3047
26449W        W43297   8.930   8.649   3.633 -0.1318 -0.0295 -0.0755
26450W        W43298  10.114  10.688   5.148 -0.1814 -0.0658 -0.0310
26451W        W43299   7.409   6.007   3.725 -0.2045  0.0597 -0.1964
26452W        W43300   0.553   0.382  13.782  0.1484 -0.1561 -0.4221
26453W        W43301  15.906   2.558   3.940 -0.1415  0.2612  0.1625
26454W        W43302  12.937   0.306   3.597  0.0887  0.0450 -0.1148
26455W        W43303  12.019  16.652   6.261  0.1972 -0.0520  0.1375
26456W        W43304  14.955  11.897  16.202  0.1128  0.0143  0.0683
26457W        W43305   2.651  16.800  15.438 -0.0983  0.1668  0.1211
26458W        W43306   3.530   2.342  14.905 -0.0109  0.2700  0.1962
26459W        W43307  16.221   7.667  14.037 -0.2432 -0.1930 -0.3090
26460W        W43308  15.385   4.339   2.016 -0.1368  0.0313 -0.0759
26461W        W43309  13.847   1.200  11.952  0.2660 -0.0756 -0.1259
26462W        W43310  16.116   0.212   5.651 -0.3337 -0.0493  0.0144
26463W        W43311  12.818   1.860  12.737 -0.1130 -0.0404  0.0467
26464W        W43312  12.601  16.533   4.728 -0.1777 -0.4034  0.0999
26465W        W43313   5.619  10.260   2.727 -0.0883 -0.0487 -0.0570
26466W        W43314   2.318   8.227   5.487 -0.0610  0.1927  0.0478
26467W        W43315  14.094  14.224   1.454  0.2783  0.3900 -0.2079
26468W        W43316   6.156  14.154   0.010 -0.0730  0.2550  0.0770
26469W        W43317   8.203  13.693   0.440 -0.0434 -0.1876 -0.2328
26470W        W43318   5.242   2.261   3.998  0.1727 -0.1099 -0.0205
26471W        W43319  10.443   7.100  14.025 -0.1561 -0.1077  0.2559
26472W        W43320   1.480   3.160   0.643 -0.1148 -0.1034  0.1427
26473W        W43321  11.260  11.755   4.088  0.3243  0.2403 -0.0075
26474W        W43322  13.878  12.669   3.299  0.0121  0.0982  0.0331
26475W        W43323   8.493   6.076   4.697 -0.0959  0.0738  0.1100
26476W        W43324   0.051   0.104  15.546 -0.1832 -0.0672  0.0380
26477W        W43325   9.047  11.764   4.682  0.0246 -0.1140  0.2533
26478W        W43326  12.986  13.855   4.278  0.3246  0.0361  0.5278
26479W        W43327   3.520  11.782   5.678 -0.1739 -0.1952 -0.0588
26480W        W43328   0.279   1.200   5.230  0.0252  0.2178 -0.2156
26481W        W43329  12.989  16.146   1.442  0.0662 -0.3024 -0.1510
26482W        W43330   3.983   1.740  11.863 -0.0861 -0.0234 -0.0488
26483W        W43331   8.203  16.611   2.463 -0.0088 -0.0514  0.2834
26484W        W43332  16.965   7.636   3.035  0.0351  0.2061 -0.0855
26485W        W43333  12.255  14.206  14.027  0.1811  0.0899  0.1230
26486W        W43334  17.800   9.755   3.546  0.0450 -0.0116  0.0642
26487W        W43335  12.009  11.917   6.031 -0.0223  0.0660  0.2698
26488W        W43336  13.607  13.100  14.358  0.0614  0.5653  0.1094
26489W        W43337  17.263  16.598   2.067  0.2294  0.0767 -0.3439
26490W        W43338  11.707   2.467  16.628 -0.0602 -0.0941 -0.2939
26491W        W43339  15.206  14.234   5.648 -0.1288  0.1221  0.2180
26492W        W43340   2.062   0.443   0.642  0.1162  0.0284  0.1218
26493W        W43341  11.271   1.083   1.575  0.1853 -0.0656  0.0325
26494W        W43342   5.036   9.541   0.245 -0.2498  0.0105 -0.0577
26495W        W43343   1.871  13.446   1.502  0.2939 -0.3416 -0.0851
26496W        W43344  15.982  17.688   2.850 -0.0174  0.1755 -0.0014
26497W        W43345   7.323   4.930  14.414  0.2389  0.1043 -0.2178
26498W        W43346  14.503  16.176   3.341 -0.2607  0.0984 -0.1603
26499W        W43347  14.338   7.626   4.636  0.0462 -0.2298  0.3110
26500W        W43348  16.597  16.238   3.378 -0.0380 -0.0068 -0.1405
26501W        W43349   5.444   2.975  15.166  0.1392 -0.1219 -0.2003
26502W        W43350   4.237  13.190   0.427  0.1071 -0.1708 -0.2617
26503W        W43351  10.737  12.317  15.014  0.1125 -0.1741 -0.1087
26504W        W43352   3.351   2.772  10.276  0.1103  0.4565 -0.2548
26505W        W43353   5.801   5.960   1.317  0.0805  0.0614 -0.3368
26506W        W43354   2.399  15.142  15.527 -0.0455 -0.0322  0.1772
26507W        W43355   3.631   8.658   5.407  0.1346  0.0213 -0.0147
26508W        W43356   7.930  12.658   4.988  0.0322 -0.1965  0.0452
26509W        W43357   2.465  15.911  16.467 -0.1578 -0.0087 -0.2505
26510W        W43358   1.322   6.246   1.628 -0.1187  0.2758  0.0885
26511W        W43359   8.765  17.342  16.266 -0.1394 -0.1411 -0.0357
26512W        W43360  13.026  10.328   2.115  0.3538 -0.1439 -0.1432
26513W        W43361   4.996  12.728   3.400 -0.2568 -0.3118  0.3321
26514W        W43362  14.693   2.603  11.978  0.0545  0.0449 -0.2680
26515W        W43363  14.262   3.711   2.603  0.0127 -0.1615  0.0183
26516W        W43364   6.418   3.979  14.992 -0.2040  0.2493  0.1633
26517W        W43365  13.193  12.448  14.552  0.2977 -0.0017  0.0389
26518W        W43366   3.255  10.210  11.993 -0.0275  0.1252 -0.0641
26519W        W43367   6.116   1.657   0.808 -0.0171  0.0672 -0.2396
26520W        W43368   9.869   7.058   2.882 -0.2722 -0.3242  0.0293
26521W        W43369  10.878  15.636   1.899  0.0071 -0.3590 -0.1650
26522W        W43370   3.325   7.646  14.661 -0.1904  0.0815 -0.2100
26523W        W43371   6.507  10.331  11.940 -0.3981  0.0770  0.1072
26524W        W43372   9.753  11.725  11.955  0.4368 -0.1311  0.0835
26525W        W43373  11.168   9.327  15.642  0.2868  0.2920  0.0279
26526W        W43374  14.202   3.800  16.352  0.0556 -0.1194  0.2394
26527W        W43375   6.123  15.900  14.557 -0.0674  0.0323  0.2220
26528W        W43376  12.443   4.096  15.182 -0.1900 -0.0422  0.2378
26529W        W43377   6.861   7.243   2.701  0.3810  0.0220 -0.1636
26530W        W43378  14.267  15.320   1.449  0.0791 -0.0638  0.5921
26531W        W43379   8.872   6.389  12.420 -0.2539 -0.0925  0.0231
26532W        W43380   9.846  15.918  13.898 -0.0548 -0.2486  0.2218
26533W        W43381   0.963  14.473   2.831  0.0250 -0.3851  0.2079
26534W        W43382  17.605  17.654  15.740 -0.2922  0.3004  0.2532
26535W        W43383   8.064  13.297  13.685 -0.0462  0.2274  0.0912
26536W        W43384   2.774  10.859  14.645 -0.5073  0.1511 -0.0964
26537W        W43385   0.072   7.024  15.158  0.2563  0.1223 -0.3066
26538W        W43386   4.266  16.319  12.909 -0.0611  0.3704  0.2607
26539W        W43387  15.276   1.160   5.671  0.0416  0.2479 -0.2597
26540W        W43388   4.609   3.095   4.318  0.3518 -0.2576 -0.0701
26541W        W43389  17.418   3.405   3.715 -0.2023  0.1051 -0.2258
26542W        W43390  16.442  17.385   5.288  0.2414  0.0041  0.1166
26543W        W43391  15.513   5.551  11.061 -0.0041  0.1295 -0.0241
26544W        W43392   2.193   2.507   1.608  0.1542  0.1280  0.1521
26545W        W43393   7.636   8.629   3.266  0.0658  0.0413  0.0471
26546W        W43394  17.690   0.606  15.814  0.0003 -0.3406 -0.1010
26547W        W43395   0.505   9.073   0.066  0.1766  0.1650 -0.1129
26548W        W43396  11.282   0.744  14.269  0.0434 -0.3054  0.1424
26549W        W43397   7.449   8.451   3.664  0.0303  0.2762  0.0123
26550W        W43398   4.126   5.141  11.975  0.1492 -0.1724  0.4074
26551W        W43399  17.365  14.645  11.895  0.2417  0.0319 -0.2522
26552W        W43400   1.420   5.563  15.081  0.1745  0.1305 -0.1709
26553W        W43401   5.439  14.249   5.294 -0.2046  0.0446 -0.2159
26554W        W43402  13.712  16.003   1.048 -0.0952 -0.1107  0.1088
26555W        W43403   3.151   1.777   4.558 -0.4813 -0.0359 -0.1163
26556W        W43404   3.823  12.442  15.002  0.0048 -0.1246 -0.4284
26557W        W43405   3.866   0.347  14.370 -0.1523  0.1542  0.0185
26558W        W43406   8.019   2.966   4.678 -0.0535  0.3239 -0.1952
26559W        W43407  16.347  11.139   4.605 -0.3537 -0.1217  0.1235
26560W        W43408  12.344   3.265   4.794  0.0446  0.2286  0.3099
26561W        W43409  11.113   5.859   2.804  0.1205 -0.2045 -0.2135
26562W        W43410   5.925   0.091   0.116 -0.2192 -0.4212  0.0765
26563W        W43411   9.388   8.733  13.233  0.2141  0.4074 -0.0811
26564W        W43412  17.428  11.853   5.313 -0.1049  0.1231 -0.2166
26565W        W43413   3.075   7.116  11.784  0.0924 -0.0491  0.0371
26566W        W43414  13.688  11.493   5.345 -0.0885 -0.0084  0.0182
26567W        W43415  13.822  17.739   0.623 -0.3554 -0.2803 -0.1820
26568W        W43416  16.814   5.679  11.432  0.2747 -0.2123  0.1411
26569W        W43417  14.762   3.773   0.822 -0.1316 -0.2334  0.0287
26570W        W43418  12.789   3.677  12.533  0.1176 -0.1630 -0.0827
26571W        W43419   9.886   6.272  12.391  0.0187  0.0017  0.0336
26572W        W43420  14.915  13.735   0.254 -0.2608  0.0387 -0.1537
26573W        W43421   1.703   5.417   1.419  0.0953  0.2382  0.1167
26574W        W43422   2.434  10.395   4.717 -0.0835  0.1112 -0.1095
26575W        W43423  13.807   4.502   3.580  0.0226 -0.1929  0.2521
26576W        W43424  15.789  10.636   0.631 -0.0131  0.2792  0.0453
26577W        W43425  12.953   8.561   1.825 -0.0105 -0.0613  0.0544
26578W        W43426   9.478  10.595   1.134  0.1097  0.0317 -0.0399
26579W        W43427  11.318   6.238  14.192 -0.2659 -0.0109  0.1419
26580W        W43428   5.859  15.715   3.160 -0.2033  0.0161 -0.0024
26581W        W43429  16.159   5.350   5.099  0.2530  0.0994  0.0953
26582W        W43430   7.346   5.138   3.450 -0.4894 -0.1218  0.0411
26583W        W43431  15.033   1.764  14.929 -0.1095 -0.2539 -0.2110
26584W        W43432  14.260  13.048  16.597  0.0147 -0.1272 -0.2583
26585W        W43433   8.496  12.072  16.423  0.1032 -0.0965  0.1013
26586W        W43434  11.615  17.696   4.581 -0.1270  0.4678  0.0889
26587W        W43435  15.771   4.347  16.385 -0.1803  0.0509 -0.3159
26588W        W43436   6.490  12.279  10.810 -0.0553 -0.0073  0.2504
26589W        W43437   6.021  10.988  13.192  0.1818  0.0686 -0.1789
26590W        W43438   8.562   7.723  12.388  0.0281  0.0365  0.3058
26591W        W43439   3.603   4.351   2.312 -0.0482  0.2715 -0.2049
26592W        W43440  13.599  15.909   3.371 -0.2268 -0.0934  0.3248
26593W        W43441  13.455  14.367   0.859 -0.0501 -0.1530 -0.1370
26594W        W43442   5.456   8.443   1.193  0.1761 -0.1529  0.0511
26595W        W43443  10.557  17.618  10.497 -0.0521 -0.1798  0.2330
26596W        W43444  13.073   6.045   1.589  0.2014  0.0087 -0.1508
26597W        W43445  15.899  14.961   3.382 -0.2350  0.3083 -0.0328
26598W        W43446   2.645   9.748  12.737 -0.1929 -0.1231 -0.0785
26599W        W43447  14.380   6.524  15.223 -0.0224  0.1484  0.0400
26600W        W43448  13.795   6.100   0.160  0.1728  0.0047  0.1226
26601W        W43449  13.129   7.704  12.571 -0.1440 -0.0098 -0.0761
26602W        W43450   2.755  10.942   1.504  0.0852  0.1007 -0.0356
26603W        W43451  15.926   1.269  16.110 -0.2000  0.1878  0.3277
26604W        W43452  13.206   3.852   0.517  0.0207 -0.3584  0.4147
26605W        W43453  15.794  17.228   4.457 -0.0374 -0.2033 -0.0691
26606W        W43454   9.303   9.350   1.899  0.3114 -0.1438 -0.2464
26607W        W43455   3.010   6.013  13.174 -0.0059 -0.1097  0.0872
26608W        W43456  14.241   1.027  13.526  0.0522 -0.1300  0.1195
26609W        W43457   8.859  15.316  12.862  0.2065 -0.0818 -0.0800
26610W        W43458   6.803   9.706  16.174  0.0476  0.0745 -0.0652
26611W        W43459  10.733  17.143   1.812  0.0852  0.1632  0.1986
26612W        W43460   2.688  11.558  15.293 -0.3966  0.1478  0.1798
26613W        W43461   2.315   9.994  11.034 -0.0755 -0.3387  0.0691
26614W        W43462  11.175  11.299   2.355  0.0465 -0.0157  0.1861
26615W        W43463  12.629  13.602   4.559  0.1490  0.0770 -0.4160
26616W        W43464   0.533   7.198   1.292 -0.0800 -0.0245 -0.3577
26617W        W43465  15.441   0.860  12.457 -0.3439  0.0680 -0.0607
26618W        W43466   5.063   9.211   5.359  0.1314  0.5058 -0.0871
26619W        W43467  14.918  12.086  15.329  0.0468  0.1073 -0.0867
26620W        W43468  11.571  17.338  12.533  0.0299 -0.0324 -0.2713
26621W        W43469  14.420  17.217   3.392 -0.3038 -0.0089 -0.0245
26622W        W43470   9.291  16.869  14.065  0.0916  0.0861 -0.0161
26623W        W43471  14.359  12.200   0.055 -0.0895 -0.2200  0.0519
26624W        W43472  14.775  17.522   1.427  0.0569  0.2967  0.1954
26625W        W43473  11.700   4.190   3.548  0.2493 -0.0047 -0.2007
26626W        W43474  14.447   9.021  11.587  0.0228  0.0394  0.2001
26627W        W43475  17.103  17.087   4.725 -0.1015  0.1216  0.0899
26628W        W43476  17.357   6.176  16.121 -0.0853  0.0237  0.0919
26629W        W43477  13.768  17.252   2.874  0.1472  0.3163  0.2874
26630W        W43478   0.146  13.723   0.732 -0.0716  0.1731  0.3916
26631W        W43479  11.181   8.733  12.886  0.2083 -0.0435  0.0963
26632W        W43480  17.343   0.255   1.520 -0.1489  0.0829  0.0174
26633W        W43481  13.397  14.926   5.149  0.0004  0.0435 -0.2436
26634W        W43482  17.741   4.215   4.362  0.4310 -0.1997 -0.0395
26635W        W43483   8.957   7.383  12.127  0.1986  0.0124  0.2384
26636W        W43484   4.544   9.395  12.009 -0.1899  0.1989  0.0394
26637W        W43485  16.807   1.986   2.501  0.1442  0.1414 -0.4709
26638W        W43486   6.083   2.295   3.990  0.1657  0.0790 -0.1676
26639W        W43487   2.887   7.691  12.076  0.2323 -0.1833  0.2813
26640W        W43488  11.173  17.221   2.159  0.1644  0.4850  0.0336
26641W        W43489   5.676  16.479  13.803  0.0694 -0.1229  0.1522
26642W        W43490   8.704  16.853   2.238 -0.0428 -0.2783  0.3330
26643W        W43491  12.402   8.865   0.758  0.3373  0.0430 -0.2281
26644W        W43492  12.424  14.028   2.954  0.2100  0.0624  0.1471
26645W        W43493  14.263   6.541   2.025  0.1591  0.0490 -0.3304
26646W        W43494  11.765   9.336   1.381  0.0363 -0.0858 -0.0057
26647W        W43495   1.541   5.063  15.057 -0.0951  0.0466  0.2494
26648W        W43496  11.797   4.205   1.459 -0.0993 -0.0408 -0.0459
26649W        W43497  14.848  17.040   0.216 -0.0516  0.0245  0.3507
26650W        W43498  11.398   8.118  11.257 -0.0302  0.0079 -0.2120
26651W        W43499  14.461   2.037   4.092 -0.1375  0.0622 -0.4478
26652W        W43500  11.441   4.790   1.649  0.0666 -0.1496  0.2792
26653W        W43501  11.922  16.340  12.498 -0.1157 -0.0489 -0.0840
26654W        W43502   6.801  15.969   4.579 -0.0429 -0.0247 -0.1864
26655W        W43503   7.788  12.882  13.773  0.4016  0.1515 -0.0959
26656W        W43504   8.192   8.868   0.342  0.3614 -0.0880  0.0100
26657W        W43505   3.673  10.140   2.329  0.2210  0.1464 -0.1899
26658W        W43506   6.922   3.046   0.549 -0.1252 -0.0882  0.1301
26659W        W43507   7.682  13.150   3.629  0.3645 -0.0025  0.3452
26660W        W43508   8.538   0.836  15.700  0.1981 -0.0499  0.1325
26661W        W43509   7.845  12.100   0.445  0.0852  0.1357  0.1778
26662W        W43510   5.704   0.643  14.742  0.1631 -0.0618 -0.3339
26663W        W43511   6.209   2.981   4.347  0.1023  0.4534  0.0002
26664W        W43512   9.417  15.019   4.994  0.2289 -0.2590  0.2695
26665W        W43513   3.815   6.799  11.988 -0.0027  0.1523 -0.1428
26666W        W43514  15.285   6.120  14.679  0.2148 -0.1557  0.1837
26667W        W43515   9.934   0.851   4.351 -0.2902  0.0482  0.1386
26668W        W43516   9.979  11.362   1.316 -0.0129  0.0147  0.2239
26669W        W43517  14.089  16.946  13.009 -0.0689 -0.1957  0.0068
26670W        W43518  12.321   0.014  11.845 -0.0047  0.2281  0.2756
26671W        W43519   6.660   4.689  11.270 -0.0314  0.2205 -0.0936
26672W        W43520  15.536  12.913  14.242 -0.1028 -0.0199 -0.0880
26673W        W43521   2.484   7.848  11.880  0.0721  0.1332  0.0249
26674W        W43522   7.671   3.782  14.352 -0.0254  0.1376  0.0418
26675W        W43523  14.941   3.069   4.119  0.0690 -0.1963  0.0038
26676W        W43524  14.174   1.593   6.253 -0.1288 -0.0299 -0.1181
26677W        W43525   8.892   8.408   0.098  0.0114 -0.1710 -0.0237
26678W        W43526   2.804   6.665   3.510  0.1442  0.4327  0.1625
26679W        W43527   5.197   6.777  12.739  0.1876  0.1566  0.1609
26680W        W43528   6.209   4.869   4.904  0.2060  0.0957  0.2324
26681W        W43529   5.191  13.096  12.613  0.0381 -0.0006 -0.2880
26682W        W43530   6.364  11.353  15.150  0.0147  0.0762 -0.1270
26683W        W43531  13.369   3.522  11.521 -0.0370  0.1489 -0.3431
26684W        W43532   2.348  16.652  12.306  0.3152 -0.1118  0.0953
26685W        W43533  14.677   7.024  16.628 -0.2054 -0.0069 -0.1245
26686W        W43534  10.931  12.562   2.435 -0.0531  0.1046  0.1854
26687W        W43535  11.492  11.139   2.653  0.2307 -0.3034 -0.3206
26688W        W43536   6.863  15.494   1.465 -0.0774  0.1037  0.2054
26689W        W43537  12.793   6.353  13.180  0.0176 -0.1189  0.3530
26690W        W43538   6.170   4.602   5.730 -0.5143 -0.1774 -0.0775
26691W        W43539   4.971   4.568   1.114  0.0258  0.0588  0.1040
26692W        W43540   4.764   9.808  14.490 -0.1149  0.3111 -0.0113
26693W        W43541  12.710   3.140  12.072 -0.0232  0.4308 -0.0855
26694W        W43542  11.230  13.835   3.333 -0.4077 -0.3048 -0.0372
26695W        W43543  16.606   3.739  15.497  0.1185  0.2204 -0.1835
26696W        W43544   8.733   2.719  14.455  0.0427  0.5077 -0.0101
26697W        W43545   4.477  16.385   1.666 -0.2347 -0.1771 -0.1280
26698W        W43546   2.228  15.580   0.609 -0.1011 -0.0058 -0.2020
26699W        W43547  15.312  10.106  14.361  0.0031 -0.0416 -0.0981
26700W        W43548  15.740   8.486   4.572 -0.2086 -0.2446  0.1385
26701W        W43549  12.935   3.717  13.138 -0.0477 -0.4101  0.0085
26702W        W43550  13.451   3.270  15.893  0.0066  0.2813 -0.1497
26703W        W43551   6.419   7.413   2.972 -0.0672 -0.2049 -0.1473
26704W        W43552  15.434  13.900  12.744 -0.2044  0.0537 -0.2241
26705W        W43553  14.355   9.439  11.814 -0.0094  0.0855  0.0301
26706W        W43554   2.791   7.734  14.576  0.1797  0.3264  0.2049
26707W        W43555   6.472   7.189   4.723 -0.1063  0.2211  0.1852
26708W        W43556  14.957  10.744   2.161 -0.1701  0.2609 -0.2107
26709W        W43557  16.831   2.579   2.734 -0.1635 -0.2323 -0.0865
26710W        W43558   9.640   4.221  12.554 -0.0898  0.1438  0.0961
26711W        W43559   5.782   0.430   2.723 -0.0789  0.1487  0.0824
26712W        W43560   4.168  14.756  15.483 -0.0868  0.0161 -0.1226
26713W        W43561   6.355  17.698  12.699  0.0781  0.3292  0.1989
26714W        W43562   8.395  16.984  13.818  0.2375  0.0879  0.1449
26715W        W43563   1.539  10.581  12.547 -0.1210  0.1748  0.3081
26716W        W43564   4.861  12.202   2.283 -0.1728 -0.2866  0.1415
26717W        W43565   8.527   9.633   1.384  0.1267 -0.3271 -0.1789
26718W        W43566   0.774   7.319  15.823 -0.1135 -0.4994 -0.4519
26719W        W43567   8.741  11.343   4.626 -0.1035 -0.0721  0.0319
26720W        W43568  11.490   5.685  11.637  0.2594  0.0688 -0.0979
26721W        W43569  15.944   7.725   3.009  0.2770 -0.1560  0.1499
26722W        W43570  12.987  12.883   0.927  0.1657  0.2141 -0.3710
26723W        W43571   6.582  17.497   4.131  0.4443  0.0568 -0.1082
26724W        W43572  13.556   3.502   1.853  0.1850  0.1486 -0.1120
26725W        W43573   2.987  17.262   0.940  0.1131  0.1722 -0.0905
26726W        W43574  12.257   4.763  14.562 -0.0399 -0.2844  0.1811
26727W        W43575   6.966  12.017  12.667 -0.0312 -0.2601  0.2088
26728W        W43576  11.404   9.248  11.647  0.1362  0.1330 -0.0179
26729W        W43577   9.978   2.766  16.253 -0.1921  0.3326 -0.0469
26730W        W43578   3.358  13.891   1.256  0.1481 -0.0916  0.2855
26731W        W43579  14.781   7.091  13.512  0.0867  0.1424  0.1109
26732W        W43580  17.531  17.842   1.080  0.0975  0.2659 -0.0371
26733W        W43581  13.395   0.841   4.481  0.1378 -0.0028 -0.3092
26734W        W43582  14.421  16.643  14.944  0.2346  0.0003 -0.0434
26735W        W43583   1.171   9.326   1.674  0.0498 -0.0060  0.2587
26736W        W43584   1.264  10.856  13.019 -0.2510  0.2418 -0.0133
26737W        W43585  13.512   1.920   1.652  0.0278  0.1900 -0.2285
26738W        W43586  14.971  11.295  12.618 -0.1086  0.0846 -0.1210
26739W        W43587   6.516  11.868   3.925 -0.2377  0.0003  0.2300
26740W        W43588  16.486  16.154   2.559  0.3296 -0.0374  0.1606
26741W        W43589   7.634   2.849  15.344 -0.1290 -0.1471 -0.1534
26742W        W43590   3.106  16.519   1.882  0.2796  0.1274 -0.1305
26743W        W43591  10.506   5.617  12.123  0.2523 -0.3190  0.0717
26744W        W43592   4.727  12.125   0.320  0.0801  0.0556  0.1418
26745W        W43593   5.380   7.658   3.678 -0.1083  0.2924  0.0628
26746W        W43594  14.158   8.068   1.739 -0.1069  0.0739  0.1531
26747W        W43595   4.582  12.130  13.367  0.0867  0.0793  0.0090
26748W        W43596  11.731  14.673  15.664 -0.0550  0.2409 -0.2125
26749W        W43597  16.040   2.522   3.413 -0.1048  0.1131  0.1426
26750W        W43598  11.430  11.277  14.070 -0.0719  0.1487 -0.0781
26751W        W43599  16.588  17.609  16.291 -0.1638  0.1221 -0.0781
26752W        W43600   7.128   6.489  11.100  0.0522 -0.3810 -0.0304
26753W        W43601   3.922  17.466  11.372 -0.3007  0.1469 -0.1510
26754W        W43602   5.103   0.540  14.906 -0.0979 -0.1052 -0.1899
26755W        W43603   6.068  10.165   5.532 -0.0478  0.1159  0.1592
26756W        W43604  15.494  12.776  15.099  0.4000  0.0741 -0.1642
26757W        W43605  15.184   8.438  15.246  0.1593  0.0619 -0.1124
26758W        W43606  10.658  14.578  13.437 -0.0079 -0.4496 -0.0392
26759W        W43607   9.361   6.413   5.433  0.0976  0.3502 -0.0379
26760W        W43608  12.058  13.244  16.607 -0.2961  0.0411  0.2810
26761W        W43609   2.538   4.719   0.195 -0.1746 -0.0947  0.2203
26762W        W43610   7.280   2.978   3.598  0.0322 -0.2130  0.0613
26763W        W43611   8.051   6.484   0.717  0.0787  0.0338  0.1450
26764W        W43612  16.310  15.337  15.075  0.0567 -0.1120 -0.0512
26765W        W43613  14.175  11.130   1.086  0.0392  0.0505 -0.3325
26766W        W43614  16.003   6.570   3.462 -0.3739  0.1020  0.0914
26767W        W43615   4.445  11.581  13.188 -0.0559 -0.2511  0.0038
26768W        W43616   7.696   6.685   4.982 -0.0487 -0.2288 -0.0079
26769W        W43617   3.480   6.352  14.273  0.0515 -0.4075  0.1854
26770W        W43618  10.562  13.903   2.404 -0.1897  0.2697  0.3386
26771W        W43619  15.189   8.604   2.989 -0.2915  0.1656  0.0658
26772W        W43620  13.510   2.251  12.084  0.0590  0.0272 -0.0622
26773W        W43621   2.311  13.243   1.260 -0.0393  0.0352 -0.2510
26774W        W43622   3.719  11.503  14.782 -0.0641  0.1345 -0.0363
26775W        W43623  16.383   7.390   0.593  0.1479 -0.0736 -0.0704
26776W        W43624   3.613   2.006   4.513  0.1709  0.2292 -0.1137
26777W        W43625  14.249   4.671   3.587 -0.1387  0.2553  0.1249
26778W        W43626  17.329   3.404  12.373  0.1169 -0.0562  0.1052
26779W        W43627   8.987   3.347   0.376  0.0823 -0.2043 -0.1322
26780W        W43628   7.424   3.443   4.982 -0.1317  0.0643  0.0186
26781W        W43629  11.169   2.422  15.919  0.2256  0.0494 -0.2761
26782W        W43630   9.397  12.052  15.388  0.2570 -0.1922 -0.1163
26783W        W43631   0.090  11.688   0.533  0.1323 -0.0682 -0.0079
26784W        W43632   5.584   8.764   2.471 -0.2015  0.2668  0.0723
26785W        W43633  14.112   7.088   4.285 -0.1992 -0.0469  0.0229
26786W        W43634   4.803  13.096  14.596  0.3225 -0.0826  0.0816
26787W        W43635  16.145  14.296  11.602 -0.1445 -0.0377  0.2274
26788W        W43636   5.818  15.323  15.961  0.5872  0.2360  0.0441
26789W        W43637   6.453  13.963  11.906 -0.0446 -0.3158  0.1477
26790W        W43638  11.992   0.509  12.537  0.0389 -0.2329  0.2161
26791W        W43639   5.022   5.511   4.586 -0.3131  0.0845  0.1783
26792W        W43640  13.753   8.033  15.764  0.1713 -0.1314  0.4192
26793W        W43641   9.710   1.040   2.911 -0.4243 -0.0880  0.1994
26794W        W43642   4.341   8.286  12.979  0.3602  0.1140  0.0777
26795W        W43643   1.006   8.851  13.797  0.2823  0.0379 -0.0677
26796W        W43644  10.170  12.782   2.536  0.1323 -0.1150 -0.0082
26797W        W43645  17.380  10.227   1.506 -0.0417  0.1736  0.2219
26798W        W43646   0.841  14.588   1.835  0.2625 -0.1596 -0.1799
26799W        W43647  12.587  10.126   0.422 -0.0496  0.1720  0.0264
26800W        W43648   9.687   9.949  11.666 -0.1199 -0.3532 -0.0271
26801W        W43649  14.640  17.413   2.955  0.0863 -0.2301 -0.0040
26802W        W43650  16.743  17.580   3.931  0.2714  0.5310  0.1577
26803W        W43651   1.025   2.217   4.324  0.0566 -0.2211  0.0641
26804W        W43652   3.877   6.541  13.095  0.5052  0.1075 -0.1029
26805W        W43653   8.551   5.279   3.664 -0.0254 -0.1892  0.4405
26806W        W43654  17.050  10.012   2.517  0.0599 -0.3099  0.0050
26807W        W43655   6.454  16.860  13.224  0.1370 -0.2442 -0.0617
26808W        W43656   0.358  16.927   0.739  0.3022  0.0034  0.2230
26809W        W43657  17.380   2.740  13.380  0.3718 -0.1221  0.0401
26810W        W43658  12.461  15.604  16.581 -0.1185  0.4192 -0.1062
26811W        W43659   3.883   8.085   0.991  0.0740  0.0995 -0.2794
26812W        W43660   7.609  13.948   0.270  0.0649  0.1678  0.1838
26813W        W43661   7.543  17.130  14.751 -0.0633  0.0894 -0.0741
26814W        W43662   3.647   4.029  16.384  0.1679  0.3134  0.1649
26815W        W43663  11.893  13.912   1.939 -0.1614  0.1795  0.0133
26816W        W43664  10.465   9.596   2.935 -0.1533 -0.1451  0.0445
26817W        W43665   7.525  15.862  15.583 -0.1870  0.0067  0.4304
26818W        W43666  13.684   1.831  13.927 -0.0663  0.0225 -0.3629
26819W        W43667   1.433  16.957  12.819  0.1227  0.0082 -0.0062
26820W        W43668   6.506   3.992   4.490  0.2545 -0.1569 -0.0626
26821W        W43669  15.696   8.635   0.364  0.1584 -0.0494  0.2014
26822W        W43670  13.628   5.808  13.101 -0.0216  0.0711  0.2482
26823W        W43671  17.405   4.399  12.987 -0.0776 -0.1124 -0.0686
26824W        W43672  10.349   2.348  15.788 -0.2053  0.2487 -0.1034
26825W        W43673   6.692   1.502   0.281  0.2118  0.0685 -0.1468
26826W        W43674  10.956   2.154   1.931 -0.0254 -0.2278 -0.0204
26827W        W43675   9.066   8.653   4.704  0.2084 -0.2340  0.0930
26828W        W43676   7.130  12.011   3.385 -0.0084 -0.1735  0.1603
26829W        W43677  10.712  15.115   3.199 -0.1607 -0.0199  0.1729
26830W        W43678   6.864   5.807  14.287 -0.0286  0.0368  0.1384
26831W        W43679   4.492   7.993  13.892  0.0296  0.1079 -0.0513
26832W        W43680  17.722  15.127  12.052 -0.0172  0.2110 -0.3530
26833W        W43681  16.990  13.363   4.816 -0.2573  0.1184  0.0464
26834W        W43682   6.956   1.209  12.518 -0.0300  0.2259  0.1336
26835W        W43683   1.959   7.761  11.560  0.0535  0.2919  0.2341
26836W        W43684   3.295   1.216  13.547 -0.0627 -0.0278  0.1900
26837W        W43685   4.203  13.877  13.039  0.0993 -0.0872  0.2129
26838W        W43686  12.105  11.066  16.441 -0.0556  0.1138 -0.1907
26839W        W43687   1.507   4.833   0.191  0.2927  0.0324 -0.1921
26840W        W43688  12.014   7.877   2.491  0.2292 -0.0093  0.2005
26841W        W43689  10.955  16.639  14.727  0.4921  0.3063 -0.1745
26842W        W43690  11.980  17.658   0.787  0.0603  0.1482  0.2399
26843W        W43691  16.215  12.113   2.544  0.0422 -0.1016  0.2120
26844W        W43692  14.223   4.081  13.138 -0.1040 -0.4242  0.0163
26845W        W43693   3.353  15.754   2.010  0.0815  0.3781  0.0276
26846W        W43694   4.210   8.603   4.061 -0.2881 -0.1269 -0.0177
26847W        W43695  10.520   3.566   4.747 -0.0418 -0.1353  0.1408
26848W        W43696   9.616   1.033   3.947  0.2144 -0.0395  0.0885
26849W        W43697  15.042  10.314   2.459 -0.4017 -0.1083 -0.0089
26850W        W43698  10.241  14.226  12.005  0.0573  0.2348 -0.2263
26851W        W43699   0.048   6.010  16.264  0.1809 -0.1986 -0.1197
26852W        W43700   5.205  11.211  15.668  0.1756  0.2201  0.0037
26853W        W43701   9.939  17.670   2.908 -0.0564 -0.0505  0.1578
26854W        W43702   6.400  15.713  15.535 -0.2822  0.1608 -0.0280
26855W        W43703   6.956  17.007  14.012 -0.1557 -0.2293  0.0553
26856W        W43704  15.453  11.025  12.865  0.0061  0.1084 -0.1371
26857W        W43705   5.981  13.455  12.814 -0.2044 -0.2990 -0.0511
26858W        W43706  16.967   7.726   3.571 -0.1978  0.0166 -0.0339
26859W        W43707  10.520  12.409   2.725  0.2042  0.1904 -0.2698
26860W        W43708   9.337   7.360   3.239  0.0254 -0.1721 -0.1617
26861W        W43709   0.569   3.898   1.132 -0.2246 -0.2179 -0.3198
26862W        W43710   3.832   3.455   2.691  0.3103 -0.1287 -0.1279
26863W        W43711   1.135  11.925   5.584 -0.1281 -0.1165 -0.2597
26864W        W43712   2.212   5.846  16.589 -0.1460  0.0547 -0.1358
26865W        W43713   7.296  17.105   1.956  0.1180 -0.0166 -0.0865
26866W        W43714  11.601   8.606   2.398  0.0199 -0.2602  0.0602
26867W        W43715   0.106   7.729   2.121 -0.2886  0.0004 -0.0872
26868W        W43716  16.786   3.681  14.423 -0.0435  0.1596  0.1041
26869W        W43717  15.178  16.250   5.048 -0.0798  0.2909 -0.2460
26870W        W43718  14.733   4.060  11.722  0.0111 -0.0589  0.3724
26871W        W43719  16.311   9.685  13.680  0.0128 -0.0097  0.2050
26872W        W43720   0.566   1.344   2.006  0.0707  0.0036 -0.1362
26873W        W43721  11.348  13.196   1.599 -0.2897  0.1724 -0.0775
26874W        W43722   7.471   0.377  11.603 -0.4292 -0.0961  0.2909
26875W        W43723  13.389  16.198   3.816 -0.0421  0.0019  0.1731
26876W        W43724  12.563   3.990   1.212  0.2154 -0.1291 -0.0538
26877W        W43725   0.368   9.018  11.936 -0.0717  0.1565 -0.0774
26878W        W43726   5.951  14.120  12.099  0.2148  0.2377  0.6031
26879W        W43727   4.397   1.780  15.969  0.3060 -0.2278  0.2021
26880W        W43728  12.283   5.751  12.843  0.0573  0.1491  0.0527
26881W        W43729   3.924   1.623  14.077  0.2945 -0.2521  0.1236
26882W        W43730   1.369   5.433   1.000 -0.0111 -0.1119 -0.2889
26883W        W43731   7.951   9.180   4.265  0.0287  0.2370 -0.1518
26884W        W43732   0.093   9.703   6.069  0.2825 -0.0634 -0.1171
26885W        W43733  10.306  12.282  15.826 -0.0701  0.2240  0.2168
26886W        W43734   5.719   6.396  15.525 -0.0134  0.1450 -0.2796
26887W        W43735  17.712   4.239   6.278  0.0734 -0.1546 -0.1517
26888W        W43736   3.341  16.257   1.160 -0.1278  0.1233 -0.0300
26889W        W43737   7.949  16.891  11.591  0.2277  0.0163  0.1637
26890W        W43738   4.715  14.978  16.452  0.0576  0.0898  0.2630
26891W        W43739  15.320  11.656   2.374  0.1933  0.2555  0.0507
26892W        W43740  11.374   7.136  12.184  0.1891 -0.1436  0.0084
26893W        W43741  14.075  12.160   0.489  0.0384  0.2506 -0.0001
26894W        W43742   1.839  14.312   5.680  0.0232  0.2037  0.3167
26895W        W43743  12.174  12.713  14.071 -0.1812 -0.0409  0.0620
26896W        W43744   4.515  12.530  12.009  0.1102 -0.2206  0.0278
26897W        W43745   4.981   7.386   0.447  0.0256 -0.1203 -0.0183
26898W        W43746   6.272   8.498   2.222 -0.2036  0.1776  0.0391
26899W        W43747  13.065   2.304  12.512 -0.0339  0.2295 -0.2172
26900W        W43748  11.721  15.885   3.051  0.1621  0.2356 -0.0768
26901W        W43749  16.356   5.651  13.392 -0.0630  0.2481  0.2286
26902W        W43750   6.400   3.175   4.818  0.3899 -0.2724  0.0681
26903W        W43751   3.105   6.399  16.293  0.0262  0.0249  0.0400
26904W        W43752  12.199   0.430   5.325  0.1069  0.1616 -0.3623
26905W        W43753  16.663   3.858  11.265 -0.0765 -0.1678 -0.2510
26906W        W43754   7.492   3.418   3.883 -0.0083  0.1268  0.0533
26907W        W43755  12.167   4.674  13.092  0.1145  0.0317 -0.0959
26908W        W43756   4.232  11.202   3.129  0.2897  0.3964  0.0184
26909W        W43757   0.876  12.848   1.033 -0.2672 -0.2236  0.0277
26910W        W43758  12.527   4.656  15.554  0.0045  0.1462  0.3017
26911W        W43759  15.183  10.184  12.670 -0.0739 -0.0297  0.1019
26912W        W43760   7.593  12.295  15.416 -0.0002 -0.0889 -0.2538
26913W        W43761  13.390   1.290  14.734  0.3044  0.0252 -0.3839
26914W        W43762  15.856  12.190  12.833 -0.2153 -0.0867  0.1170
26915W        W43763   3.561   9.989   2.969 -0.1477 -0.2896  0.2534
26916W        W43764  13.625  17.844   2.774 -0.2524  0.1002 -0.2321
26917W        W43765   4.610   0.991   2.417 -0.0574 -0.0334  0.0972
26918W        W43766  16.218  17.055   4.760 -0.0234 -0.1029  0.1929
26919W        W43767   4.548  13.670  15.973  0.1158 -0.2135 -0.0047
26920W        W43768   6.242  13.889   1.915 -0.0492 -0.0955 -0.0769
26921W        W43769  11.675   9.420   3.584  0.2031  0.1337 -0.1337
26922W        W43770   5.081  13.192  13.566 -0.2456 -0.0682 -0.1014
26923W        W43771   4.555   5.714   0.418  0.2714 -0.0630 -0.3893
26924W        W43772   2.519  12.482  13.975  0.0111  0.2723  0.3208
26925W        W43773   1.985   4.488  11.172 -0.0006  0.0896  0.0405
26926W        W43774   6.006   0.228  12.717 -0.0601 -0.2261 -0.0243
26927W        W43775   0.697  14.340  16.186 -0.0298  0.1474 -0.1671
26928W        W43776   2.500  10.984   0.205  0.1014 -0.2357 -0.4060
26929W        W43777   1.388   6.760  12.968  0.0586  0.0065  0.2183
26930W        W43778  10.294  17.398  15.586 -0.1523  0.0360 -0.0843
26931W        W43779   3.883  12.272   0.757 -0.1018 -0.3775  0.1223
26932W        W43780   0.039   8.993   0.937  0.1578  0.0830  0.1551
26933W        W43781  14.213   1.927  12.392 -0.0591  0.2035 -0.0868
26934W        W43782   9.288   5.430   4.632  0.0371 -0.0561 -0.0017
26935W        W43783  12.754  14.917   0.496 -0.2169 -0.0226 -0.2569
26936W        W43784   2.339   5.213   4.554 -0.1215  0.1485 -0.2550
26937W        W43785   4.927  16.116   3.687 -0.0106 -0.0051  0.1136
26938W        W43786  13.208   7.195   4.103  0.0216  0.0418  0.2333
26939W        W43787   9.001   3.684  10.766  0.1293  0.1890 -0.1285
26940W        W43788   6.308   1.518   2.936 -0.1151  0.2449  0.4110
26941W        W43789   7.839   7.546   2.009  0.1068 -0.0777 -0.0041
26942W        W43790  10.474  16.808  14.935 -0.1908  0.1316  0.0063
26943W        W43791   5.537  15.604  13.207 -0.0511  0.4433  0.0807
26944W        W43792   9.795   2.767   0.555  0.3371  0.1685  0.2970
26945W        W43793   0.110  10.981  15.934 -0.0731  0.2420  0.0293
26946W        W43794   3.390   0.897   5.328 -0.0303  0.1686  0.1149
26947W        W43795   8.374  15.920  15.495 -0.1585 -0.0987  0.1621
26948W        W43796  10.194   1.079   3.901  0.0013  0.0625 -0.0435
26949W        W43797   6.837  10.183  15.937 -0.2601 -0.0448 -0.3100
26950W        W43798   8.904   2.744  13.961  0.0662 -0.1427 -0.3389
26951W        W43799   3.766  16.960   0.980  0.0859 -0.1919 -0.2872
26952W        W43800   6.467   3.679   2.084  0.1721 -0.1884 -0.1304
26953W        W43801  12.931   1.516   2.105  0.0663  0.3496  0.0248
26954W        W43802  15.466  11.137   2.236 -0.3668 -0.1681  0.0520
26955W        W43803   4.244   5.803   4.679  0.3602  0.1500 -0.0014
26956W        W43804  13.367  12.252  11.811 -0.0050 -0.2042  0.0909
26957W        W43805   4.354   0.709   5.594  0.0200 -0.0157  0.3055
26958W        W43806  11.314  17.344  12.067  0.0807 -0.1839 -0.0894
26959W        W43807   7.891   1.709  14.259  0.2769 -0.0507 -0.1905
26960W        W43808   7.298   1.361   0.123 -0.0921 -0.1291 -0.0578
26961W        W43809  10.462   9.223  15.514  0.5441  0.1930  0.0071
26962W        W43810  14.795   9.673   4.690 -0.2001 -0.0170  0.0982
26963W        W43811  13.706   3.858  13.099 -0.0255 -0.0269 -0.2022
26964W        W43812  10.932   4.776   4.587 -0.1560  0.2153 -0.2815
26965W        W43813   0.759   2.603  16.586 -0.0703  0.2110 -0.2420
26966W        W43814   6.805  10.684   2.304 -0.0183 -0.1149 -0.1226
26967W        W43815  14.569  13.246  13.192  0.1027 -0.0710 -0.3526
26968W        W43816  17.082   6.209   3.916  0.0652  0.1014  0.0458
26969W        W43817  15.027   7.792   2.934  0.0450  0.3598  0.1862
26970W        W43818   4.503   5.711  13.891 -0.2443  0.1785  0.1889
26971W        W43819   9.948  15.614   4.333 -0.1482 -0.2192  0.4180
26972W        W43820   9.230   1.187   3.616  0.0588 -0.2918 -0.0130
26973W        W43821  11.635   7.887  15.019 -0.1097 -0.4054 -0.1116
26974W        W43822   3.499  11.363  11.294  0.0780 -0.1233  0.1571
26975W        W43823   3.503   2.675  15.319  0.2280 -0.1958  0.2756
26976W        W43824   2.793   0.412  12.627 -0.3384  0.3548 -0.1181
26977W        W43825   5.242   1.399   0.584 -0.0062 -0.1501  0.1139
26978W        W43826   0.827   0.172   2.046 -0.4687  0.0696  0.0086
26979W        W43827   2.727  13.721   2.452 -0.2198  0.1448 -0.1748
26980W        W43828  17.570   0.155  16.083  0.3366 -0.0960  0.1766
26981W        W43829  17.806  14.489   5.296  0.1440 -0.0746  0.3103
26982W        W43830   3.232  14.824   5.083 -0.3231  0.0582  0.1265
26983W        W43831   0.812  14.992  11.824  0.0496 -0.1085  0.0914
26984W        W43832  14.512   4.011   3.041  0.0085  0.0203  0.3819
26985W        W43833   3.281   7.977  15.289 -0.0110  0.0516 -0.1422
26986W        W43834   2.058   9.864   3.566 -0.1011  0.1151  0.0652
26987W        W43835   3.385   5.969  16.016  0.2640 -0.0216 -0.1755
26988W        W43836   9.617  13.701   2.171 -0.1276 -0.0295  0.1726
26989W        W43837  17.429   7.639   2.085 -0.0013 -0.0450  0.0334
26990W        W43838  12.747   8.158  15.815  0.0394 -0.1257  0.1974
26991W        W43839   1.750  11.697   2.975  0.0538 -0.3613  0.0318
26992W        W43840   9.969   0.202  14.234 -0.2111  0.1641  0.0496
26993W        W43841  17.028  14.882  15.070  0.4001 -0.4384 -0.0590
26994W        W43842   1.282  11.011  12.398 -0.3153 -0.1234 -0.0435
26995W        W43843   7.576  12.713   4.097  0.1446  0.2015 -0.2104
26996W        W43844   3.176   5.149  12.511 -0.1052  0.0679  0.0046
26997W        W43845   1.995  12.379   3.027  0.1064  0.0194 -0.1782
26998W        W43846  12.574   2.530  12.753  0.2027  0.1170 -0.0635
26999W        W43847   5.150   7.084   4.829  0.0299 -0.1868 -0.2818
27000W        W43848   6.023  13.856  11.581  0.0939 -0.3016  0.2108
27001W        W43849   0.245  13.252  14.433 -0.1992 -0.2432  0.0548
27002W        W43850  16.127  17.449  16.334  0.1183  0.1547  0.1887
27003W        W43851   6.700  16.397   0.571  0.0523  0.3523 -0.0643
27004W        W43852   0.737   4.901  15.112 -0.2185 -0.3063  0.0247
27005W        W43853  15.225   1.013  16.330 -0.1150  0.0652 -0.3119
27006W        W43854   7.062   0.503  12.315 -0.1911 -0.1258  0.1332
27007W        W43855   8.720   8.326  15.226 -0.0752  0.1261  0.2820
27008W        W43856   8.694  11.697   1.073  0.0109 -0.0088 -0.3099
27009W        W43857  11.198  13.214   2.997  0.1408 -0.0776 -0.0142
27010W        W43858  11.466  11.480  12.775 -0.1805  0.1468 -0.1295
27011W        W43859   0.518   6.452  11.785  0.1644 -0.0118 -0.0238
27012W        W43860   1.465  15.718  15.663  0.1038  0.1268  0.1880
27013W        W43861  12.271   2.777   3.463  0.1651  0.0222 -0.1727
27014W        W43862   6.971   7.401  11.974 -0.0482  0.3193  0.0174
27015W        W43863   0.150  12.368   0.684 -0.0297  0.1011 -0.0734
27016W        W43864  12.315   8.653   3.756  0.0960 -0.1975  0.3045
27017W        W43865   5.559   3.093  12.882  0.3295 -0.1321  0.1946
27018W        W43866  15.323   6.866  12.187  0.0540 -0.0547  0.1817
27019W        W43867  17.237   6.355  16.537  0.3413  0.0361 -0.2539
27020W        W43868  14.454   1.735   2.315 -0.3465  0.1164  0.0508
27021W        W43869   0.951   3.260   4.241 -0.1022  0.0748 -0.0580
27022W        W43870   8.476   6.145  11.752 -0.0163  0.1467  0.0777
27023W        W43871  11.910  13.894  15.405  0.0256  0.0814  0.1990
27024W        W43872  17.605   8.689  11.401  0.2646 -0.1285  0.2992
27025W        W43873   8.736   4.817  16.108  0.0971 -0.0535  0.0801
27026W        W43874   2.163   4.741  12.079 -0.0809  0.3879  0.0713
27027W        W43875  13.788  14.280   6.043  0.2550  0.3408  0.0128
27028W        W43876  10.030   8.865  12.544 -0.1743 -0.3515  0.1925
27029W        W43877   7.688   5.274   0.858  0.0681  0.3837  0.1112
27030W        W43878   7.063  12.681  14.826 -0.2781  0.1335 -0.2672
27031W        W43879   9.095  16.163   3.624 -0.0504 -0.2541 -0.1489
27032W        W43880   5.951   4.751   1.051  0.1604  0.1038  0.0831
27033W        W43881  12.407  11.996   2.220 -0.2718 -0.1524 -0.0559
27034W        W43882   7.918  16.624   3.370  0.1432 -0.2632 -0.0461
27035W        W43883   5.829  16.639  15.296 -0.0392 -0.1302 -0.0064
27036W        W43884   6.409   8.878   2.440 -0.0540 -0.4638 -0.1439
27037W        W43885   7.234   2.467   3.408  0.0433 -0.2269  0.2096
27038W        W43886  10.540  11.696  16.604  0.0872 -0.2135 -0.1865
27039W        W43887   0.728   2.330   3.855  0.1926 -0.0308 -0.0802
27040W        W43888  11.989  12.978   2.954  0.2973  0.0365 -0.1963
27041W        W43889  13.085   7.169  15.784  0.0249 -0.0730  0.1306
27042W        W43890  14.316  15.182   3.165  0.0044 -0.1641  0.1669
27043W        W43891   0.024   4.951   4.464  0.0686 -0.1794  0.3715
27044W        W43892   5.399  11.403   0.392  0.1757 -0.3065 -0.3115
27045W        W43893   9.430  15.071   4.476 -0.0987 -0.2357 -0.6632
27046W        W43894   0.409   9.947   0.544  0.2220  0.1068 -0.0321
27047W        W43895   7.787  16.365  13.737  0.0852 -0.0108 -0.0081
27048W        W43896   5.009   2.999   3.154  0.1240 -0.0219 -0.1283
27049W        W43897  16.764  12.537  13.063 -0.2812 -0.0988  0.2770
27050W        W43898  17.123   0.467   4.683  0.2704  0.0538 -0.2373
27051W        W43899   9.485  11.200   3.938  0.0912 -0.0537  0.2041
27052W        W43900  16.335   4.202  13.235  0.1256  0.5293  0.0858
27053W        W43901   8.421  15.407  13.231  0.1598  0.1012 -0.1118
27054W        W43902   4.385   4.582   4.166 -0.0178 -0.1357  0.0434
27055W        W43903   8.253   3.619   3.751 -0.3490  0.1250  0.3322
27056W        W43904  11.379   1.909   1.989  0.2589 -0.1075 -0.1522
27057W        W43905   6.058   4.894  15.689  0.3546 -0.2486  0.1090
27058W        W43906  15.562   5.944   0.374  0.5035  0.0642  0.3478
27059W        W43907   4.508  11.843  16.109  0.0578  0.0518  0.2098
27060W        W43908  11.563  10.545  16.009 -0.0673 -0.1881 -0.0020
27061W        W43909  12.516   5.905   4.235  0.0303 -0.2858 -0.0380
27062W        W43910  16.312  14.347   1.176 -0.1163 -0.3425  0.0350
27063W        W43911   9.937  12.286  12.053  0.7142 -0.3039  0.0662
27064W        W43912  14.659  14.245   1.282  0.0716  0.1244  0.2919
27065W        W43913  17.605  17.417  12.800  0.2361 -0.0594  0.0748
27066W        W43914  15.078  11.663  12.164  0.0646 -0.0454 -0.1483
27067W        W43915  15.288  14.060   4.486 -0.1019  0.3060  0.0626
27068W        W43916   2.363  10.971   2.856  0.3030  0.2638 -0.0085
27069W        W43917  17.558  14.817   0.447 -0.1200 -0.0084  0.4040
27070W        W43918   6.537  12.619   2.041 -0.0005 -0.0828 -0.1197
27071W        W43919   2.727  15.973   2.050  0.2217 -0.2118  0.0288
27072W        W43920  12.057   9.084   1.052 -0.2632 -0.2873 -0.2624
27073W        W43921   0.488  13.904   3.317  0.0672  0.1622 -0.0565
27074W        W43922   6.784   0.853   4.736 -0.3420  0.2057 -0.0320
27075W        W43923  15.613   6.223   4.996 -0.1673 -0.0752  0.0335
27076W        W43924  13.097   7.081   0.834  0.0131 -0.0510 -0.2526
27077W        W43925   4.811   7.264  13.467 -0.0269 -0.0582  0.0761
27078W        W43926  10.762   3.996  12.174  0.2158  0.0843 -0.0680
27079W        W43927   5.042  14.667  13.956 -0.0440 -0.0803 -0.1738
27080W        W43928  11.766   1.056  13.752  0.1027  0.0602 -0.1843
27081W        W43929  16.852   3.375  16.442  0.0867 -0.2477  0.0950
27082W        W43930   3.062   3.334   4.685  0.1846 -0.0448  0.0306
27083W        W43931  16.217   6.002   4.222  0.1800 -0.2198  0.1253
27084W        W43932   5.242   7.907  12.827 -0.0715 -0.0796 -0.0686
27085W        W43933  17.598   8.855   1.397 -0.1632 -0.2053 -0.0810
27086W        W43934   7.327   6.584   1.096 -0.0084 -0.3317  0.0897
27087W        W43935  15.477   0.547  16.347 -0.2136 -0.0535  0.3946
27088W        W43936  12.167  11.044  12.221 -0.0777  0.2197  0.2378
27089W        W43937   2.855   8.317   2.941 -0.0200 -0.2045 -0.0713
27090W        W43938   4.453   2.819  13.789 -0.1060 -0.0309 -0.0161
27091W        W43939   8.433   8.060  14.646  0.1069 -0.1262  0.0399
27092W        W43940   5.548   1.002  12.820  0.1020 -0.0511 -0.1899
27093W        W43941  13.859   4.908   1.522 -0.1653 -0.0668  0.0312
27094W        W43942  12.430  16.611  14.303  0.1144  0.1120  0.2177
27095W        W43943   0.006  10.304  14.761 -0.1869 -0.1322  0.0424
27096W        W43944   5.429   3.538   2.161  0.2177  0.0978 -0.0677
27097W        W43945   8.598   6.204  16.087  0.0488  0.2980 -0.1220
27098W        W43946   9.499   1.526  14.214 -0.0465 -0.0395 -0.0043
27099W        W43947   2.883   5.018  15.124  0.0206 -0.1456  0.0936
27100W        W43948  11.494  17.323  15.608  0.0893 -0.0057 -0.0229
27101W        W43949   6.126   4.699  12.621 -0.0035 -0.1625 -0.0615
27102W        W43950  10.538  16.939   0.638 -0.2610 -0.1218  0.3205
27103W        W43951   1.979  14.430  16.513 -0.0132  0.0848 -0.0547
27104W        W43952   3.460   3.372   0.926 -0.0094  0.2919  0.0624
27105W        W43953   4.080   1.819  15.605  0.2515  0.0884 -0.2038
27106W        W43954   6.026  11.905  15.876  0.1628  0.2916  0.1442
27107W        W43955  13.389   6.278  11.732  0.0034  0.2864  0.1251
27108W        W43956   4.951   7.819  13.590 -0.4047 -0.0722 -0.3328
27109W        W43957  15.339  16.779   5.046  0.0563  0.1750  0.1225
27110W        W43958   6.419   8.767  14.786  0.2976  0.1372 -0.4565
27111W        W43959   9.468   1.507   0.238 -0.1000  0.4290  0.2594
27112W        W43960  13.269  10.421   4.837  0.1993 -0.1811  0.3714
27113W        W43961   9.134   7.859   0.048 -0.4588 -0.2061 -0.0378
27114W        W43962  16.200  11.864  13.571 -0.2345 -0.0430 -0.1199
27115W        W43963  16.695  14.841   4.929  0.3216  0.0192 -0.0305
27116W        W43964   9.401   0.508  13.491  0.1360 -0.2893  0.1729
27117W        W43965  11.866   3.289   0.496 -0.0876  0.4395  0.0288
27118W        W43966  12.839  16.150   5.355  0.0191  0.0735 -0.0101
27119W        W43967   1.978  15.034  12.047 -0.1302 -0.1067 -0.3113
27120W        W43968  16.353  15.716  13.111 -0.0209 -0.0369 -0.1828
27121W        W43969   0.339   4.188  14.962  0.0717  0.0290 -0.1744
27122W        W43970  17.325  14.933  16.030  0.2291 -0.0161 -0.2750
27123W        W43971   5.571  10.036  11.600  0.0606 -0.1681  0.1326
27124W        W43972  10.157   0.743  14.473  0.2376 -0.1214  0.0567
27125W        W43973   7.811  10.566  14.331  0.0511 -0.3129  0.2839
27126W        W43974  17.173  11.701  11.543 -0.3819  0.4374  0.3970
27127W        W43975  11.550  14.424  14.820 -0.1005 -0.0817 -0.0037
27128W        W43976  17.557   7.938  16.250  0.3947 -0.1990 -0.0639
27129W        W43977   1.358   5.081   2.923  0.2607 -0.3872  0.0205
27130W        W43978  10.892  16.681   0.126  0.1981 -0.3552 -0.0927
27131W        W43979   7.018   4.241   1.372 -0.1961  0.3122 -0.0298
27132W        W43980  14.113  16.760   0.749 -0.0061 -0.0621  0.0337
27133W        W43981   8.958   0.159   2.722  0.1574 -0.2033 -0.0869
27134W        W43982  14.002   1.193  14.562 -0.0733 -0.2690  0.0254
27135W        W43983  14.245   9.043  14.366  0.0824 -0.1204 -0.0642
27136W        W43984  17.721  12.721  11.967 -0.1437  0.0764  0.3268
27137W        W43985   5.037   8.825  12.541  0.1817  0.1206 -0.3697
27138W        W43986   9.926  11.018   4.772 -0.1816 -0.0154  0.0340
27139W        W43987   9.434   9.989  14.823  0.2575  0.0255 -0.1981
27140W        W43988   7.304   8.559  15.997  0.0290  0.1633 -0.0644
27141W        W43989  16.801   4.888  11.935  0.0714 -0.1395  0.1273
27142W        W43990   5.593  17.538  14.578  0.4315 -0.2018 -0.0026
27143W        W43991   5.277  14.271   1.973 -0.0934 -0.2644 -0.1019
27144W        W43992  11.579   8.892   1.130 -0.0145 -0.0182 -0.0257
27145W        W43993  10.826   0.309   0.241 -0.0240 -0.0353 -0.0220
27146W        W43994   1.759   2.792  14.569  0.0061 -0.2517  0.0001
27147W        W43995  13.668  12.377  16.177 -0.2384  0.4988 -0.0882
27148W        W43996   9.784  11.644  16.049 -0.1041  0.1566 -0.2895
27149W        W43997  12.483   5.441   5.368  0.1112  0.1936  0.2071
27150W        W43998   4.284   2.242   3.890 -0.0854  0.1455 -0.2107
27151W        W43999  14.113  11.807  15.626 -0.2208 -0.4651  0.1294
27152W        W44000   9.796   7.479   3.536  0.1088 -0.1282  0.0300
27153W        W44001   8.649   2.313   1.551  0.1816 -0.4498  0.2255
27154W        W44002   1.913  13.733   4.147  0.1964 -0.0256  0.2893
27155W        W44003  10.953   7.050   4.711  0.2231 -0.0237  0.2823
27156W        W44004   7.566   2.953   0.886 -0.1404  0.0676  0.2501
27157W        W44005   2.240   3.171   5.008  0.2761 -0.0275  0.1096
27158W        W44006   8.419  17.317  13.067 -0.2513 -0.0064  0.0975
27159W        W44007   4.018  13.659  14.959 -0.4148 -0.0764 -0.1818
27160W        W44008  14.951   9.749   1.906 -0.0362 -0.1141  0.0687
27161W        W44009   5.720   2.651  13.176  0.0008  0.0080  0.1763
27162W        W44010   5.213  13.878  11.529 -0.0581 -0.0691  0.0384
27163W        W44011   5.502  17.514  13.357  0.0662  0.1056 -0.0642
27164W        W44012  11.644  17.675  14.378  0.2904  0.0929 -0.1085
27165W        W44013  14.101  13.601  11.311  0.0053 -0.2458  0.0803
27166W        W44014  10.188   6.690   0.169 -0.0122  0.0998  0.1128
27167W        W44015  11.837  14.004  14.908 -0.0646  0.0446 -0.2277
27168W        W44016  15.602   2.530   4.325  0.0028 -0.0745 -0.0120
27169W        W44017   9.428   9.032  13.643  0.0419  0.1095 -0.0624
27170W        W44018  15.950   0.433   1.665 -0.0970  0.0436 -0.0172
27171W        W44019  15.603   7.298  14.697  0.1076 -0.1833 -0.0440
27172W        W44020  17.112  14.136   0.188  0.1125 -0.2879 -0.0118
27173W        W44021   1.130   4.091  11.593 -0.2264 -0.0284  0.2328
27174W        W44022   1.513  14.365  11.807 -0.2203 -0.0272 -0.0122
27175W        W44023   5.554  13.791   2.545  0.0035 -0.1395  0.0405
27176W        W44024   2.078  15.667   0.098 -0.0599 -0.2580 -0.1174
27177W        W44025  12.349  13.787  12.242 -0.2199 -0.0651  0.0214
27178W        W44026   2.405   6.026  14.436  0.1684 -0.2030 -0.0814
27179W        W44027   9.265   7.902   1.116 -0.0107 -0.0361 -0.1818
27180W        W44028  12.756  10.525   2.485 -0.0734 -0.1646  0.0737
27181W        W44029  13.663  17.126  13.074 -0.0180 -0.0383  0.0133
27182W        W44030   4.686  17.116   5.165 -0.1622  0.2044  0.2297
27183W        W44031  10.398   2.229  14.144  0.1324  0.0937 -0.0167
27184W        W44032   7.183   2.618  15.555 -0.1640 -0.2310  0.0422
27185W        W44033  14.724   5.134   4.140  0.0393 -0.1840 -0.1407
27186W        W44034  11.900  12.847  16.397  0.0518  0.0781 -0.2392
27187W        W44035  10.101  15.440  16.383  0.1308  0.0278  0.2684
27188W        W44036   2.652  14.495   0.428  0.0713  0.0984  0.0064
27189W        W44037   4.788   8.655  12.126  0.0468  0.0617 -0.2098
27190W        W44038   6.409  17.132   4.879 -0.0916  0.1897  0.1194
27191W        W44039  15.287   7.082  13.445 -0.1793  0.2370 -0.0699
27192W        W44040  16.741   9.392  12.202 -0.0951 -0.3205 -0.3529
27193W        W44041  12.706  10.767   1.977  0.1010  0.4866  0.2020
27194W        W44042   2.771   7.917  11.436  0.1214  0.1142 -0.2107
27195W        W44043   0.410  13.423  12.793 -0.1685  0.0711 -0.0422
27196W        W44044   9.940  10.356  12.914  0.1479 -0.0331 -0.0382
27197W        W44045   2.780  15.797   4.967 -0.1147  0.2149  0.2522
27198W        W44046  17.464   6.057  15.579 -0.0462  0.1195  0.0741
27199W        W44047   5.143   2.475   4.489  0.0815 -0.3217 -0.1716
27200W        W44048   7.476  12.371   4.925  0.1862  0.0088  0.0512
27201W        W44049  10.736   9.490   1.839  0.2681  0.0184 -0.1054
27202W        W44050  15.001   7.907  12.025 -0.2459 -0.1526  0.0874
27203W        W44051   4.695   7.319   0.869  0.0736  0.0719 -0.0447
27204W        W44052   3.082  13.699  14.379  0.0504  0.0074 -0.5503
27205W        W44053  15.784   7.619  15.131 -0.0054  0.0200  0.1531
27206W        W44054  13.969   2.110   2.162 -0.0442  0.0193 -0.1955
27207W        W44055   5.017   8.058  15.324  0.3096  0.3539 -0.3593
27208W        W44056   9.981   5.554  13.848  0.2937  0.1432  0.2547
27209W        W44057  17.338  10.956  14.553 -0.0602  0.1226  0.2393
27210W        W44058   7.312  17.710   1.977 -0.0265  0.0945  0.0486
27211W        W44059  10.431   7.695   3.079  0.1873  0.3202  0.3707
27212W        W44060  10.060   6.340  14.262  0.0780 -0.0561  0.2063
27213W        W44061   7.658   2.500   2.820 -0.0217 -0.0409 -0.0738
27214W        W44062   7.213  17.319   1.032  0.0359 -0.2730  0.0223
27215W        W44063   9.703  17.072  13.874 -0.0771  0.1275  0.2466
27216W        W44064   3.166   9.801  12.801  0.2169 -0.2579 -0.1503
27217W        W44065  14.396   2.080   0.299 -0.0480 -0.2763  0.0017
27218W        W44066  16.339  10.797   4.211 -0.0777 -0.3423  0.2513
27219W        W44067   4.914   0.507   4.826 -0.0760 -0.0699  0.0378
27220W        W44068   8.353  13.375  13.257 -0.1053 -0.0249  0.2327
27221W        W44069   6.129  10.281  15.799 -0.2081 -0.3900 -0.3025
27222W        W44070  16.094   7.612   3.515 -0.1551  0.2124 -0.1051
27223W        W44071  12.553  13.209  15.765 -0.0699  0.0997 -0.2240
27224W        W44072  11.143   4.175  11.455  0.0445 -0.0148 -0.1959
27225W        W44073  14.753  15.843   0.156  0.1505  0.0806 -0.1089
27226W        W44074  15.105  12.799   2.327 -0.3120 -0.0058  0.0892
27227W        W44075   0.698   3.762   2.608 -0.1997  0.0292 -0.1717
27228W        W44076  14.279   5.765   4.691 -0.0701  0.1462 -0.0679
27229W        W44077   3.635  12.792   5.965  0.0518  0.1919 -0.0486
27230W        W44078  10.054  15.503   1.990  0.0822  0.0797  0.1767
27231W        W44079   5.311   5.637   3.698  0.2596  0.0461  0.3128
27232W        W44080   9.370  14.773   3.458 -0.0111 -0.1202 -0.4454
27233W        W44081  12.029   0.395   2.381  0.0597  0.0589 -0.1939
27234W        W44082   4.564   5.355  12.121  0.1478 -0.2480 -0.2750
27235W        W44083   8.573   5.574   3.193  0.0204  0.2520 -0.2589
27236W        W44084   2.933  13.406  11.499  0.0474 -0.0349  0.0582
27237W        W44085   8.609  16.277   2.549 -0.3233 -0.3401  0.2901
27238W        W44086   4.509  15.898  14.833  0.3885  0.2355 -0.1462
27239W        W44087  10.546   1.594   1.792  0.0250 -0.0585  0.0954
27240W        W44088   8.347  13.444  16.561 -0.3093  0.2064 -0.0362
27241W        W44089   9.210  14.817  13.534  0.4242 -0.2426  0.0646
27242W        W44090   7.901   8.767  14.997  0.0179  0.0534 -0.0204
27243W        W44091  16.357  12.700   0.262  0.0469  0.0898  0.0516
27244W        W44092   5.647  15.101  13.049  0.0829  0.2983  0.2399
27245W        W44093  16.532  13.087  15.027  0.1421  0.0905 -0.0543
27246W        W44094  10.513   2.270   2.694 -0.0308 -0.2887 -0.0605
27247W        W44095   9.815  15.202  13.304 -0.0450  0.1668 -0.1319
27248W        W44096  12.171   7.963  12.233  0.0558 -0.0425  0.0837
27249W        W44097  12.608   8.907  16.444 -0.0611  0.1745  0.0345
27250W        W44098  14.827  17.032  11.858  0.1947 -0.0591 -0.2526
27251W        W44099   4.516  12.167   3.268  0.1916 -0.1343 -0.0627
27252W        W44100  13.857   3.103  11.858  0.2561  0.0083 -0.0602
27253W        W44101  17.070  14.712  12.284 -0.4581  0.1833 -0.0981
27254W        W44102   8.305  11.299   3.784 -0.3053  0.1122 -0.0822
27255W        W44103   1.629  12.331   1.245  0.0517 -0.1256  0.0400
27256W        W44104   0.533  11.066  15.598 -0.0809 -0.0409 -0.0851
27257W        W44105  11.878   8.258  11.935  0.3244 -0.0988  0.2129
27258W        W44106   8.927   9.100   0.726 -0.0517  0.0986  0.0636
27259W        W44107   1.751   7.414   3.211  0.2369  0.1367 -0.0892
27260W        W44108   2.009  14.285   4.034 -0.4236  0.0489 -0.0244
27261W        W44109   0.340   3.375  14.437 -0.0254 -0.1950  0.0625
27262W        W44110   2.719   6.817   2.282 -0.5189 -0.0943  0.2975
27263W        W44111  12.205   8.779   1.454 -0.1249  0.0162 -0.1423
27264W        W44112  13.159   8.120   4.623  0.1570  0.0516 -0.1425
27265W        W44113  10.309   9.259   1.552  0.4331 -0.3556 -0.2442
27266W        W44114  16.445  17.577  14.187  0.0658 -0.0275 -0.0338
27267W        W44115  14.566  14.347   3.077 -0.1350  0.0036  0.1455
27268W        W44116   3.741   8.720  12.451 -0.0118 -0.4644  0.1562
27269W        W44117  16.858  10.104  14.254 -0.1096  0.1263  0.0184
27270W        W44118   8.127  16.109   2.684 -0.1161  0.1665 -0.1014
27271W        W44119  11.411   0.984   4.185 -0.1812  0.1885  0.1110
27272W        W44120   0.974   3.904   5.000  0.1263 -0.0991  0.1181
27273W        W44121  10.739  14.314   1.399  0.0820  0.1442  0.1773
27274W        W44122  17.119   1.479  16.348  0.1286 -0.0870 -0.1837
27275W        W44123   9.659  10.740   1.562  0.0048  0.0649 -0.3526
27276W        W44124   9.332  10.537   4.007 -0.0664  0.1262  0.1272
27277W        W44125  15.990   6.146   1.906 -0.1887  0.0218 -0.0944
27278W        W44126   6.913   3.141  12.805 -0.2299 -0.2605 -0.1382
27279W        W44127   0.485  12.715   5.532  0.3239  0.0859 -0.1444
27280W        W44128   8.556   8.604  11.669  0.3139  0.0094  0.2448
27281W        W44129  12.049   1.465   4.789  0.0898 -0.1331 -0.0051
27282W        W44130   6.195   6.260  15.301 -0.0745  0.0271  0.1689
27283W        W44131   0.910   1.327  15.550  0.1367 -0.1522 -0.1406
27284W        W44132  16.060   6.097   3.510 -0.1250  0.0190 -0.0180
27285W        W44133   2.436   4.205  12.379 -0.2002  0.2976 -0.0868
27286W        W44134   6.426  14.032  14.336  0.4189 -0.0428 -0.0655
27287W        W44135  10.881   5.097  12.786 -0.2792  0.2442 -0.0598
27288W        W44136   9.110   8.473  14.308 -0.0225  0.0293 -0.0806
27289W        W44137  12.296   9.147  14.694  0.0395 -0.0382 -0.4764
27290W        W44138   4.207   8.487   2.857  0.2484 -0.1353  0.2152
27291W        W44139   1.172   0.753  12.468 -0.1058 -0.0108 -0.0345
27292W        W44140  17.497  11.472  13.793  0.1950  0.0553  0.0250
27293W        W44141  13.596  13.874  14.889  0.2745  0.1328  0.1319
27294W        W44142  11.037   4.237   0.679  0.0949  0.0597 -0.3442
27295W        W44143  15.757   1.929  13.953  0.1514  0.0966  0.1746
27296W        W44144   6.590   7.511  12.299  0.0189 -0.0918 -0.0598
27297W        W44145   1.541   9.984   0.153  0.0609  0.0682 -0.1313
27298W        W44146   1.116  15.704  14.075 -0.0823 -0.1392  0.0991
27299W        W44147  14.700  10.678  16.436 -0.1798  0.0186 -0.2434
27300W        W44148  13.664  17.646  13.083 -0.2064  0.2007 -0.2348
27301W        W44149   4.434   9.268   4.787  0.4055  0.0935  0.0884
27302W        W44150  10.511  15.484   1.504 -0.1687 -0.1280 -0.2127
27303W        W44151  12.547   0.509   2.134  0.1194 -0.0375  0.2390
27304W        W44152   5.125  13.602  14.485 -0.0883  0.1253  0.0100
27305W        W44153  13.422  14.487   2.501  0.3254  0.1057  0.3844
27306W        W44154  17.832   4.792  12.285 -0.0204 -0.1626  0.1770
27307W        W44155   9.217   1.795  12.005 -0.1307  0.0988 -0.4081
27308W        W44156  11.273   0.350  15.839 -0.0508 -0.0556 -0.1685
27309W        W44157  13.603   0.154   5.496  0.2573  0.1507 -0.1440
27310W        W44158   2.112   9.241   1.472 -0.1293  0.0900  0.0346
27311W        W44159  12.637   4.954   3.261  0.1524  0.1662 -0.0403
27312W        W44160   0.347  15.098  12.136  0.1273  0.0840 -0.1752
27313W        W44161  17.544  13.163  14.488 -0.0880 -0.2933 -0.1939
27314W        W44162  14.327  14.133   2.183  0.1989  0.0296 -0.1605
27315W        W44163   5.315  17.165   5.097  0.2119  0.1725  0.1069
27316W        W44164   3.261  10.245  13.113  0.1393 -0.0765  0.0333
27317W        W44165   2.881  12.086  14.231  0.1582 -0.1169  0.0069
27318W        W44166  14.108  16.466  12.262 -0.2319  0.1341  0.0070
27319W        W44167  13.973   2.312  12.661  0.0314 -0.2305 -0.3449
27320W        W44168  10.037   7.073   1.118  0.0046 -0.1669  0.0525
27321W        W44169  11.213   1.637   3.658 -0.2618  0.2846 -0.1986
27322W        W44170  13.853  14.046  15.259  0.0772  0.1278 -0.3270
27323W        W44171   2.009  15.186  12.937 -0.0146  0.0365  0.0460
27324W        W44172   9.169   3.913   2.617  0.0048  0.0118 -0.2388
27325W        W44173  14.008   6.564   0.096  0.0658 -0.3183  0.0660
27326W        W44174   3.747  11.632  15.724 -0.0882  0.1872  0.1254
27327W        W44175   3.604   7.646  15.594 -0.0055  0.1814 -0.1474
27328W        W44176  15.756   6.428  15.888 -0.0340  0.0037  0.1265
27329W        W44177   3.615   2.562   2.253 -0.0147  0.0819  0.0284
27330W        W44178  10.590  14.813   4.139  0.0887 -0.0552 -0.2309
27331W        W44179   3.805  13.007  12.548  0.1799  0.1098  0.0719
27332W        W44180   2.684  10.120   0.024 -0.0881  0.1695  0.1083
27333W        W44181  13.659   6.742   3.242 -0.1104  0.1512  0.1772
27334W        W44182   6.418   5.132   0.400 -0.1276 -0.0569  0.2140
27335W        W44183   9.779   8.585   4.878 -0.0279 -0.1979 -0.0182
27336W        W44184   3.462   4.000   1.395 -0.0654 -0.2575  0.3741
27337W        W44185   7.130  13.677   3.170 -0.1029 -0.0518  0.3307
27338W        W44186   7.386  17.137  14.293 -0.1862  0.0884 -0.2852
27339W        W44187  11.232   1.501  14.614 -0.0418 -0.2453  0.0113
27340W        W44188  14.101   8.281  11.605  0.3084 -0.0691 -0.1642
27341W        W44189   6.294  13.824  12.374  0.1489 -0.2522 -0.0626
27342W        W44190   9.590  17.851  16.495  0.3339 -0.0584 -0.1392
27343W        W44191  16.047   4.354   3.804  0.2537 -0.0723  0.0464
27344W        W44192   8.399   4.816   3.817  0.0188  0.1537  0.0233
27345W        W44193  17.271   5.599  13.708 -0.1171  0.3195  0.0462
27346W        W44194  12.840   9.373   1.169 -0.3976  0.1877 -0.2395
27347W        W44195   9.067   1.792   0.646 -0.0722  0.2775 -0.0924
27348W        W44196   4.281  15.663   2.893 -0.2560 -0.1176  0.0770
27349W        W44197  16.347  14.999  14.089  0.3122 -0.0254 -0.1634
27350W        W44198   0.961  17.681   3.183  0.2298  0.2698  0.1164
27351W        W44199   3.779  15.616   0.591 -0.1868 -0.0249 -0.1672
27352W        W44200   4.900   8.727  13.856 -0.1776  0.0642  0.0654
27353W        W44201  10.440   4.580   4.812  0.2125 -0.2595 -0.0903
27354W        W44202   6.534  12.283   2.483  0.2886  0.1375 -0.0549
27355W        W44203  15.168  14.243  15.954  0.3256 -0.0114 -0.3100
27356W        W44204   7.243  14.711  14.769 -0.0146 -0.5516 -0.0946
27357W        W44205   3.867   2.327  12.601  0.0315  0.0597 -0.0151
27358W        W44206  11.937  17.226   2.355  0.0317  0.0630  0.2135
27359W        W44207  10.628  16.668   2.163 -0.0744 -0.0322 -0.0510
27360W        W44208  12.617  11.095  12.476  0.0772  0.0101 -0.0495
27361W        W44209   0.706   2.138  11.832  0.2569  0.0127 -0.3142
27362W        W44210   1.641   1.858   6.249 -0.0843  0.0243 -0.2032
27363W        W44211   2.354  15.440  16.353 -0.0087  0.0846  0.2265
27364W        W44212  10.990  17.481   4.391 -0.1549 -0.1527  0.1503
27365W        W44213  11.756  15.321  12.923 -0.1367  0.0692 -0.1891
27366W        W44214   1.924  15.783  11.458 -0.1705 -0.1445 -0.0240
27367W        W44215   6.058  17.073  15.154 -0.1274  0.2687 -0.0190
27368W        W44216  15.409   3.327  15.595  0.1279 -0.0449 -0.0358
27369W        W44217   4.539  11.934  12.795  0.4083 -0.1144  0.1877
27370W        W44218   3.600   3.345  15.173  0.2040  0.1492  0.0111
27371W        W44219  14.021  17.080   2.025  0.0486 -0.0604 -0.1147
27372W        W44220   9.519  16.256  12.048  0.3162  0.0919 -0.1575
27373W        W44221  14.095   0.309   5.525 -0.2630  0.0330 -0.1755
27374W        W44222   6.229  13.311  11.402 -0.1393 -0.1077  0.1526
27375W        W44223  16.472   3.506   3.464  0.1267  0.3711  0.4489
27376W        W44224   7.656   4.517  10.909  0.3108 -0.0521 -0.0600
27377W        W44225  14.366  15.690   3.742 -0.1510  0.1155  0.2751
27378W        W44226   2.876   2.663  10.358 -0.0884 -0.0940 -0.0186
27379W        W44227  10.315  16.349   2.847  0.3003 -0.0888 -0.0469
27380W        W44228   7.143   7.983   0.715  0.1229  0.0074 -0.1256
27381W        W44229   9.706  14.282  15.884 -0.0063  0.2405  0.1559
27382W        W44230  12.267   5.911  11.035 -0.0278 -0.0383 -0.1784
27383W        W44231   4.337  14.083  12.160 -0.0740 -0.0248 -0.3146
27384W        W44232  10.183   9.004  15.911 -0.1775  0.0617 -0.0121
27385W        W44233  13.239  16.893  12.414 -0.3075  0.0491  0.1211
27386W        W44234   0.786  12.920  15.519  0.2008  0.2521  0.0057
27387W        W44235  16.157  15.972  16.146 -0.1359 -0.1988  0.1458
27388W        W44236  15.997   3.813  15.983 -0.0012  0.0130  0.0584
27389W        W44237   8.478  13.135  11.408 -0.2129  0.0976  0.0723
27390W        W44238   3.803   3.004  10.220  0.1247  0.0332 -0.1583
27391W        W44239  17.740   8.410  12.649  0.0828 -0.0848  0.1010
27392W        W44240   7.788   4.913   5.283 -0.0735 -0.2858  0.0092
27393W        W44241  10.897   5.675   0.425  0.1601  0.0385  0.2899
27394W        W44242   3.562   3.489  11.508 -0.1089 -0.0323 -0.0974
27395W        W44243  15.499   4.865  13.961 -0.4469  0.1046 -0.0811
27396W        W44244   3.982   9.980  15.996  0.0461 -0.2822 -0.4673
27397W        W44245  16.749   9.912  13.806 -0.0210 -0.2136 -0.3099
27398W        W44246   4.355  11.599   4.914 -0.2652  0.1103  0.2585
27399W        W44247  10.944  10.925   2.563  0.2333 -0.0368 -0.0494
27400W        W44248   0.052   7.871   1.586  0.3513 -0.1338  0.2031
27401W        W44249   6.007  14.513   2.850  0.3841  0.1929  0.1738
27402W        W44250   7.878   1.007  12.254  0.3527 -0.1570  0.1542
27403W        W44251  13.724  10.403   1.453  0.0482  0.1131  0.3258
27404W        W44252   1.582  15.825   0.054 -0.0753  0.1172  0.2144
27405W        W44253  16.545   3.933  14.069 -0.1711  0.3901 -0.0157
27406W        W44254  14.625   2.079  12.584 -0.2643  0.1230 -0.0905
27407W        W44255   9.150  11.918  13.400 -0.1435 -0.0588  0.4172
27408W        W44256  10.600   6.539  11.952  0.0524  0.2088  0.0550
27409W        W44257  10.174  11.171  13.298 -0.0737  0.2812  0.0334
27410W        W44258   5.864   8.054   0.378 -0.1282 -0.1355  0.0992
27411W        W44259  16.564  10.526  14.162  0.0480  0.0291 -0.0403
27412W        W44260   3.831   4.230   1.873  0.1701 -0.1258  0.0451
27413W        W44261   1.591  12.713   3.434 -0.0683  0.2607 -0.1498
27414W        W44262   3.799  13.001  15.580 -0.3078  0.3221  0.2098
27415W        W44263  12.740   5.073   0.055 -0.3155  0.3951 -0.0785
27416W        W44264   8.255   6.002   0.737 -0.0264  0.2013 -0.1560
27417W        W44265  16.959  11.727   4.427  0.2662 -0.3545  0.1359
27418W        W44266  17.653  12.809  11.078  0.0467 -0.0712 -0.0180
27419W        W44267   4.731   8.396  16.273 -0.2355  0.2741  0.1469
27420W        W44268  15.497  13.627  12.262  0.1566  0.0117 -0.0575
27421W        W44269   1.339  15.545  10.588 -0.2026 -0.0824 -0.0584
27422W        W44270  16.175  10.478   1.120  0.3241  0.2523  0.0034
27423W        W44271  12.344  11.892  16.606 -0.0711 -0.0428  0.2939
27424W        W44272   9.610  13.415   5.295 -0.3044  0.0686  0.0654
27425W        W44273  13.271   3.922   1.790  0.1704 -0.0914 -0.2974
27426W        W44274   5.044  14.024  13.008  0.2964 -0.0361  0.0945
27427W        W44275   0.131   8.671   1.638  0.4229 -0.1640  0.3004
27428W        W44276   2.430  17.339  16.236 -0.2369 -0.0194  0.3831
27429W        W44277  14.143  17.611   4.890  0.2933  0.1118 -0.1372
27430W        W44278  16.824   0.838   6.579 -0.0159 -0.0168 -0.1373
27431W        W44279  15.907  14.744   4.401 -0.3070 -0.2360 -0.0857
27432W        W44280  15.930   7.137   4.525  0.0465 -0.1418  0.0642
27433W        W44281  11.171   8.663   0.140  0.0651 -0.3092 -0.1321
27434W        W44282   8.453  14.536   0.023  0.2145 -0.0988  0.0765
27435W        W44283   6.592   7.336   3.977 -0.0395  0.1257 -0.3394
27436W        W44284   4.886   6.561  13.124 -0.0690  0.0470  0.0608
27437W        W44285  17.108   4.022  11.572  0.0957 -0.1215  0.3074
27438W        W44286   9.076  13.553   5.306  0.4099 -0.0879  0.1603
27439W        W44287   6.053  15.190   4.576 -0.1715  0.1595  0.3804
27440W        W44288   8.703   6.639   4.854 -0.1386 -0.0517 -0.1085
27441W        W44289   2.646   6.074   3.099  0.1385 -0.0421  0.2320
27442W        W44290  14.933   2.667   1.946 -0.0495 -0.2645  0.2932
27443W        W44291  16.043  11.779   1.630  0.1536 -0.0817  0.0199
27444W        W44292  12.492  17.111  12.425 -0.2734 -0.0853  0.0413
27445W        W44293   3.586   3.088  10.671  0.0159  0.1107  0.1404
27446W        W44294   5.480   0.783  16.586 -0.4523 -0.2237 -0.0836
27447W        W44295   5.697   2.363   0.786 -0.3362 -0.1290  0.3664
27448W        W44296  13.708  12.258   3.486  0.2681 -0.0471 -0.2335
27449W        W44297  14.785   1.102  11.607 -0.0863 -0.0418 -0.0234
27450W        W44298   6.119   4.076   0.099 -0.1962 -0.0881  0.0409
27451W        W44299   9.441  15.655   1.408 -0.0773  0.5469  0.2354
27452W        W44300  13.577   8.429  13.550 -0.1866  0.0735 -0.0685
27453W        W44301  15.911  11.304   1.369 -0.3245  0.0121  0.1456
27454W        W44302  16.077   5.243   1.083  0.2054  0.0624 -0.1498
27455W        W44303   8.783   4.899  12.863 -0.2587 -0.0553 -0.1975
27456W        W44304  17.454   1.102  11.567  0.0589  0.4318  0.3504
27457W        W44305   5.421   7.804  13.742 -0.0835 -0.1385  0.0750
27458W        W44306   6.517   3.753  13.292  0.1763  0.4002 -0.1464
27459W        W44307   0.146   5.429  13.561 -0.0648 -0.1640  0.1981
27460W        W44308   9.301   9.411  12.138 -0.0388 -0.0529  0.0298
27461W        W44309   1.087   0.088   4.990  0.0808  0.4030  0.0298
27462W        W44310   0.925   5.699   3.676 -0.0404  0.0343  0.0962
27463W        W44311   4.988  17.423   3.862 -0.4352  0.0893 -0.0095
27464W        W44312   8.656   6.867   2.885 -0.1728 -0.0874 -0.3128
27465W        W44313   6.879   6.754  15.977  0.0132 -0.2527 -0.1017
27466W        W44314   1.748   2.952   1.351  0.3898  0.0449  0.0128
27467W        W44315   6.740   2.293  15.470 -0.0048 -0.0437 -0.0044
27468W        W44316  14.232  13.358  11.829  0.0037  0.2275  0.1790
27469W        W44317   6.504  11.152  12.093  0.3263 -0.1956  0.1527
27470W        W44318  11.337  11.334  15.869 -0.1472  0.0742 -0.0946
27471W        W44319   9.597  17.004   4.217  0.2276  0.1182 -0.2004
27472W        W44320  15.938   4.742   1.107  0.0751 -0.0589 -0.1954
27473W        W44321   2.116  12.073   1.738  0.1479  0.0651 -0.0323
27474W        W44322  15.659   7.246  12.369  0.0973 -0.0774 -0.3619
27475W        W44323  13.259  15.687  15.397  0.0135  0.3038 -0.0882
27476W        W44324   5.245   6.093   3.940 -0.0371  0.0899 -0.1201
27477W        W44325   1.314  16.231  12.138 -0.0511 -0.1980 -0.0201
27478W        W44326   1.387  10.240   0.616  0.3070 -0.0582 -0.1320
27479W        W44327  10.612   9.655  16.502  0.1373 -0.6056  0.2369
27480W        W44328   4.770  16.924   1.943  0.0234  0.0145  0.0422
27481W        W44329   2.914   4.367   0.354  0.1272 -0.0055 -0.1073
27482W        W44330  10.701   2.581  13.783  0.1005 -0.1395  0.2531
27483W        W44331   9.943  13.739   1.226  0.2942  0.0356  0.0323
27484W        W44332   6.621   0.740   0.705  0.0750 -0.1737  0.0493
27485W        W44333   9.085  11.132   2.910 -0.1003 -0.1114  0.2517
27486W        W44334   4.245  17.031   1.160 -0.1141  0.2190 -0.0647
27487W        W44335   6.754  16.700  15.121 -0.0803 -0.1901  0.2597
27488W        W44336   4.963  13.878  15.137 -0.0723  0.2491 -0.0596
27489W        W44337  16.553  16.291  12.192 -0.0222 -0.1471  0.1115
27490W        W44338   9.939  11.046   0.441  0.0338 -0.1139  0.0520
27491W        W44339   9.135   4.359  12.720  0.3831 -0.2501  0.0630
27492W        W44340   1.020   5.096   0.167  0.0530 -0.1126  0.0084
27493W        W44341   5.203  16.939   0.887  0.0485 -0.3922  0.2645
27494W        W44342   6.065   9.971   4.209  0.1593  0.2383 -0.1122
27495W        W44343  12.588   2.333  12.280  0.0430  0.0897 -0.0227
27496W        W44344   1.549  10.128  15.504 -0.2744 -0.1077  0.0264
27497W        W44345   9.596   0.416  14.443  0.0634  0.1248 -0.1602
27498W        W44346   5.929  11.309  10.401  0.0931  0.1954 -0.0803
27499W        W44347   3.370   3.980  11.980  0.1707 -0.2010  0.0424
27500W        W44348  16.715  12.575  14.929 -0.0899  0.0097 -0.0889
27501W        W44349   1.166   5.799  16.341 -0.1392  0.0805  0.3283
27502W        W44350   1.794   9.794  15.225 -0.1074  0.1159  0.0745
27503W        W44351   9.349   1.810   1.054 -0.0428 -0.2050 -0.3108
27504W        W44352   9.171  14.335   3.340  0.1370  0.1432 -0.3594
27505W        W44353   0.490  10.032  12.658 -0.3329 -0.1287  0.2919
27506W        W44354   5.794  10.181   1.824 -0.0209  0.1956  0.1292
27507W        W44355  15.824   0.400   2.787  0.2648 -0.1770 -0.2597
27508W        W44356  17.538   1.498   0.909  0.1034 -0.3286 -0.0506
27509W        W44357  13.462   9.397   2.170  0.0987  0.0078  0.4690
27510W        W44358   4.344  14.706   4.406 -0.0471  0.1125  0.0911
27511W        W44359   0.641   2.220   5.118  0.0833  0.5285  0.3722
27512W        W44360  11.229   8.041   3.111  0.1442 -0.0732  0.2969
27513W        W44361  16.747   3.541  13.195 -0.3021  0.0325  0.2884
27514W        W44362   2.586  16.727   1.975 -0.2697 -0.0362  0.1840
27515W        W44363  11.538   4.636   0.764 -0.0304 -0.0772  0.2286
27516W        W44364  15.348   0.902  15.474 -0.1052 -0.1035  0.3258
27517W        W44365   3.812  11.588   3.091  0.0065 -0.2508  0.0357
27518W        W44366  11.597  10.774   0.249 -0.0780  0.0973 -0.2144
27519W        W44367  10.179   0.114  11.686 -0.0756 -0.3021  0.0077
27520W        W44368   6.509   1.338  10.798  0.5593 -0.2177  0.0175
27521W        W44369   9.813   6.616   4.210 -0.0661 -0.0597  0.1974
27522W        W44370   6.278  14.915   1.048 -0.0682  0.0583 -0.0007
27523W        W44371  12.347  17.156   3.203  0.3143  0.0819  0.2078
27524W        W44372   5.543   4.697   0.001 -0.0169  0.0358 -0.3666
27525W        W44373   9.362  10.203   0.023  0.1753 -0.4971  0.3903
27526W        W44374   4.757  12.340  14.778 -0.0728  0.0540 -0.0018
27527W        W44375   0.951   9.159   4.544  0.0704  0.0017 -0.2801
27528W        W44376  14.260   6.110   2.215  0.0515  0.1458 -0.1097
27529W        W44377  17.728  16.200  14.199  0.1048  0.2671  0.2452
27530W        W44378   4.526   5.479   3.930  0.2224  0.0714 -0.0725
27531W        W44379  14.896  10.709  15.092 -0.1593 -0.1106 -0.0467
27532W        W44380  10.623   2.610  12.099  0.1883  0.1523 -0.1717
27533W        W44381  11.139   0.249   4.143 -0.1189 -0.1874 -0.2881
27534W        W44382  10.269   5.329   3.194 -0.1192  0.0239  0.0395
27535W        W44383  16.905  11.617   2.614  0.2287  0.1333 -0.2288
27536W        W44384  12.648  15.058   1.928  0.0281 -0.0932  0.1092
27537W        W44385  12.375  12.189   1.230  0.4742 -0.0446 -0.0455
27538W        W44386   1.847  10.058  14.524  0.2304 -0.0402 -0.0509
27539W        W44387  15.889   6.595  15.412  0.2710  0.0157 -0.0171
27540W        W44388  15.078   6.068   1.666  0.0156  0.1808  0.0865
27541W        W44389  15.680   4.538   4.084 -0.0287  0.0340 -0.0011
27542W        W44390  14.955   9.447  14.860 -0.1074 -0.3593 -0.0346
27543W        W44391   2.382   8.618   0.960  0.2761 -0.0542 -0.1393
27544W        W44392   9.965  11.786  14.681  0.0142  0.1177  0.2711
27545W        W44393  14.610  11.411   0.736  0.0295 -0.1341 -0.2764
27546W        W44394  14.655  10.014   2.736 -0.2546 -0.1250  0.0009
27547W        W44395   4.272  11.538  16.458  0.0608 -0.3100 -0.3017
27548W        W44396   1.760   8.780   4.356  0.0302  0.0883 -0.1889
27549W        W44397   5.320   4.784  11.869  0.1095  0.2438  0.0629
27550W        W44398  11.228   9.425   1.965  0.1996 -0.2914 -0.0736
27551W        W44399   4.238   2.743   3.726  0.0400 -0.3547 -0.1156
27552W        W44400  12.444  15.062  12.276 -0.1353 -0.0746  0.0762
27553W        W44401   7.735  16.352   0.881  0.0980  0.0600 -0.1287
27554W        W44402   4.688  17.751   6.494  0.2006 -0.2457  0.1965
27555W        W44403   6.719   7.820  13.168 -0.3086 -0.0589 -0.0937
27556W        W44404  15.223   9.567   5.558  0.3187 -0.0076 -0.1889
27557W        W44405  10.949  17.108  16.439 -0.0715 -0.1509  0.1098
27558W        W44406   5.604   8.902  15.740  0.0721  0.1969 -0.1289
27559W        W44407   7.121   9.712  12.950 -0.1584 -0.0930 -0.3637
27560W        W44408  16.485   7.408   2.066 -0.2447  0.0791 -0.2213
27561W        W44409  10.957   4.713   0.561 -0.1190  0.1351  0.2949
27562W        W44410  12.007   5.349   1.412 -0.2161  0.0359 -0.0738
27563W        W44411  12.524   5.647   0.729  0.1020  0.1379 -0.0298
27564W        W44412  12.611  16.449   4.253  0.0891  0.1186  0.1627
27565W        W44413   5.949   5.984   1.886 -0.1803 -0.0141  0.0702
27566W        W44414   7.793   3.016   4.249  0.1078  0.0434  0.1844
27567W        W44415  12.015   8.675  15.450  0.0556 -0.0427  0.3809
27568W        W44416  14.866   1.364   2.053  0.0292 -0.0244 -0.0678
27569W        W44417   8.901   9.521  13.176  0.1006 -0.2106  0.4758
27570W        W44418   7.774  15.141  15.667 -0.2396  0.2935  0.0992
27571W        W44419   1.353  11.703   3.298 -0.1992  0.0971  0.0859
27572W        W44420  14.458   8.521   0.201  0.0960 -0.1793 -0.2752
27573W        W44421   1.930  13.749   6.217 -0.0068 -0.2430  0.0414
27574W        W44422  16.201  14.719  13.509  0.2035  0.0671 -0.1848
27575W        W44423  17.063   7.621  12.331  0.1859 -0.0509 -0.2829
27576W        W44424   1.009   0.482   4.126 -0.0062 -0.1739 -0.3119
27577W        W44425  14.531  17.852   1.176  0.1752 -0.0982  0.1013
27578W        W44426   7.837  14.873   4.959  0.1143 -0.1082 -0.1791
27579W        W44427   0.564   0.180  15.599 -0.2586  0.0485  0.0500
27580W        W44428  15.494  16.422   5.443 -0.1677 -0.0389 -0.0509
27581W        W44429  15.957  11.964  15.280 -0.0339  0.1898 -0.0397
27582W        W44430   8.713  11.483   1.890 -0.0899  0.0084  0.1950
27583W        W44431  11.314  16.560  15.044  0.1192  0.1124  0.3539
27584W        W44432  12.115   3.330  15.050  0.0515  0.2797 -0.1158
27585W        W44433  10.248  13.409   3.077 -0.0187  0.2719 -0.0963
27586W        W44434  14.868   4.373  15.653 -0.1803 -0.5139 -0.1001
27587W        W44435  14.039  17.523   4.330  0.0121  0.3073  0.0057
27588W        W44436   3.885  14.723  14.639 -0.0827  0.2071 -0.2342
27589W        W44437  10.494  13.012   2.256 -0.3230  0.0288  0.2528
27590W        W44438  16.155   0.487  15.374  0.0817 -0.0518 -0.0359
27591W        W44439   8.661   1.157  12.257 -0.2362 -0.1570 -0.2319
27592W        W44440  10.552  11.339   3.795 -0.3790 -0.0880  0.0292
27593W        W44441   9.893  12.022  15.741 -0.2256  0.2693 -0.0062
27594W        W44442  14.946   6.386  12.152 -0.0309  0.1341 -0.4276
27595W        W44443  16.373   2.922   2.546  0.0049  0.3170 -0.0718
27596W        W44444   9.334   6.558  15.006 -0.1524  0.1222 -0.0436
27597W        W44445   2.536  17.351  11.695 -0.0461  0.0391  0.1330
27598W        W44446  11.069  12.220  11.489 -0.0551  0.2103  0.0356
27599W        W44447   0.485   4.289   3.311  0.0467  0.0168 -0.0749
27600W        W44448  10.831  11.979  14.641 -0.1013 -0.0706  0.2245
27601W        W44449  12.047  17.819   2.622  0.0523 -0.1566  0.1653
27602W        W44450  17.315  11.835   1.568  0.0935 -0.0592  0.0706
27603W        W44451  12.049   6.977  14.919 -0.2656  0.1996 -0.2735
27604W        W44452  16.150  15.325   5.658  0.3906  0.0432 -0.1643
27605W        W44453   1.684  10.374   2.787  0.1370  0.1038  0.0859
27606W        W44454   7.393   0.597  15.622 -0.0653  0.4627  0.2391
27607W        W44455  15.944   2.000  12.708 -0.1682  0.1748  0.1184
27608W        W44456   8.169   6.967   2.824  0.0148  0.2030 -0.3423
27609W        W44457  12.217   7.318  15.740 -0.0210  0.0886  0.0086
27610W        W44458   1.516   3.035  14.956  0.2876  0.0339 -0.3537
27611W        W44459  13.883  11.106   3.433  0.2007 -0.1581  0.3521
27612W        W44460   1.661   5.558  14.619  0.0760  0.3082 -0.3036
27613W        W44461  15.809   9.138  11.224 -0.0876 -0.2784  0.0431
27614W        W44462  17.726   4.696  16.389  0.1123 -0.0111 -0.1649
27615W        W44463   3.410   9.193   1.828  0.0260 -0.3265 -0.2981
27616W        W44464   0.363  10.657   5.979  0.0361 -0.1687  0.1265
27617W        W44465   8.215  17.397   3.015 -0.1550 -0.2052  0.3499
27618W        W44466   5.317   3.215  12.433  0.0142 -0.2501 -0.0574
27619W        W44467  11.236   6.052   0.534  0.3441 -0.1758  0.0149
27620W        W44468   9.971   0.908  10.575  0.0491  0.0613 -0.0405
27621W        W44469   3.756   8.150  15.235  0.2733  0.2849 -0.0895
27622W        W44470  15.931   9.146   3.318 -0.1352  0.1545  0.1424
27623W        W44471   3.558  16.340   4.565 -0.1728  0.1516  0.1418
27624W        W44472  10.360   3.841   4.316 -0.0675  0.0295 -0.2709
27625W        W44473   8.193  16.133   5.094  0.1594 -0.1746  0.1568
27626W        W44474   9.866  14.737   0.280 -0.0297  0.0079 -0.2295
27627W        W44475   9.979   2.270  16.370 -0.1341  0.4281  0.1838
27628W        W44476   1.453   8.012  15.981  0.0719 -0.1278  0.0190
27629W        W44477  12.542  13.219  11.413  0.0607  0.1617 -0.0953
27630W        W44478  14.015   5.230   2.926  0.1478 -0.2894  0.3114
27631W        W44479   8.233   1.784   0.894  0.1817  0.0247 -0.5340
27632W        W44480  14.074   2.565   2.334  0.1474 -0.0351  0.0067
27633W        W44481  16.750  13.737   2.346 -0.2195  0.0961  0.1542
27634W        W44482  11.534   0.830   4.727 -0.2011 -0.1019  0.4242
27635W        W44483   6.837  15.217  14.728 -0.1267  0.0893 -0.2407
27636W        W44484   4.285  16.929   2.124  0.0040  0.4269  0.1000
27637W        W44485  16.040   6.434  11.760 -0.5241 -0.1161 -0.0121
27638W        W44486  11.008   8.713   3.988 -0.1823 -0.3267 -0.0496
27639W        W44487  15.822   8.966   4.501  0.0755  0.2550 -0.1412
27640W        W44488   8.520  17.559   3.311  0.2016  0.1368 -0.1092
27641W        W44489  13.436  13.906   1.645  0.0602 -0.1447 -0.0959
27642W        W44490   3.051  15.230  13.572 -0.0594  0.1882 -0.0166
27643W        W44491   3.254  11.364  12.508 -0.0988  0.3100 -0.0420
27644W        W44492   2.157  14.908   3.498 -0.2003 -0.0638 -0.3227
27645W        W44493  13.229  13.501   4.583 -0.0409  0.1142 -0.0531
27646W        W44494   7.400  10.121   3.878 -0.2754  0.1405 -0.1145
27647W        W44495  14.625   4.638  16.012  0.1726  0.0598 -0.2207
27648W        W44496  13.196   0.735  14.125 -0.0071 -0.0576 -0.1042
27649W        W44497   6.150   3.172   1.114  0.0350 -0.2473 -0.1027
27650W        W44498   6.247  10.345   0.062  0.0151 -0.2482 -0.1744
27651W        W44499  17.744  17.484   2.493 -0.3274 -0.0506  0.2728
27652W        W44500  12.080   7.370  14.287 -0.0456 -0.0665  0.0469
27653W        W44501  16.673  10.788  13.216  0.6106 -0.1277 -0.3817
27654W        W44502  17.496  12.271  14.987 -0.0512  0.3120  0.1066
27655W        W44503   9.619   7.789  13.227 -0.0046  0.0306 -0.0236
27656W        W44504  14.977  15.320   0.932 -0.0080 -0.0168 -0.4222
27657W        W44505   5.270   4.918  12.937  0.3278 -0.2621  0.1545
27658W        W44506   7.631   4.106  16.317  0.0846 -0.1959  0.0830
27659W        W44507  15.558   9.746  15.534 -0.2897  0.3123 -0.0478
27660W        W44508   9.513   3.271   0.842 -0.0828 -0.2438 -0.0712
27661W        W44509  16.982  12.066   0.683  0.0436  0.0407 -0.3164
27662W        W44510   3.280   7.296   0.188  0.1051 -0.0159 -0.1378
27663W        W44511  10.066   5.670  14.871  0.2782  0.0301  0.1309
27664W        W44512   7.848   3.658  12.914 -0.1256  0.1209 -0.0578
27665W        W44513  15.386  13.052   3.222 -0.1035 -0.1319  0.0126
27666W        W44514   0.164   7.658  12.770  0.0862 -0.1398  0.0262
27667W        W44515  17.007  12.630   4.982  0.0042 -0.0244  0.1786
27668W        W44516  17.139  13.165  16.351 -0.0391 -0.0030  0.2842
27669W        W44517  16.258  11.880  15.759 -0.1239 -0.0458 -0.2596
27670W        W44518  12.289   5.436  13.277  0.2923 -0.0243 -0.0506
27671W        W44519  13.211  15.984   1.059 -0.1495  0.2388 -0.1168
27672W        W44520   5.571  14.119   4.039 -0.3030  0.1938  0.0369
27673W        W44521   2.179  16.943  16.059 -0.0068  0.1196  0.2479
27674W        W44522   2.203   0.864  12.841  0.2454 -0.2822 -0.1034
27675W        W44523   1.010  14.706   3.666 -0.0459  0.0770  0.1272
27676W        W44524   7.877  17.544  16.555  0.1969  0.3082  0.3512
27677W        W44525   7.370  12.864  15.167  0.1042  0.1685 -0.0138
27678W        W44526  15.936  12.152  11.584  0.0173 -0.4171  0.0909
27679W        W44527   8.006  10.298   2.690  0.0719  0.0472 -0.1494
27680W        W44528   4.486  15.267   0.558 -0.0099  0.1008  0.0530
27681W        W44529  12.001   9.230   3.115 -0.2894 -0.3592 -0.3447
27682W        W44530  15.243  14.824  10.620  0.3318 -0.0612 -0.2541
27683W        W44531   9.723  14.628  13.543  0.1315  0.3223 -0.3535
27684W        W44532   1.019  15.783  15.966  0.2130 -0.0333 -0.3738
27685W        W44533  13.851  11.882  14.319 -0.0258 -0.1109 -0.1966
27686W        W44534  11.120   0.830  12.787  0.0376 -0.1060  0.0016
27687W        W44535   0.440   0.083  10.555 -0.0251  0.0935  0.1500
27688W        W44536  14.405   4.785   0.172 -0.2304 -0.0869 -0.1035
27689W        W44537  16.749  14.425   4.314 -0.0723 -0.1769 -0.3480
27690W        W44538   9.267  11.091  15.373  0.0326 -0.1430 -0.0125
27691W        W44539   9.801  10.295   2.753  0.2132  0.0914 -0.2320
27692W        W44540   6.696   0.095   0.472 -0.0728  0.0834  0.0774
27693W        W44541   8.403  14.842   5.218 -0.0721 -0.2383 -0.3237
27694W        W44542   9.129  13.645   0.270 -0.0131  0.1032 -0.1448
27695W        W44543  12.395   6.088  14.302  0.0039  0.1969 -0.1716
27696W        W44544  10.346   1.794  16.447 -0.0730  0.2151  0.0105
27697W        W44545   2.369   6.497  11.383 -0.2128  0.0313 -0.2526
27698W        W44546   1.901   4.961  10.925 -0.2624 -0.2788 -0.1118
27699W        W44547   3.794   1.598   2.600  0.0610  0.1214  0.2316
27700W        W44548   3.058   4.365   1.432  0.1089 -0.3150 -0.0744
27701W        W44549  11.025   5.606   4.361  0.0257 -0.4192 -0.1276
27702W        W44550   7.865  17.102   3.052  0.0570  0.1674 -0.0427
27703W        W44551   1.691  15.810   4.217  0.1073  0.0047 -0.1082
27704W        W44552  17.458  11.785   2.875 -0.0020 -0.0649  0.0327
27705W        W44553  12.435   4.165   3.417 -0.3728  0.3006 -0.1177
27706W        W44554  10.910  14.745  12.829 -0.2511  0.0154 -0.0526
27707W        W44555  11.429  12.634  16.563 -0.0473 -0.0995 -0.1174
27708W        W44556  17.533  12.728   5.043 -0.1306  0.0546 -0.0576
27709W        W44557   1.357   4.800  14.099  0.0355  0.0734  0.0272
27710W        W44558  13.476  11.856   3.839  0.1401 -0.2764  0.1672
27711W        W44559   8.185   8.476  10.832 -0.2908 -0.0490 -0.2819
27712W        W44560   7.098   1.056  15.432  0.1402  0.0020  0.0740
27713W        W44561  11.168   2.638  14.151  0.1262  0.0829 -0.0148
27714W        W44562  14.851   3.291  12.717  0.0447  0.0941 -0.2511
27715W        W44563   6.573  12.878   4.991  0.1757 -0.0715  0.0357
27716W        W44564  11.156  13.030  13.280 -0.1543 -0.1903  0.1837
27717W        W44565   7.050   6.073   2.063  0.0636  0.2630  0.1547
27718W        W44566  14.006   2.321   1.068 -0.3715  0.1599  0.1949
27719W        W44567   1.592   1.994  15.095  0.0437 -0.1827 -0.0231
27720W        W44568  17.709   8.208   4.722  0.0104 -0.0357  0.2375
27721W        W44569   6.869  11.968  12.157  0.1386 -0.2228 -0.0775
27722W        W44570  11.199  13.647   2.767 -0.0863  0.1653  0.0206
27723W        W44571   3.217  10.964  13.762 -0.4150 -0.2899 -0.0918
27724W        W44572   1.746   1.624  12.416  0.2624  0.2835  0.3900
27725W        W44573   0.388   3.594   4.429 -0.1146 -0.1759 -0.1299
27726W        W44574  17.540  11.006  15.027  0.1598  0.0239  0.1836
27727W        W44575  12.061  12.926   0.629  0.2360 -0.2363  0.2417
27728W        W44576   0.784  16.800  12.538 -0.1310 -0.3477  0.2426
27729W        W44577  16.951   2.108  11.053 -0.1215 -0.0986 -0.1108
27730W        W44578   4.020  14.764   1.995  0.1115 -0.0477  0.0701
27731W        W44579  11.575   3.502   2.184 -0.0825 -0.0982  0.2657
27732W        W44580  11.828   7.811   1.485  0.2180  0.1983  0.0026
27733W        W44581   3.113   7.106   1.125 -0.0606  0.0594 -0.1289
27734W        W44582   2.776   8.407  12.551  0.0958 -0.1766  0.0259
27735W        W44583   6.888  11.508  15.092 -0.1671  0.4013 -0.2005
27736W        W44584   1.808   1.356   0.244 -0.0721  0.1048 -0.1910
27737W        W44585  16.126  16.398  11.999  0.1442 -0.0357  0.2685
27738W        W44586   2.355  16.700   1.528  0.3845  0.0886  0.1394
27739W        W44587  16.752  13.936   3.639  0.1547  0.1258  0.1899
27740W        W44588  17.363   8.028  12.481  0.0367 -0.0163 -0.0949
27741W        W44589   1.909  14.846  12.626  0.2246 -0.1704  0.2081
27742W        W44590   6.918   6.938  10.986  0.2134  0.0070  0.1276
27743W        W44591   6.168  17.517   1.958  0.3405 -0.0314 -0.1097
27744W        W44592  14.059   1.752  15.241 -0.1812  0.2308 -0.2704
27745W        W44593  10.587  11.477  11.572  0.0340  0.2113  0.0419
27746W        W44594   0.590   7.814  15.952 -0.0863  0.0688  0.0423
27747W        W44595  17.746  14.744   1.615  0.0669 -0.1148 -0.0995
27748W        W44596   8.834   4.658   4.136  0.1836 -0.1772  0.0755
27749W        W44597  10.672  17.347   5.254  0.0510 -0.1150  0.1664
27750W        W44598  15.348  15.767  16.324  0.3396 -0.0640  0.4054
27751W        W44599  17.531   1.880   1.752 -0.2950 -0.1355 -0.1156
27752W        W44600  17.429   2.616   3.549 -0.0189 -0.3868  0.0095
27753W        W44601   6.301  16.824   4.428 -0.1984  0.0301 -0.0080
27754W        W44602   9.870   2.026  13.316  0.0542 -0.1979 -0.2520
27755W        W44603   4.238  13.004  13.772 -0.1235  0.4735 -0.2927
27756W        W44604   3.754   2.782   5.214  0.0818 -0.2068 -0.2036
27757W        W44605   7.673  11.952  11.690  0.0037 -0.0127 -0.1124
27758W        W44606   2.138   9.816  12.625 -0.0472  0.1515  0.1929
27759W        W44607  10.220  12.775   0.057 -0.1719  0.1216 -0.1189
27760W        W44608  16.577   2.491   0.626  0.0469  0.1289 -0.0444
27761W        W44609   9.036   2.678  12.877 -0.0083  0.0842  0.0010
27762W        W44610   4.639   3.273   3.020 -0.1648 -0.0381 -0.0262
27763W        W44611   5.297   7.374  12.730 -0.0134 -0.0203 -0.1431
27764W        W44612  15.857   7.101  13.791  0.1152  0.0664  0.0728
27765W        W44613   5.411  15.173  11.442  0.1406  0.0030  0.1717
27766W        W44614  16.792   2.161  13.678  0.0572  0.3382  0.0435
27767W        W44615   0.215  15.166   2.554 -0.0687  0.1063 -0.2922
27768W        W44616  15.639   9.668   3.406 -0.1715 -0.2136  0.0173
27769W        W44617  11.199  12.090   1.083  0.1658 -0.0886  0.2545
27770W        W44618   5.123  15.791  14.244  0.0717 -0.0025  0.2125
27771W        W44619  11.771  11.647  11.583  0.0523 -0.2027  0.1319
27772W        W44620  11.752   3.959   5.295 -0.0094 -0.0202 -0.0584
27773W        W44621   7.969  14.802   3.326 -0.0407  0.3112 -0.0221
27774W        W44622  14.045   8.216   3.257 -0.1268  0.2395 -0.2709
27775W        W44623   2.254  15.264   1.429 -0.0953 -0.2276  0.1321
27776W        W44624   8.904  12.895   1.759  0.1066  0.1580  0.3224
27777W        W44625  12.800   8.651   2.653 -0.0219 -0.0325  0.1292
27778W        W44626  16.865   9.047   3.845  0.0168  0.1597  0.0258
27779W        W44627   7.302   0.346   3.549  0.3369  0.2750  0.0601
27780W        W44628   6.973  13.439   0.845  0.1088  0.0331 -0.0055
27781W        W44629  17.232   1.365   4.328 -0.0141 -0.0404  0.1917
27782W        W44630  13.283   9.738  10.519 -0.1091 -0.2759  0.4855
27783W        W44631  13.922  13.556  14.817 -0.0673 -0.4623 -0.1481
27784W        W44632   7.946  17.714   4.069  0.2110 -0.1164 -0.0768
27785W        W44633   0.168  12.204  13.573 -0.0389 -0.1546 -0.0297
27786W        W44634  12.893  10.200   3.449  0.1015  0.0241  0.1373
27787W        W44635   9.886  14.385  13.022  0.1835 -0.2153 -0.0507
27788W        W44636   1.196  13.400  16.064  0.0154 -0.0619  0.1576
27789W        W44637   0.472   1.096  14.550  0.1754 -0.0288 -0.0222
27790W        W44638   6.283  12.405  12.977 -0.0857  0.1443 -0.2969
27791W        W44639   6.898  14.149   3.121 -0.1245  0.1610 -0.3888
27792W        W44640  11.624  11.325  16.311  0.1944 -0.0025 -0.0983
27793W        W44641   2.593  17.550   0.997  0.3324  0.0320  0.0431
27794W        W44642  13.304   9.842   3.767 -0.0311  0.0578  0.3041
27795W        W44643  16.936  10.817  15.607  0.0411 -0.1776  0.0114
27796W        W44644   5.219  15.286  12.110  0.0981  0.0604  0.0254
27797W        W44645   2.877  10.237  16.204  0.0230  0.1015 -0.0135
27798W        W44646   7.995   2.632   2.357 -0.3912  0.1991 -0.1504
27799W        W44647  12.254   5.869  15.149 -0.0912  0.2075  0.0772
27800W        W44648   6.136  16.994   0.930 -0.0997 -0.1556  0.0723
27801W        W44649   1.826  16.142   2.310 -0.1327  0.0189  0.0123
27802W        W44650   2.851   4.914  16.446 -0.1885 -0.1589 -0.4634
27803W        W44651  11.129   6.530   0.698 -0.1846  0.1041  0.1040
27804W        W44652   0.015   7.540   3.099  0.1327  0.4045 -0.2079
27805W        W44653  16.678  11.030  10.328 -0.1079 -0.0214 -0.1595
27806W        W44654   5.471   4.394  16.240  0.3381  0.0849 -0.1088
27807W        W44655  13.705   3.905  15.612  0.1224 -0.0288 -0.0274
27808W        W44656   1.876  16.611  15.855  0.1032  0.1535  0.2317
27809W        W44657   2.992  17.660  14.097  0.0682  0.1003  0.1551
27810W        W44658  16.148   8.712   0.729 -0.2239 -0.3406 -0.0533
27811W        W44659   3.030   7.570  14.150 -0.1538  0.0991 -0.1246
27812W        W44660   5.750  14.481   0.273  0.0798 -0.0063 -0.2055
27813W        W44661  14.460   0.929   4.418  0.0943  0.2771  0.0761
27814W        W44662   5.669  14.067   4.853  0.0943  0.2530 -0.1521
27815W        W44663   0.707   9.741  11.692  0.2359  0.2733  0.0120
27816W        W44664   1.905  12.215   2.550  0.0144  0.1615 -0.2089
27817W        W44665   5.654   3.858   1.817  0.3952 -0.0381 -0.1409
27818W        W44666   0.740   8.150   1.600  0.0859  0.1511 -0.1363
27819W        W44667  16.091  14.155   2.411 -0.0964 -0.0081  0.0931
27820W        W44668  15.986   3.376   3.373  0.2256 -0.1313 -0.0068
27821W        W44669   2.117   8.514   3.880  0.2189 -0.2593  0.0240
27822W        W44670  13.862   4.693   2.976  0.2207 -0.1524  0.0017
27823W        W44671   9.229   4.858  15.137 -0.0261  0.1505  0.1973
27824W        W44672   0.288  12.146   3.067  0.1669 -0.0847  0.1761
27825W        W44673  13.726   1.187   5.220 -0.1179  0.0684 -0.2814
27826W        W44674   8.135  12.042  13.128  0.1082  0.0295  0.1397
27827W        W44675   9.429   2.898   2.765  0.5187 -0.1667 -0.1497
27828W        W44676   0.239  17.478  15.714 -0.0824 -0.2136  0.1490
27829W        W44677  11.797  15.871   2.542 -0.0421  0.0179  0.1932
27830W        W44678  11.866  10.589   3.911  0.1334  0.0183 -0.3213
27831W        W44679   4.504   9.651  13.191 -0.0281  0.1018  0.1170
27832W        W44680   9.953  16.605  12.758  0.0751 -0.0603  0.1763
27833W        W44681  11.305   5.484   3.304 -0.1009  0.1789  0.1220
27834W        W44682   2.690  17.124   3.547  0.4473  0.0343 -0.0680
27835W        W44683  10.693  14.408  14.167  0.0814  0.5003 -0.0465
27836W        W44684  15.026   5.086   3.386 -0.0011  0.3520  0.0981
27837W        W44685  11.578   0.127  12.807 -0.0359 -0.1442  0.1202
27838W        W44686  16.012   7.794  13.532 -0.0273 -0.1155  0.2515
27839W        W44687   8.148   1.795  16.398 -0.2023 -0.4493 -0.0588
27840W        W44688  11.408   1.918   4.122  0.0846 -0.0963  0.0019
27841W        W44689   4.390   4.117  12.756 -0.1546 -0.1078  0.3023
27842W        W44690  14.766   7.721  12.885  0.0225 -0.0508 -0.3327
27843W        W44691   1.436   9.995  12.750 -0.1280 -0.2088  0.0415
27844W        W44692  16.458   8.795  15.677 -0.2788  0.1582  0.0816
27845W        W44693   2.454   0.303  14.508 -0.0376  0.3388 -0.0412
27846W        W44694   1.478   8.902  12.103 -0.1079 -0.0806 -0.0326
27847W        W44695  17.551   7.299  11.154 -0.0304  0.2577 -0.0241
27848W        W44696  17.816   6.696   5.311 -0.1134  0.2336  0.1117
27849W        W44697  15.333   6.247  13.810 -0.0311 -0.0246 -0.4354
27850W        W44698  11.184  12.685  11.559  0.1646  0.2184  0.3648
27851W        W44699   4.683   3.772   3.151  0.1276 -0.0250 -0.2065
27852W        W44700  10.223   1.974   3.626 -0.1901  0.2133 -0.1025
27853W        W44701  11.844  15.901   4.880  0.2913 -0.1293 -0.1960
27854W        W44702   2.132  16.817   2.208  0.2548 -0.0584  0.3205
27855W        W44703   4.748   5.309  14.772 -0.0889 -0.0214  0.1204
27856W        W44704  16.229   9.214  15.545  0.2092 -0.0560 -0.0070
27857W        W44705   3.462  14.898   1.980  0.0123 -0.2684  0.0552
27858W        W44706  10.564   8.952   0.866 -0.0768 -0.0694 -0.1078
27859W        W44707   2.641  10.218  11.469 -0.0686  0.1018 -0.1565
27860W        W44708  10.261   4.833  13.308  0.2443  0.1521  0.4523
27861W        W44709   1.387  15.949  12.785 -0.2278 -0.3321  0.1014
27862W        W44710  10.957  15.687   5.742 -0.0172 -0.1097 -0.1247
27863W        W44711   0.796  14.976   5.017 -0.0846  0.2386  0.1230
27864W        W44712   9.962   7.877   1.103  0.1250 -0.0695  0.3364
27865W        W44713  10.502  10.269  16.465 -0.5227  0.1463 -0.1207
27866W        W44714   3.824   5.218   3.664  0.4739 -0.1277 -0.0609
27867W        W44715   0.674   8.350   2.089  0.1131  0.3608 -0.0962
27868W        W44716  16.670   1.740  13.262  0.2801 -0.1473 -0.0653
27869W        W44717  15.305  13.603  13.868 -0.1615 -0.1885 -0.1697
27870W        W44718   0.169   9.934  10.375  0.1284 -0.1360  0.0016
27871W        W44719   1.824   1.696   2.373  0.0589 -0.1457  0.0786
27872W        W44720   1.248  10.679  13.489 -0.0043 -0.0955  0.1784
27873W        W44721  14.460   1.634   1.744 -0.0951 -0.1740  0.0439
27874W        W44722   5.230   7.529  16.613  0.1155  0.0998 -0.3500
27875W        W44723   0.268  15.467  14.416  0.3005  0.4237  0.2509
27876W        W44724   2.129   4.072   0.843 -0.0471 -0.1378 -0.2270
27877W        W44725  10.573   4.371   0.737  0.0548  0.2122 -0.0385
27878W        W44726   7.338  12.265   4.402 -0.0872 -0.1597 -0.0538
27879W        W44727   6.472   6.583  15.648  0.0236 -0.0341  0.0143
27880W        W44728  10.747   5.527  16.598 -0.0325 -0.1266  0.1667
27881W        W44729   8.534   4.251   0.295 -0.1088 -0.1144 -0.0729
27882W        W44730   8.237  10.394   0.487  0.0812  0.0638  0.4428
27883W        W44731   7.670  13.021  14.296  0.0239  0.2953  0.0955
27884W        W44732  13.955   5.241  12.009 -0.0313  0.1223  0.2242
27885W        W44733   4.372   1.356   4.577 -0.0897 -0.1570  0.2872
27886W        W44734  10.177   9.175  13.699 -0.1900 -0.1464 -0.2337
27887W        W44735   6.418  15.324   5.410  0.2117  0.2391 -0.0312
27888W        W44736  16.668   4.839  13.938  0.3438  0.0655  0.0846
27889W        W44737   1.411  16.377   2.584  0.0488 -0.1558  0.1525
27890W        W44738  12.855   7.857   4.301  0.3350  0.1094  0.2987
27891W        W44739   4.898   4.462  11.741 -0.0190  0.3195 -0.4798
27892W        W44740  10.886   8.534   0.646 -0.2227  0.0948  0.1600
27893W        W44741  10.955  12.177   4.102 -0.2761 -0.1052  0.2050
27894W        W44742   6.916   7.063   2.251 -0.1225  0.0609  0.2859
27895W        W44743   2.079   2.010   4.283 -0.0116  0.2541  0.0814
27896W        W44744  14.722   5.273   1.806  0.0235 -0.3006 -0.0856
27897W        W44745   3.681   1.514  15.933 -0.0793  0.0028 -0.1510
27898W        W44746  16.123  14.844  12.462 -0.4281  0.1840 -0.5405
27899W        W44747   2.636  11.713  11.809 -0.1953  0.1272 -0.2558
27900W        W44748   7.044   2.516   4.416 -0.0169  0.1913 -0.1878
27901W        W44749  17.076   2.369  15.811  0.1482  0.2358 -0.3554
27902W        W44750  10.018  10.795   3.537  0.0391 -0.0498  0.1139
27903W        W44751   5.947  11.905  10.337 -0.1839  0.2011  0.0158
27904W        W44752   3.374  17.592  11.618  0.2413 -0.0848  0.0378
27905W        W44753   2.953   6.500  11.822  0.1264  0.1486  0.2173
27906W        W44754   8.289  13.079   5.068 -0.1385 -0.1030  0.0284
27907W        W44755  17.093  14.453  14.743 -0.0915 -0.1319  0.1195
27908W        W44756   6.694   6.415  15.159  0.0430 -0.3132 -0.0698
27909W        W44757   9.763   1.036   3.466  0.7476  0.0352 -0.1541
27910W        W44758  14.104   6.085  14.957 -0.0270 -0.0583 -0.1310
27911W        W44759   9.289   2.997   4.918 -0.1525  0.0287  0.1305
27912W        W44760   3.406  13.299  11.243  0.1387  0.0286  0.0345
27913W        W44761   1.641   4.974   1.615  0.0418 -0.0588 -0.0581
27914W        W44762  13.129  11.312  10.539 -0.0034 -0.3857  0.0032
27915W        W44763   2.588   6.462  16.144  0.3219  0.3806  0.2025
27916W        W44764   0.473   5.749   2.428  0.0656  0.1132 -0.1281
27917W        W44765   7.858   7.075   5.188 -0.0493 -0.0179  0.0930
27918W        W44766  10.807  10.393   1.838  0.0589  0.0058 -0.0116
27919W        W44767   5.657   5.685  14.743 -0.1364 -0.0388  0.0668
27920W        W44768   4.448  16.623  14.000 -0.1519  0.2475 -0.2833
27921W        W44769   3.231   8.425   3.342 -0.0130  0.1185  0.3566
27922W        W44770  14.016   8.515  16.588  0.0748 -0.2440 -0.1236
27923W        W44771  15.057  10.986   0.011  0.1369  0.1206 -0.5802
27924W        W44772   5.328   9.440   5.018 -0.2532 -0.1352 -0.0185
27925W        W44773  12.539  12.758  11.834 -0.4963  0.1499  0.0345
27926W        W44774  16.298   1.702  11.772 -0.2937 -0.0644  0.2480
27927W        W44775  13.248   2.866  12.508 -0.0378  0.0841 -0.1341
27928W        W44776  16.099   6.692   5.062  0.0252  0.1447 -0.0648
27929W        W44777   7.637  11.745  16.619 -0.0876  0.2132 -0.3042
27930W        W44778  17.095   5.463   5.573 -0.0292  0.1776 -0.0428
27931W        W44779  14.856  10.096  14.259 -0.2113 -0.0780  0.1450
27932W        W44780   5.702  17.376   5.268  0.3192 -0.0180  0.2443
27933W        W44781  11.916  14.298   0.458  0.1667  0.1612  0.2036
27934W        W44782   7.975  17.362  12.365 -0.2631  0.2325 -0.3563
27935W        W44783   1.811  10.145  15.911  0.0293 -0.0909  0.2734
27936W        W44784  14.154  14.630   3.079 -0.0496 -0.1104 -0.1136
27937W        W44785  10.709   6.452  13.691 -0.1838 -0.0844  0.2590
27938W        W44786  15.392   8.512  11.430  0.2698 -0.0303  0.2263
27939W        W44787   4.466  13.240  11.837 -0.4819  0.0315  0.0756
27940W        W44788   7.962   0.206  11.799 -0.0083  0.2509 -0.0965
27941W        W44789  15.072   9.327  12.539 -0.0993 -0.0185  0.0018
27942W        W44790  15.649   3.150   3.052  0.0011 -0.1646 -0.0834
27943W        W44791  14.287  13.728  13.055  0.1335  0.0702 -0.2066
27944W        W44792   7.204   7.746  14.267  0.0365 -0.0765  0.3758
27945W        W44793   8.540  10.726   0.760  0.0252  0.0610 -0.0925
27946W        W44794  13.670   5.449   3.628  0.0846  0.2393 -0.3247
27947W        W44795   7.384  13.852  10.616 -0.0695  0.1464  0.1483
27948W        W44796   6.354  17.555  11.320  0.0724  0.1554  0.2111
27949W        W44797  11.053   1.296  12.081  0.4811 -0.2441 -0.1323
27950W        W44798   2.454   6.839  13.486 -0.0583 -0.0162 -0.0707
27951W        W44799   6.065  16.925  16.252 -0.1081 -0.1228 -0.0215
27952W        W44800   0.642   9.664  10.406  0.3137  0.0863  0.1530
27953W        W44801   0.564   0.490   4.387 -0.1533 -0.1246 -0.0008
27954W        W44802   8.081   0.550   2.372  0.0315  0.0394 -0.0642
27955W        W44803   5.287  12.435  14.153  0.2392  0.0686 -0.4045
27956W        W44804   9.344   4.140  16.242 -0.0061  0.1235 -0.0322
27957W        W44805  15.750   3.547   3.866  0.1152 -0.4077  0.2080
27958W        W44806   3.699  14.214   3.279 -0.1116  0.3228 -0.3522
27959W        W44807  13.352   1.981   4.211  0.3077 -0.2716 -0.0152
27960W        W44808   9.790   4.758  13.944 -0.1754 -0.0643 -0.0340
27961W        W44809   9.183  12.488   1.453  0.1489  0.1972 -0.2104
27962W        W44810   1.690  11.396  12.071 -0.0281 -0.1023  0.1900
27963W        W44811   1.190   9.723   2.238  0.0638  0.2482  0.1710
27964W        W44812  17.039   0.747  11.712 -0.3443 -0.1964 -0.0426
27965W        W44813  12.395  15.162  16.374 -0.1607 -0.2571 -0.3553
27966W        W44814   3.678   1.146  15.588 -0.1564  0.1631 -0.3322
27967W        W44815  13.415   8.290  16.049 -0.2471  0.3760 -0.2244
27968W        W44816   8.081  16.444  11.823  0.0395 -0.1363 -0.0427
27969W        W44817  14.790  17.073  16.363 -0.0561  0.0739 -0.0940
27970W        W44818   0.339  12.730  13.735 -0.0780  0.0668  0.0012
27971W        W44819   0.168   7.480  15.014 -0.1796 -0.0740  0.0879
27972W        W44820  15.792  13.282  13.980 -0.1702  0.0279  0.1623
27973W        W44821   2.833   4.945   3.429 -0.1451 -0.2345  0.1752
27974W        W44822   7.320   1.624   3.184 -0.0796  0.0778 -0.1227
27975W        W44823   5.062   3.590  16.244 -0.1177 -0.0020  0.1600
27976W        W44824   1.259   3.397  13.360 -0.0485  0.0746  0.0262
27977W        W44825   6.788   3.239   2.191  0.1349  0.0072  0.0087
27978W        W44826  13.437  11.900   2.604  0.0067  0.0321 -0.0140
27979W        W44827   4.570  15.912   5.444 -0.2425 -0.1913 -0.1076
27980W        W44828  10.778  12.958   5.084  0.2914 -0.0949 -0.0303
27981W        W44829   3.054   9.526  13.511  0.0745  0.1678  0.0627
27982W        W44830  15.982   4.993  14.692 -0.1035  0.0119  0.1688
27983W        W44831   9.029   6.904   3.214  0.2438 -0.1843 -0.1635
27984W        W44832  10.217   9.571   4.045 -0.1159 -0.0356  0.2549
27985W        W44833   7.576  15.974   0.140  0.0467 -0.2615 -0.0433
27986W        W44834   7.810   6.283  13.007 -0.0292 -0.0600  0.2998
27987W        W44835   4.298  14.652  13.533 -0.0398  0.3105 -0.0111
27988W        W44836  12.228   5.530   4.298  0.0734  0.1456 -0.0598
27989W        W44837   4.914  10.462  16.059 -0.1261  0.3699  0.1953
27990W        W44838  16.881  15.919   0.962  0.2457 -0.2419  0.0293
27991W        W44839  13.061   4.504   4.802  0.2225 -0.4275  0.2398
27992W        W44840   6.940  11.884  13.559  0.0904 -0.1942 -0.0703
27993W        W44841  11.515  17.819   0.776 -0.1091 -0.2584  0.1359
27994W        W44842   8.482  14.965   0.284 -0.0033 -0.0292 -0.0305
27995W        W44843  12.244   6.765   4.109  0.1708  0.1740 -0.1537
27996W        W44844   2.190  17.852   3.396  0.0255 -0.1867 -0.1725
27997W        W44845   8.096   2.130  16.016 -0.1012 -0.0112  0.0412
27998W        W44846  10.573  17.837  12.567  0.2760 -0.2089 -0.1199
27999W        W44847   6.554   1.048  15.174 -0.3510 -0.2842 -0.2024
28000W        W44848  11.992  17.656   2.162  0.3886 -0.3091  0.1127
28001W        W44849   4.944  15.287  15.525  0.0714  0.0925  0.2955
28002W        W44850  10.646   8.920  12.694  0.0419  0.3038 -0.2920
28003W        W44851   0.560   6.638   1.406  0.4229  0.1796  0.0604
28004W        W44852   2.328   0.835   3.198 -0.3239 -0.2242 -0.0300
28005W        W44853  17.441   2.037   0.844 -0.0122  0.0450  0.1907
28006W        W44854   9.436  11.512  13.350  0.1909  0.1380 -0.1109
28007W        W44855  15.817  13.318   1.202  0.0065  0.2027 -0.4596
28008W        W44856   0.167   8.792   3.906  0.3996 -0.0060  0.2935
28009W        W44857   3.043   6.112   2.688 -0.1789 -0.0074  0.2333
28010W        W44858  11.279   3.638   3.554 -0.1639 -0.0081 -0.1507
28011W        W44859  14.672   1.364   2.510  0.1319  0.0851  0.1839
28012W        W44860  14.845   1.856   3.272 -0.0471 -0.0394 -0.0067
28013W        W44861  11.560   1.466  11.797 -0.0394  0.2947  0.2127
28014W        W44862  13.605   7.625   2.112  0.1576 -0.0594  0.3025
28015W        W44863   5.106   8.005  16.235  0.1524  0.0648 -0.0928
28016W        W44864   4.500   8.187  15.352  0.2061  0.0492  0.0901
28017W        W44865   1.039   2.942   5.172  0.1926 -0.2715 -0.1472
28018W        W44866  15.224  14.405   3.807  0.2406 -0.0227 -0.0167
28019W        W44867  13.611  11.731  12.526  0.0254 -0.1038  0.0494
28020W        W44868  12.581   3.048  14.077  0.0646 -0.3402 -0.1294
28021W        W44869   4.568   3.964  14.340 -0.1626 -0.1855  0.1519
28022W        W44870   3.669  13.837  11.683  0.1489 -0.0219  0.2043
28023W        W44871   3.601  14.391  12.948  0.0818 -0.1478  0.2646
28024W        W44872  12.612   6.052   3.735 -0.2382 -0.1395  0.1090
28025W        W44873   6.051   5.594   1.580 -0.1516 -0.0052  0.1322
28026W        W44874  14.848  14.457  13.136 -0.0552  0.2307 -0.2103
28027W        W44875   1.083  13.896  13.661  0.1115  0.1566  0.0890
28028W        W44876   5.645   7.183  11.474  0.0292  0.0703 -0.1352
28029W        W44877   2.629   3.701  15.973  0.2555  0.0875 -0.2261
28030W        W44878  17.641  14.958  16.471 -0.0825 -0.1599 -0.2741
28031W        W44879  12.982   8.755   6.176 -0.3157 -0.1546  0.4030
28032W        W44880  11.004  13.141   2.044  0.2107  0.1234 -0.0466
28033W        W44881   4.362   2.534  11.320  0.0416  0.0015 -0.4232
28034W        W44882  13.433  15.521   3.117  0.2410 -0.0700 -0.0953
28035W        W44883   1.263  14.617   1.076  0.0747 -0.1466  0.1070
28036W        W44884   6.954   5.518  11.040 -0.2170  0.0629  0.0300
28037W        W44885   2.685   4.633  15.995  0.0977 -0.0914 -0.1154
28038W        W44886  16.439   7.384   2.947  0.1465  0.0780  0.0612
28039W        W44887   6.745   0.985   3.620 -0.0629 -0.2911  0.0469
28040W        W44888  16.733   1.808  15.580  0.0140  0.1971 -0.0299
28041W        W44889  15.786   0.572   5.798  0.1421  0.0035  0.2749
28042W        W44890  15.150   7.453  11.183 -0.2861  0.1680  0.0933
28043W        W44891   8.898   9.421  11.795  0.1816 -0.2494  0.3435
28044W        W44892   5.132  16.132   2.274  0.1766 -0.0712  0.2038
28045W        W44893   8.398   6.191  15.123 -0.3085  0.0019  0.0686
28046W        W44894  11.118   1.055  14.771  0.1688  0.3503  0.0183
28047W        W44895  13.141   3.518   0.159  0.0082 -0.0187 -0.1683
28048W        W44896   6.994   8.698   4.435 -0.1808  0.0202 -0.0605
28049W        W44897   9.308  11.453  16.232  0.0681 -0.2502 -0.2581
28050W        W44898   1.132   1.203  15.981  0.0311 -0.2299 -0.0102
28051W        W44899   1.834  11.262  10.798  0.1785 -0.2297 -0.0208
28052W        W44900  10.909   2.100   4.897  0.1689  0.2498  0.2193
28053W        W44901   2.811   7.465   4.457  0.1246 -0.1245  0.2228
28054W        W44902  10.871  11.438  11.108 -0.4382  0.1759 -0.0639
28055W        W44903   1.401  15.095  14.233  0.0393  0.2628  0.0531
28056W        W44904   9.123  16.459  11.764  0.2073  0.1060  0.0916
28057W        W44905   7.515   5.729  15.189 -0.1230  0.2041  0.2222
28058W        W44906   8.120  17.154   3.530 -0.0858  0.0313  0.5828
28059W        W44907  16.754   8.984   3.211  0.0375  0.5837 -0.3325
28060W        W44908   1.902   7.991   1.950 -0.1370 -0.3291 -0.0165
28061W        W44909  17.688   8.407  16.541 -0.2255  0.0270 -0.5246
28062W        W44910   1.711   1.855  14.061 -0.1064  0.0139  0.1764
28063W        W44911   6.917  15.535   0.954  0.0138  0.2139 -0.0394
28064W        W44912   3.118   0.312   3.491  0.1413  0.1817 -0.0616
28065W        W44913  16.471  10.041  15.925  0.1370  0.0199  0.0122
28066W        W44914   5.849   3.451   4.317  0.3387  0.1160  0.1437
28067W        W44915   0.579  14.394   3.165 -0.2145 -0.2160 -0.1743
28068W        W44916  16.239  14.998   0.615 -0.0601  0.1355  0.2834
28069W        W44917  12.751   9.983  15.470 -0.1455  0.0137  0.1216
28070W        W44918  15.591   8.255  14.394  0.0696 -0.2181 -0.2650
28071W        W44919  15.156   3.863   3.200  0.1739 -0.0883 -0.3311
28072W        W44920   5.864  11.403  16.041 -0.1811  0.2389 -0.0409
28073W        W44921   9.633   5.416   3.956 -0.3286 -0.1726  0.1161
28074W        W44922  12.311  16.047  11.639 -0.1314 -0.0475  0.1114
28075W        W44923   9.445   8.420   2.133  0.0057  0.0036  0.0921
28076W        W44924  13.136   5.208   4.040 -0.1722  0.2891 -0.0688
28077W        W44925   0.405  10.700  11.356 -0.0575  0.2181 -0.1128
28078W        W44926  13.114  11.243   0.043  0.0058  0.2572 -0.0785
28079W        W44927   2.942   0.552  15.213  0.0767  0.0734 -0.1349
28080W        W44928   3.458   2.269   1.377  0.0354  0.0996 -0.0146
28081W        W44929  17.662   3.771  12.206  0.0619  0.1706 -0.3740
28082W        W44930   7.595   2.123  11.189  0.1115  0.3668 -0.1675
28083W        W44931  14.505  11.922  13.571  0.4324 -0.1115 -0.1212
28084W        W44932  12.845  11.224  15.888  0.1632  0.0202 -0.0152
28085W        W44933  10.152  16.789   1.069  0.0167  0.1826  0.1351
28086W        W44934   5.962  12.162  12.577  0.0485 -0.0857 -0.3614
28087W        W44935   8.469   4.901   4.298 -0.0318 -0.0380  0.0386
28088W        W44936  15.955   2.959  12.485 -0.3152  0.0317 -0.0665
28089W        W44937   9.529   5.455   1.704 -0.0676  0.0612 -0.3591
28090W        W44938   8.592  10.657   3.531 -0.2141 -0.1760  0.1363
28091W        W44939  12.053   5.041  16.481  0.1052  0.1281 -0.2153
28092W        W44940   0.844  10.217   0.817 -0.0321 -0.3630  0.0330
28093W        W44941   6.021   0.979   1.593 -0.1687  0.0147  0.0174
28094W        W44942   9.476   4.472  14.197  0.2194  0.1641  0.3629
28095W        W44943  13.966  15.492  13.007 -0.1741  0.0680  0.1663
28096W        W44944   1.635  13.374   5.376 -0.1198  0.3252 -0.0624
28097W        W44945  11.536   0.081   1.636 -0.0371  0.1017 -0.0528
28098W        W44946   3.566   2.488  13.569  0.5655  0.0721  0.1645
28099W        W44947  16.474   5.020   2.680 -0.0750 -0.1914 -0.0932
28100W        W44948  12.789   4.799   2.847 -0.0514 -0.3726 -0.1171
28101W        W44949   5.362   0.785  11.321 -0.4772 -0.0388  0.0953
28102W        W44950   7.705  10.130  15.690  0.1429 -0.0413  0.1916
28103W        W44951   7.339  13.071  13.925 -0.2485  0.1345 -0.0194
28104W        W44952   1.118  16.842  11.509  0.1927 -0.2018  0.1252
28105W        W44953   3.609   6.721  15.004  0.1954  0.1061 -0.0524
28106W        W44954   5.396  10.753   4.478 -0.3771 -0.3217  0.0372
28107W        W44955   6.009  13.375   5.306 -0.2257  0.4620  0.0994
28108W        W44956  12.345   4.747   0.908 -0.0916  0.0771  0.0372
28109W        W44957  16.679  16.598   3.855 -0.0412  0.0188 -0.1845
28110W        W44958  11.367   7.102   0.049  0.0085 -0.0744  0.3719
28111W        W44959  15.824  15.274  11.567 -0.0865  0.0369 -0.0837
28112W        W44960   7.424  10.795  12.493  0.2248 -0.0641 -0.0695
28113W        W44961   9.107   4.905   4.933 -0.3904 -0.0104  0.1404
28114W        W44962  11.730   5.485   0.976 -0.4394  0.1398  0.1895
28115W        W44963   1.851   0.097  14.580 -0.0962  0.2824 -0.0556
28116W        W44964  13.119  12.850   3.946 -0.1011 -0.0046 -0.0652
28117W        W44965   9.884   3.658   3.618  0.2763  0.3099  0.1974
28118W        W44966  14.093   4.518  15.800 -0.0727  0.1064  0.0563
28119W        W44967   7.575   5.345   1.343 -0.1735 -0.1860 -0.1553
28120W        W44968   1.803  17.670   0.068 -0.0714 -0.1465 -0.4198
28121W        W44969   4.393  10.157  15.392  0.1343  0.1236 -0.0441
28122W        W44970  17.613   1.920  15.788 -0.2805  0.0330 -0.0694
28123W        W44971  13.335   9.028   0.351  0.0112 -0.0551 -0.3313
28124W        W44972   9.912   4.972   1.620 -0.0466  0.0903 -0.0262
28125W        W44973   7.756   1.185   0.358  0.4255  0.3291  0.4767
28126W        W44974  14.895   8.895   1.895 -0.1645 -0.1236  0.0375
28127W        W44975   1.336  10.408   1.665  0.0711  0.0142 -0.1062
28128W        W44976  12.069   5.406   3.007  0.1369  0.0322 -0.2082
28129W        W44977   3.046   3.945   3.828 -0.0997 -0.0204 -0.1703
28130W        W44978  11.937   1.846   1.047  0.2204  0.0930  0.1317
28131W        W44979   9.078  17.554   0.971  0.0615  0.1917 -0.0320
28132W        W44980   4.589   7.097  12.157  0.0341  0.2307 -0.1914
28133W        W44981  17.304   1.828   1.283  0.0837  0.0519  0.0867
28134W        W44982  14.080  14.068  12.040 -0.2106 -0.1526  0.0164
28135W        W44983  15.582  13.022  11.558 -0.1821  0.3539  0.2022
28136W        W44984  12.604  10.089   2.778 -0.1234  0.2441 -0.0441
28137W        W44985  17.482   3.499  15.904 -0.1421 -0.1129  0.2565
28138W        W44986   0.687  15.503   5.151 -0.1976 -0.2730 -0.0592
28139W        W44987   2.004   5.441  12.171  0.1303  0.1503 -0.1863
28140W        W44988   0.003  11.728   3.234  0.0653  0.1415 -0.0522
28141W        W44989   4.439   0.275   0.388 -0.1686 -0.0046  0.2491
28142W        W44990   1.972   4.754   3.761  0.0163  0.0852  0.0318
28143W        W44991   2.342   2.445   4.460  0.0378 -0.2171 -0.3543
28144W        W44992   6.610   6.058  16.419  0.0438  0.0422 -0.0216
28145W        W44993   2.139   4.729   4.321 -0.2381  0.1119  0.1142
28146W        W44994   2.261  14.737  15.223 -0.1609  0.0501  0.0492
28147W        W44995  15.340   6.626   4.904  0.1649 -0.0339  0.1305
28148W        W44996  14.863   7.990   1.427  0.0306 -0.0505  0.0527
28149W        W44997   1.610  17.548  11.529 -0.0787 -0.0688 -0.0445
28150W        W44998   2.248  15.681  12.716  0.2061  0.0840  0.0287
28151W        W44999   2.549   7.943  12.389  0.3160  0.1582  0.0935
28152W        W45000   6.236  17.288  15.611  0.0293 -0.3703  0.0080
28153W        W45001   8.050  14.445  16.376  0.0368  0.0848  0.0301
28154W        W45002   4.361   8.602   1.136 -0.0540  0.1306  0.0951
28155W        W45003  17.794   2.582  16.324 -0.0972 -0.0822 -0.2050
28156W        W45004  15.481  14.171   4.948  0.2152 -0.1409 -0.0023
28157W        W45005  12.244   5.155   3.529 -0.3158 -0.2463  0.3221
28158W        W45006   6.982  11.630   1.722  0.0183  0.0136  0.2161
28159W        W45007  13.423  15.443   0.213 -0.1436  0.3566 -0.1054
28160W        W45008  16.519   8.980  11.943  0.1010  0.1013  0.0117
28161W        W45009   8.713   7.643  13.171  0.0604 -0.0032  0.1015
28162W        W45010  16.235  10.302   1.609 -0.1666 -0.3734 -0.0860
28163W        W45011   8.102   8.492   0.682 -0.0652  0.2601  0.1634
28164W        W45012  11.665   9.376  15.417  0.1291  0.1209  0.1900
28165W        W45013   4.713  12.339   5.207  0.3414 -0.0313  0.2206
28166W        W45014  12.293  12.302  14.449  0.3265  0.0288 -0.0552
28167W        W45015  16.602  15.558  12.717  0.2005  0.3675  0.0761
28168W        W45016  15.398  15.999   1.127 -0.2056 -0.1323  0.2459
28169W        W45017  13.631   0.937  16.335  0.1522  0.0553  0.4375
28170W        W45018  15.027   0.730  15.964  0.1238  0.0672  0.3054
28171W        W45019  13.746  12.902  12.899 -0.1144 -0.1222  0.0973
28172W        W45020   1.311  11.933   3.727 -0.2188 -0.0316 -0.2948
28173W        W45021  15.580  14.926   0.036 -0.2133 -0.1662 -0.1546
28174W        W45022  12.639  10.336  16.249 -0.1206 -0.1412  0.0527
28175W        W45023   7.852   6.525   4.494 -0.0896  0.0934  0.2126
28176W        W45024  12.678   1.221  14.194  0.0579 -0.3265  0.1091
28177W        W45025   0.679  11.257  15.059 -0.3053  0.1379 -0.0996
28178W        W45026  15.113  12.874  16.008 -0.1697 -0.1223 -0.0919
28179W        W45027  14.695   9.389  12.866 -0.1891  0.1583  0.1059
28180W        W45028   0.312   2.237  13.781  0.0130 -0.2928 -0.4328
28181W        W45029   9.326  17.178  12.960 -0.1966 -0.1219  0.2850
28182W        W45030  14.927  11.267   2.373 -0.2469 -0.0417 -0.0757
28183W        W45031   7.998   2.534  15.701  0.1966 -0.0029  0.1404
28184W        W45032   8.968  14.162   4.561  0.2217  0.0196 -0.2555
28185W        W45033  11.836   8.818  12.415  0.0581  0.3345 -0.2060
28186W        W45034   6.648  12.571  11.230  0.0453 -0.3015  0.0602
28187W        W45035  10.434   7.950   1.348  0.0420 -0.2385  0.1010
28188W        W45036  15.898  14.453  12.098 -0.1390 -0.0634  0.0201
28189W        W45037  13.870   4.706  11.679  0.2361  0.0206 -0.2909
28190W        W45038  17.133   5.043  11.478 -0.0236  0.1441  0.0451
28191W        W45039   1.764  14.496  13.658 -0.1417 -0.0385  0.0428
28192W        W45040  11.003  14.858  13.785 -0.1214 -0.0890  0.2100
28193W        W45041  10.080  14.409   0.739  0.0274  0.1657 -0.0639
28194W        W45042   5.167   0.515   4.370  0.1759 -0.3091  0.0609
28195W        W45043   0.484   9.281   4.921 -0.2998  0.0595  0.2008
28196W        W45044   6.123   9.229   4.538 -0.2698 -0.1715  0.3062
28197W        W45045   2.011   7.489   2.293  0.3378 -0.2966 -0.0079
28198W        W45046   7.413  16.776  13.885  0.0184  0.0537 -0.0371
28199W        W45047   5.448   8.182   4.733  0.0416  0.1049  0.1495
28200W        W45048  15.776   2.329   0.010  0.1666 -0.1331  0.0167
28201W        W45049   7.866  12.553   0.205  0.0398 -0.1227 -0.2691
28202W        W45050   4.977  11.207  14.452 -0.0907  0.0488 -0.1374
28203W        W45051   4.300   1.086   0.556 -0.0673 -0.1079  0.1229
28204W        W45052   4.516   1.202   1.512 -0.2947 -0.3678  0.2412
28205W        W45053  16.172  16.475  12.595 -0.2774  0.0368 -0.2323
28206W        W45054  14.668   0.218  13.151  0.0245 -0.0051  0.2335
28207W        W45055  10.329   8.425   2.599  0.0572 -0.0000  0.0464
28208W        W45056  17.023  11.506   0.362 -0.4357 -0.3641  0.2621
28209W        W45057  15.318  14.304  14.386  0.2090 -0.0847 -0.2727
28210W        W45058   7.449  11.621   3.370 -0.1905  0.1136  0.1339
28211W        W45059  13.252   4.728  16.035 -0.0042  0.1312 -0.1097
28212W        W45060   6.688   5.319  14.067 -0.1594  0.3065 -0.1656
28213W        W45061  14.355   2.422  15.787 -0.2509  0.0458 -0.0943
28214W        W45062   3.041   6.549   1.501 -0.1599  0.2171 -0.0938
28215W        W45063   0.094  12.458   5.081 -0.1296 -0.2372  0.1229
28216W        W45064  12.470  14.040   4.346 -0.1236 -0.1053  0.0804
28217W        W45065   4.395   8.187  15.820 -0.0983  0.1352 -0.0072
28218W        W45066   5.291   8.087  13.357 -0.1475  0.1333 -0.2334
28219W        W45067  13.259   3.320  15.032 -0.2967  0.0510 -0.1632
28220W        W45068   3.251  14.504   3.709 -0.2092 -0.2054 -0.0200
28221W        W45069   0.991  15.381   2.986  0.2563  0.2292 -0.3643
28222W        W45070   1.781   9.185   4.729 -0.2234  0.0255  0.0798
28223W        W45071   5.954   2.383  13.544  0.2708 -0.2386  0.2344
28224W        W45072  12.395  11.564  15.612 -0.2786 -0.1601  0.1881
28225W        W45073  15.836   5.285  11.347 -0.0340  0.2307  0.0221
28226W        W45074   6.224   2.699  10.854  0.1744  0.0430  0.0464
28227W        W45075   7.434  17.137  15.253 -0.2999  0.1094 -0.0551
28228W        W45076   4.227   8.084  12.032 -0.1043  0.3409 -0.1206
28229W        W45077  10.529  11.316   1.190 -0.1746  0.2048 -0.1250
28230W        W45078  17.801  16.018   1.142 -0.0421 -0.2247 -0.2022
28231W        W45079   2.419   0.491  11.606  0.1222  0.0744 -0.0400
28232W        W45080   6.555   2.339   5.968  0.0046 -0.0445 -0.2134
28233W        W45081  15.517   1.722   2.817  0.1677  0.1384  0.0479
28234W        W45082  17.622   8.260   1.399 -0.0516 -0.3996  0.3071
28235W        W45083  13.157   1.897   5.820  0.0413 -0.2223  0.1569
28236W        W45084   1.491  11.604  16.058 -0.0724 -0.0098  0.1214
28237W        W45085   2.956   9.157  16.011 -0.0964  0.0828  0.1411
28238W        W45086   6.977   5.393  13.103 -0.2222 -0.0411  0.0935
28239W        W45087  15.465   7.458   2.925 -0.0888 -0.0025  0.2266
28240W        W45088   3.685  10.087  11.744 -0.1565  0.1137 -0.2997
28241W        W45089   7.270  11.749   6.325  0.0687 -0.0420  0.0716
28242W        W45090  16.915  11.722   3.912 -0.2782 -0.0387 -0.2762
28243W        W45091   2.992   4.322  14.525 -0.1119  0.0613 -0.0136
28244W        W45092  12.137  16.201   3.212  0.1870  0.0378  0.0688
28245W        W45093   0.556   1.865   3.102  0.1631  0.1996 -0.0219
28246W        W45094   5.303   3.218  13.858 -0.3079 -0.1657  0.1389
28247W        W45095  13.604   8.673   4.217  0.0525  0.1619  0.0959
28248W        W45096   9.380   1.418   0.742 -0.2019 -0.2397  0.0087
28249W        W45097  10.642   4.677  12.778  0.2131  0.1734  0.0171
28250W        W45098  11.345  17.050  14.849  0.1135  0.1899  0.0712
28251W        W45099  15.059   5.015  16.065 -0.4209 -0.0686 -0.2265
28252W        W45100   3.948  17.594  14.231 -0.0361 -0.1241  0.2330
28253W        W45101   1.932  14.458   4.514 -0.0048  0.0537 -0.0056
28254W        W45102   9.430  17.854   2.735  0.3571 -0.0920  0.0327
28255W        W45103  10.062  13.946  12.980 -0.1511  0.0334  0.1431
28256W        W45104   4.066  16.918  13.134 -0.0866 -0.1147 -0.1121
28257W        W45105  16.435   4.247   3.464 -0.1279 -0.0750 -0.3396
28258W        W45106  10.011  13.673  15.763  0.0792 -0.3170  0.0448
28259W        W45107  12.264   9.226  14.198 -0.1729 -0.0572  0.4129
28260W        W45108   0.078   2.111  14.486  0.0578 -0.1001 -0.2464
28261W        W45109  13.314   9.834   5.897  0.2119  0.0792  0.1053
28262W        W45110   8.959  10.406   3.750 -0.3381  0.0020 -0.0285
28263W        W45111  14.992  16.092   2.312  0.4318  0.0350 -0.2693
28264W        W45112   9.517   0.017   3.199 -0.0421 -0.1278 -0.0053
28265W        W45113  10.473  17.736  13.527  0.1021  0.1547  0.4452
28266W        W45114   8.273   8.149  15.121 -0.2609 -0.1145 -0.0307
28267W        W45115  13.227   0.716  16.188  0.1426 -0.0485 -0.2727
28268W        W45116   1.843   0.955  13.763  0.0536  0.0356  0.3815
28269W        W45117   9.289   0.314   2.273  0.0655  0.3981 -0.0188
28270W        W45118  16.930  16.856  11.707 -0.0193 -0.0325  0.0071
28271W        W45119  13.052   7.569   2.931 -0.1299  0.1815  0.0474
28272W        W45120   9.139  14.874  14.819  0.3202 -0.1174  0.0428
28273W        W45121   3.794  16.965  14.612 -0.0363 -0.1443 -0.0585
28274W        W45122  17.857  16.906   2.164 -0.2881  0.3270  0.1930
28275W        W45123   9.947  12.882   0.828  0.3002 -0.0476  0.5399
28276W        W45124   0.899   0.587   2.468  0.2659 -0.1467  0.0713
28277W        W45125  14.502  10.392  15.557  0.2848 -0.1788 -0.1569
28278W        W45126   5.012   6.612   4.731 -0.2547 -0.0230  0.0492
28279W        W45127  16.999  10.108  14.747 -0.1766 -0.1920  0.0769
28280W        W45128   3.563   5.416   4.855 -0.2191  0.1711  0.0241
28281W        W45129   6.797  10.716   4.264  0.2003  0.0738 -0.1637
28282W        W45130  17.192   0.583  12.248  0.0098  0.0449  0.2438
28283W        W45131  10.099   6.410  16.304  0.3082 -0.0351  0.2435
28284W        W45132   0.708  10.404  13.498 -0.1264  0.0077 -0.3558
28285W        W45133  11.750   3.518   5.010 -0.0478 -0.1017  0.0366
28286W        W45134   7.889  13.958  15.880  0.0770  0.3712  0.0165
28287W        W45135  10.810   2.933  14.629  0.2111  0.1009 -0.2183
28288W        W45136  15.676   6.873  12.638  0.0371  0.1367  0.0847
28289W        W45137  16.923   3.432   2.516 -0.0103  0.3831  0.1443
28290W        W45138  11.453  14.800  12.966 -0.0856 -0.0447 -0.1397
28291W        W45139  17.161   3.716   1.634 -0.0661 -0.3923  0.0502
28292W        W45140   2.466   8.308  16.241  0.2114  0.0323  0.3052
28293W        W45141   6.463   7.274   2.402 -0.2713  0.0423 -0.1046
28294W        W45142  15.874   6.685   4.615  0.1780  0.1972 -0.1866
28295W        W45143  15.835   1.817   2.287  0.0314  0.0391  0.0054
28296W        W45144   8.584  15.963  14.532  0.0656  0.3413 -0.0677
28297W        W45145   4.076   9.259  11.787  0.0360 -0.1278 -0.0856
28298W        W45146  12.231   6.384   3.684  0.1987 -0.2097 -0.0182
28299W        W45147  13.315  17.183   4.469 -0.2080  0.4416 -0.1444
28300W        W45148   4.506   8.679  15.757  0.0648  0.2497  0.1063
28301W        W45149  16.086  16.141   4.904 -0.2492 -0.1455 -0.1423
28302W        W45150   7.282  17.648  16.486 -0.1558  0.0883  0.2033
28303W        W45151   3.601   2.979  13.286 -0.4687  0.2736 -0.2693
28304W        W45152  17.312  17.506   5.582 -0.3399  0.0006  0.0310
28305W        W45153   8.218   5.493   0.004 -0.2041  0.1355  0.0238
28306W        W45154   1.731   3.616  12.173 -0.0489 -0.0561 -0.1158
28307W        W45155  16.764  14.085  15.012 -0.2439 -0.1339  0.1774
28308W        W45156  17.451  15.437  16.119  0.0578 -0.3649 -0.0295
28309W        W45157   8.193  17.044   2.198  0.1194 -0.1380  0.3126
28310W        W45158  17.402   3.855   4.188 -0.0882 -0.0143  0.0485
28311W        W45159   4.349   4.696   2.542  0.1020 -0.0541 -0.0725
28312W        W45160  14.907  11.784  12.657 -0.0843 -0.3565  0.1812
28313W        W45161   6.611   3.360   5.293 -0.0478 -0.0927  0.1550
28314W        W45162  15.980   8.593  12.652  0.0191  0.1951 -0.1579
28315W        W45163   8.181  17.161   4.823  0.2776 -0.0566 -0.0894
28316W        W45164  13.156   3.508  16.271  0.3269  0.2018 -0.0596
28317W        W45165  12.847   8.194  12.785 -0.0197  0.1411  0.0192
28318W        W45166   0.604   3.162   0.551 -0.0970  0.1394 -0.0027
28319W        W45167   2.849   9.045  14.706  0.1038 -0.1188 -0.1654
28320W        W45168   2.809  11.643   4.953 -0.0397  0.0814  0.1000
28321W        W45169  17.770   8.211  15.372  0.1505  0.4528 -0.0216
28322W        W45170  16.581   8.836   2.634  0.1522 -0.2052 -0.0188
28323W        W45171  14.613   7.598  15.994 -0.0508 -0.1024  0.1140
28324W        W45172   4.903  10.690  14.710  0.1290  0.1502  0.0020
28325W        W45173  13.402   5.818   3.412 -0.1190  0.1014 -0.0063
28326W        W45174   9.769  13.902   5.043 -0.3282  0.1684 -0.3498
28327W        W45175  14.563   2.288   4.560  0.0291 -0.0844  0.0960
28328W        W45176   1.787  14.156  15.960 -0.0849 -0.1057 -0.2176
28329W        W45177   4.906   2.671   0.804  0.0290 -0.1225 -0.1004
28330W        W45178   6.924   9.206  12.985 -0.0851  0.3117 -0.0041
28331W        W45179  12.907  13.493   0.093 -0.1417  0.0571  0.0204
28332W        W45180   1.191   3.476   1.795 -0.2283  0.3760  0.2690
28333W        W45181   8.792   4.413   0.790 -0.1527 -0.0986  0.0532
28334W        W45182  16.181   9.175   0.863 -0.2128 -0.0405  0.1419
28335W        W45183  14.472  14.823  14.945  0.1373  0.2412 -0.0731
28336W        W45184   2.879  13.598  12.663 -0.0195 -0.0565  0.2705
28337W        W45185  12.727   2.395  11.687 -0.0701  0.1909 -0.1383
28338W        W45186   7.527   2.195   1.974 -0.2988  0.2360 -0.1293
28339W        W45187  16.264   9.145   4.762  0.1193  0.0093  0.0276
28340W        W45188  11.523  12.349   1.582  0.1588  0.3873  0.0371
28341W        W45189   0.053  10.689  12.453 -0.0213  0.5015  0.3130
28342W        W45190   0.235   7.209   2.189 -0.3563 -0.1246 -0.2358
28343W        W45191   6.979  12.491   3.320  0.1138  0.0007  0.1846
28344W        W45192   5.327  17.145   4.613  0.1029 -0.5115 -0.1235
28345W        W45193  10.733   1.662   4.260 -0.2753 -0.2617 -0.0534
28346W        W45194   7.198  16.749  14.852 -0.2001  0.3034 -0.2301
28347W        W45195   7.411   4.353   2.888 -0.1131  0.2337  0.1230
28348W        W45196  17.819  10.974  11.544 -0.2747 -0.1591  0.1635
28349W        W45197   5.029  12.769  11.389 -0.3904 -0.0385 -0.2257
28350W        W45198   8.765   3.459   1.316  0.0969  0.0542 -0.3709
28351W        W45199   0.504  13.528   2.074  0.1783  0.1589 -0.5553
28352W        W45200  11.264   9.197   2.573 -0.1933  0.0800 -0.1217
28353W        W45201  15.914   3.401   2.065 -0.2326 -0.3305 -0.3348
28354W        W45202   9.466  14.623   4.257 -0.1164  0.0593  0.0812
28355W        W45203  12.471  13.464   5.063  0.2638  0.0010 -0.1714
28356W        W45204  15.526   7.923  15.554  0.0952  0.4486 -0.0506
28357W        W45205   8.464   4.239  11.950 -0.0323 -0.0013 -0.1247
28358W        W45206   0.942  14.196   5.223  0.1351 -0.1917  0.0911
28359W        W45207   4.342  14.164  13.536  0.1918 -0.1058 -0.3607
28360W        W45208   4.248  12.619   5.229  0.0928 -0.1824 -0.0672
28361W        W45209   1.384  11.720  16.629  0.1764  0.1747 -0.0902
28362W        W45210  10.118   3.168  16.004 -0.0189 -0.0457  0.2010
28363W        W45211  15.339   8.705  13.894  0.1505  0.0589 -0.0776
28364W        W45212   3.060   6.467  15.166 -0.0134  0.1159 -0.2574
28365W        W45213  13.510  16.599  16.008  0.3559  0.3714  0.0080
28366W        W45214  16.949  12.220   4.641  0.2643  0.4951 -0.0410
28367W        W45215   9.305   4.249   4.516 -0.1504 -0.0777 -0.0403
28368W        W45216   7.134   2.843  13.660  0.0045 -0.0011  0.0450
28369W        W45217   6.910   1.841  15.716  0.0992 -0.1592  0.1126
28370W        W45218   4.954   0.697   3.251  0.0229 -0.1436 -0.1533
28371W        W45219   6.055   2.960  12.935  0.0858  0.0615 -0.2493
28372W        W45220   7.081  12.473  16.439  0.0775 -0.0760 -0.3165
28373W        W45221  12.966   3.309  13.834  0.4086  0.0556 -0.0422
28374W        W45222   9.071  15.745   3.287 -0.1630  0.2653 -0.2073
28375W        W45223   7.223  16.745  15.928 -0.0658 -0.1669  0.3826
28376W        W45224   0.759   7.083   2.498 -0.0845 -0.0164 -0.1535
28377W        W45225  14.702   7.598  16.494 -0.4875  0.0954 -0.0640
28378W        W45226   4.091   7.156   4.659 -0.0027 -0.0120 -0.0955
28379W        W45227   2.207  15.204   0.183 -0.0763 -0.1096 -0.0773
28380W        W45228  14.520  14.805   3.441  0.1342 -0.0216  0.1319
28381W        W45229  15.868  14.538   0.886  0.1222  0.0174 -0.1842
28382W        W45230  13.642   8.389   1.286  0.0032 -0.1395  0.0138
28383W        W45231  17.339  13.495   4.423 -0.0712 -0.1885 -0.1638
28384W        W45232   7.484   2.358  14.357 -0.0870  0.2548  0.1966
28385W        W45233  12.675  15.655   2.544  0.0737 -0.2079 -0.3130
28386W        W45234   5.403  14.062   3.376  0.1073  0.2176 -0.3267
28387W        W45235   7.268   9.603   3.915  0.1012  0.0314  0.1326
28388W        W45236   8.436   7.472  14.536 -0.1899 -0.1200  0.1023
28389W        W45237   2.450  14.993   5.070 -0.0356 -0.3122  0.0541
28390W        W45238   8.800  14.601  13.348 -0.2098 -0.1884  0.0698
28391W        W45239  15.451  13.817   5.790  0.0864 -0.1115  0.2239
28392W        W45240   7.159  15.802  11.918  0.3260 -0.0093  0.0604
28393W        W45241  13.986   6.606  12.067  0.2891  0.3952  0.3431
28394W        W45242   1.492  13.784  15.967 -0.0734 -0.2567  0.0579
28395W        W45243   4.134  17.226  11.755  0.0515 -0.1134 -0.3666
28396W        W45244  12.508   0.838   5.253 -0.1270 -0.2739 -0.0604
28397W        W45245   6.594  16.657  14.112 -0.0974 -0.1568  0.0153
28398W        W45246   6.524   4.841   3.386  0.1809  0.2724 -0.3056
28399W        W45247  14.097   6.871   2.365 -0.0809 -0.0848 -0.1571
28400W        W45248   9.672  15.352  15.323  0.1227  0.1630 -0.0484
28401W        W45249  11.317  15.526   4.045  0.1681 -0.2752 -0.2698
28402W        W45250  10.090   4.479  14.814  0.0803  0.3088  0.1247
28403W        W45251   5.912   8.791  14.920  0.0995  0.1181 -0.2020
28404W        W45252   0.031   7.050  14.657  0.2882 -0.1466  0.0013
28405W        W45253  16.899  14.811   3.109 -0.2017  0.1280 -0.1881
28406W        W45254   3.000   7.547  16.156  0.2154 -0.1885  0.1269
28407W        W45255   7.785   8.151  13.080 -0.1064 -0.1180 -0.1832
28408W        W45256   5.173   4.221   2.440  0.0749 -0.1573  0.0040
28409W        W45257   6.119  10.852  15.034  0.1593  0.1675 -0.2852
28410W        W45258   4.011  10.739  15.430  0.1394 -0.1878 -0.0711
28411W        W45259   9.342   5.650   0.905 -0.2029 -0.0914  0.0987
28412W        W45260   1.095   7.910  15.094 -0.0172  0.4136  0.0799
28413W        W45261  16.307   7.321  16.321  0.1152  0.1405 -0.0970
28414W        W45262  12.471   2.925   4.448 -0.4395 -0.0304 -0.1210
28415W        W45263   3.114   2.303  13.693 -0.2192 -0.2862 -0.0318
28416W        W45264   0.411   0.626  10.694 -0.0432 -0.2405 -0.2389
28417W        W45265  12.979   3.702  11.925 -0.0644  0.0347  0.0293
28418W        W45266  17.575  13.472  13.625 -0.4115  0.0036  0.1260
28419W        W45267   0.431   2.659   0.350  0.2661  0.2090 -0.1304
28420W        W45268  11.770  11.355   1.093 -0.3050 -0.0148  0.2080
28421W        W45269   4.640  15.416  13.534 -0.1038  0.0525 -0.2066
28422W        W45270  13.224  10.670   1.666 -0.0442 -0.1272  0.5793
28423W        W45271  13.159   6.618   3.018 -0.1111 -0.1682  0.0627
28424W        W45272   8.552   0.137   0.431  0.4082 -0.0492  0.2496
28425W        W45273   9.546   4.785  15.521  0.0504  0.3640  0.2024
28426W        W45274   1.784  17.337  12.259  0.4254 -0.1254 -0.1136
28427W        W45275   0.147   7.067  16.495  0.0018 -0.2060 -0.1690
28428W        W45276  17.460  14.058  14.025 -0.2522  0.0993  0.1340
28429W        W45277   3.694  10.263   1.514 -0.0090  0.2182  0.0982
28430W        W45278   3.915   4.851   2.333  0.0550  0.0507 -0.0020
28431W        W45279   1.159   7.049  11.713 -0.1086  0.1728 -0.2227
28432W        W45280   7.801  15.156  13.191 -0.1902  0.0196 -0.0952
28433W        W45281  17.756   2.394  15.820 -0.0626 -0.1197 -0.2148
28434W        W45282   1.018   1.434   1.910  0.0266  0.1801 -0.1260
28435W        W45283  14.724   2.107  13.128 -0.1255  0.0638  0.1536
28436W        W45284   0.787   5.980   4.121  0.0090  0.2734  0.1423
28437W        W45285   0.143  14.383   2.248 -0.1799 -0.0634 -0.0291
28438W        W45286  13.786   7.392   5.295 -0.0482 -0.0637 -0.0902
28439W        W45287  10.959   0.963   2.830  0.4474  0.1653  0.0808
28440W        W45288  12.742  15.149  12.741 -0.0827 -0.1092 -0.1946
28441W        W45289  15.926   0.967  12.558 -0.2271 -0.0670 -0.0497
28442W        W45290  10.417  16.289  12.724  0.1985  0.1204  0.0287
28443W        W45291   1.279   0.397  12.123  0.1952  0.0299 -0.1453
28444W        W45292   6.411   6.456  12.137  0.2505  0.3325 -0.3620
28445W        W45293  12.304  11.382  11.584 -0.1576 -0.0282 -0.0663
28446W        W45294  15.829   9.314  13.339 -0.2047 -0.2028 -0.0512
28447W        W45295  12.373  16.153  15.703 -0.3714 -0.1574  0.3343
28448W        W45296   1.120   5.177  14.290  0.0992  0.1148 -0.0484
28449W        W45297   0.538   2.531  15.288 -0.0066 -0.0005 -0.3387
28450W        W45298   4.489   6.114  11.928  0.5057 -0.7567 -0.1547
28451W        W45299  14.159  17.760  13.957  0.2510 -0.1173 -0.0961
28452W        W45300  14.772  10.817  11.678  0.0435  0.0453 -0.2093
28453W        W45301   9.922  14.657  12.595 -0.3670 -0.0719 -0.3914
28454W        W45302   2.524  11.026   4.075  0.2958 -0.0151  0.0685
28455W        W45303   7.575  15.416   0.056  0.0097  0.0435 -0.2216
28456W        W45304   4.341   6.634  12.911 -0.1496  0.0978 -0.0390
28457W        W45305  17.079  10.804  16.282 -0.0320  0.1307  0.0208
28458W        W45306   7.259  13.138   4.048  0.2531  0.1307 -0.0430
28459W        W45307  10.135  14.562   2.934  0.3409 -0.0654  0.0187
28460W        W45308  12.659   7.130   2.967  0.2151  0.2456 -0.1822
28461W        W45309   4.473  15.890   3.394  0.0217  0.1182  0.0936
28462W        W45310  12.917  13.054  16.525 -0.0032 -0.0616 -0.0920
28463W        W45311   2.773   8.024   1.675 -0.1787 -0.2377 -0.1978
28464W        W45312  14.840   6.909  13.088  0.0195 -0.6274  0.0842
28465W        W45313   7.514   4.831   1.048 -0.0975 -0.0793  0.1719
28466W        W45314   1.446   5.548   3.202 -0.0993  0.1753 -0.0694
28467W        W45315  10.063  11.266  16.063 -0.0461  0.3203 -0.3379
28468W        W45316  10.817   8.415  15.426  0.2497 -0.1804 -0.1659
28469W        W45317   5.022  11.342   0.039 -0.0774  0.1307 -0.3654
28470W        W45318  15.517  11.619   1.807 -0.1622  0.0659  0.0071
28471W        W45319  16.891   5.623  13.256  0.0420  0.2729 -0.0567
28472W        W45320   7.082   5.715  15.520  0.1304 -0.2537 -0.1116
28473W        W45321  11.952  11.434  13.122 -0.0083 -0.3226 -0.1197
28474W        W45322   5.153   0.632  12.671 -0.1420 -0.0945 -0.3761
28475W        W45323  10.311   4.023  15.653  0.3380 -0.2263  0.0788
28476W        W45324   8.952  14.144  14.056  0.2263  0.0888 -0.0400
28477W        W45325  14.698   5.867   2.796  0.0744  0.0344 -0.2770
28478W        W45326   6.877   1.750   5.134 -0.2928  0.1071 -0.0462
28479W        W45327  17.035  11.966   3.063 -0.1344  0.1556 -0.2090
28480W        W45328  17.356   2.363  12.401 -0.2462  0.2122 -0.1895
28481W        W45329   1.956   4.550   0.964 -0.0088 -0.1650  0.2455
28482W        W45330   3.792   0.504   3.340  0.0168 -0.1472 -0.0948
28483W        W45331   6.963   3.593   6.211  0.1436 -0.1222  0.0494
28484W        W45332   5.156  15.024   4.972  0.0074 -0.0114  0.1363
28485W        W45333  11.156   3.664   1.866  0.3474 -0.1768  0.1323
28486W        W45334   2.533   4.587   0.651 -0.2182 -0.0882  0.2792
28487W        W45335   8.747   4.398   3.146  0.2469 -0.0026  0.1366
28488W        W45336  16.812  16.750  14.074 -0.2832  0.0786  0.0402
28489W        W45337   1.062  13.384  14.848  0.2376  0.2038 -0.1442
28490W        W45338   3.345  17.185   5.222 -0.0334  0.1077 -0.1325
28491W        W45339   5.609   1.466   0.973  0.0191  0.2397 -0.0663
28492W        W45340  13.952  11.769   0.142  0.3037  0.1805 -0.0178
28493W        W45341   1.702   5.712   0.225  0.1013  0.0027 -0.3228
28494W        W45342   2.899   1.842   0.607 -0.0726  0.2392 -0.0407
28495W        W45343   6.616   2.662   0.266 -0.2706 -0.2881 -0.2527
28496W        W45344   9.062  10.470   4.545  0.1231 -0.4556  0.1723
28497W        W45345  16.734  13.972  13.285  0.0392  0.0373  0.1002
28498W        W45346  15.989  10.491  14.182  0.0990  0.1677 -0.3155
28499W        W45347   6.136   7.392   0.412 -0.2377 -0.4161  0.2085
28500W        W45348  13.981   0.585   2.277 -0.1738 -0.0189 -0.3329
28501W        W45349  11.928   8.706   0.762  0.0822  0.2581  0.0761
28502W        W45350   1.779   6.724  14.586 -0.1066 -0.0008 -0.0204
28503W        W45351   7.172   2.290  15.164  0.0070 -0.2763  0.2620
28504W        W45352  14.348   8.659  14.022  0.0358 -0.0268  0.1240
28505W        W45353  13.854  13.012   5.826  0.0405 -0.1160 -0.0773
28506W        W45354   5.325  10.974   2.620 -0.1172  0.1533 -0.0619
28507W        W45355  12.257  17.015   5.349 -0.0709 -0.1552  0.0212
28508W        W45356  12.290   8.234   2.817 -0.3018 -0.0673 -0.2190
28509W        W45357  13.883   7.460  12.393  0.0224  0.0854  0.0184
28510W        W45358   2.435   0.904  16.428 -0.2149 -0.3866  0.2289
28511W        W45359  13.053   2.221   0.089  0.0516  0.0276 -0.0506
28512W        W45360   9.211  15.891   2.222 -0.3731  0.2579  0.1584
28513W        W45361   5.752   5.910   3.986 -0.2805  0.1787 -0.1880
28514W        W45362  16.747   1.711  13.794 -0.0723 -0.1689  0.1006
28515W        W45363  17.295   3.912   3.332 -0.0866 -0.1428 -0.0275
28516W        W45364   6.050  16.999  14.020  0.5183  0.2811 -0.0830
28517W        W45365   5.224  16.867   0.149  0.0523 -0.3348 -0.1949
28518W        W45366  13.404   3.042   4.352  0.1794  0.0869 -0.2032
28519W        W45367   9.126   5.952   2.657  0.2037 -0.1333  0.0904
28520W        W45368   8.285   1.842   2.307  0.0864 -0.0935  0.1855
28521W        W45369  11.282  11.863   3.215  0.0646  0.3301  0.0052
28522W        W45370   9.864   5.166  15.680  0.2105 -0.0109 -0.1977
28523W        W45371   3.889   0.592   5.528 -0.1494 -0.0272 -0.1526
28524W        W45372   5.498  10.274  14.405  0.0377  0.1562  0.1048
28525W        W45373  12.083   5.253  12.243  0.0268  0.2048 -0.1322
28526W        W45374  15.061  13.803  16.401  0.2452 -0.0642  0.1903
28527W        W45375   7.653  14.389  15.067 -0.1301 -0.1711 -0.0975
28528W        W45376   1.413  11.612  11.555 -0.0879  0.3028  0.0247
28529W        W45377  13.658  16.230  16.630 -0.1849  0.1635 -0.0673
28530W        W45378  10.649   2.402   2.195  0.0924 -0.0946  0.0199
28531W        W45379   8.005   4.617  13.006 -0.2469  0.2949 -0.2226
28532W        W45380  10.718  12.039   1.331  0.1241 -0.0681  0.0348
28533W        W45381  11.920   8.263  14.245  0.2096  0.0145 -0.1343
28534W        W45382  16.920  12.168  15.193 -0.0935  0.0351  0.2712
28535W        W45383   6.772  11.181   2.546 -0.1160  0.1339  0.0391
28536W        W45384   2.669   7.181  14.787 -0.4437  0.1843 -0.1067
28537W        W45385  16.624  16.102  15.979  0.3531  0.1714  0.0290
28538W        W45386  11.445   2.214   5.391  0.1638  0.1035  0.0310
28539W        W45387   4.134  17.473  14.677  0.0626  0.0714 -0.2655
28540W        W45388   9.363   6.612  14.152  0.2031 -0.1751  0.2033
28541W        W45389   3.078  13.996   2.206 -0.2303 -0.2151  0.1798
28542W        W45390   9.788  12.546  16.542  0.0447 -0.0310  0.0914
28543W        W45391   2.903   4.242  12.763 -0.0618 -0.1581  0.1037
28544W        W45392   3.891   6.578   0.944  0.1727  0.0338  0.2376
28545W        W45393  16.127  17.623  12.570  0.0902 -0.0409  0.0879
28546W        W45394   6.356   5.529   3.792 -0.0785 -0.0255  0.0452
28547W        W45395   0.374  12.315  15.660 -0.3653 -0.1083  0.3296
28548W        W45396   5.872  10.466  13.271 -0.2436  0.0004 -0.3452
28549W        W45397   2.816  12.401  15.706  0.0075  0.2343  0.0721
28550W        W45398   6.702   2.532   5.264  0.2631 -0.0226  0.1125
28551W        W45399   7.406  13.859   1.213 -0.0879  0.2271  0.3044
28552W        W45400   6.516   5.086   2.329 -0.0688  0.1841 -0.2053
28553W        W45401   1.231  14.799   4.814  0.1340 -0.1350  0.3722
28554W        W45402   1.068  12.515  15.595  0.3906 -0.0941  0.1233
28555W        W45403   2.388   7.108   4.529 -0.0263  0.2384  0.2643
28556W        W45404   3.896   7.707  11.031 -0.1989  0.0828 -0.0334
28557W        W45405  13.485  14.086   2.899 -0.2204  0.1578 -0.0141
28558W        W45406   0.210   2.427   2.195  0.0422  0.0332 -0.1578
28559W        W45407  10.489   5.870   0.152 -0.1606  0.1302 -0.1619
28560W        W45408   5.833   9.925   5.976  0.2124  0.0091  0.0380
28561W        W45409   0.205  12.487  12.262 -0.1951 -0.1428 -0.2123
28562W        W45410   4.883  12.997   4.746  0.2885  0.0378 -0.1418
28563W        W45411  17.044   5.194  14.506 -0.1297 -0.2162 -0.0134
28564W        W45412  14.854   9.203   5.368  0.0793 -0.1764 -0.2230
28565W        W45413  17.643  11.690  14.280 -0.2093 -0.2041 -0.4085
28566W        W45414  15.056   3.127   1.766  0.1108 -0.0774  0.0217
28567W        W45415   0.321   1.912  12.344  0.2675  0.0600  0.0230
28568W        W45416   9.626  17.609  13.889  0.2302  0.0628  0.0021
28569W        W45417  14.259  13.310  13.611  0.0481 -0.0652  0.0410
28570W        W45418   5.878   0.464   1.743  0.0015 -0.0159  0.1131
28571W        W45419   3.706   5.303  14.746 -0.0206  0.0816 -0.2485
28572W        W45420   2.038  17.053  14.149 -0.1925 -0.0684 -0.1835
28573W        W45421   2.936  13.949  15.640 -0.0232 -0.3580 -0.1290
28574W        W45422  16.938   6.026  13.000 -0.0803 -0.0995  0.0806
28575W        W45423   7.886   3.694  15.668 -0.2416  0.2875  0.0122
28576W        W45424   3.581   8.829  15.429 -0.0057 -0.2786 -0.0325
28577W        W45425   3.664   8.109  16.468 -0.1077  0.2282  0.0100
28578W        W45426  12.098  10.988   0.402 -0.0206  0.0065 -0.0851
28579W        W45427   1.007   3.043   0.831 -0.0044 -0.5852  0.0648
28580W        W45428  16.941   4.287   3.392  0.0210 -0.4193  0.0809
28581W        W45429  17.631  16.229   2.950 -0.1518 -0.1516  0.0501
28582W        W45430  15.616   7.425  11.080  0.2029 -0.2252 -0.0337
28583W        W45431   6.455  14.456   4.492 -0.0480  0.0745  0.3229
28584W        W45432   6.270   1.985   2.960 -0.1401 -0.3313  0.0784
28585W        W45433  16.522  10.455  13.661  0.0507 -0.0629 -0.2119
28586W        W45434  17.603   3.793  15.475 -0.4838 -0.1589  0.3024
28587W        W45435  15.953   1.723  12.276  0.2123  0.1283 -0.0688
28588W        W45436  12.446  16.550   2.443  0.1911  0.0490 -0.2354
28589W        W45437  17.852  13.694   1.413 -0.0650  0.0496 -0.3572
28590W        W45438   3.953   6.386  13.559 -0.2007  0.0363 -0.2400
28591W        W45439  11.664  17.802  15.393  0.1074  0.1391  0.0444
28592W        W45440   5.388   2.641  12.821 -0.0355 -0.0162  0.1469
28593W        W45441  16.172   8.214   1.514  0.1323  0.0143  0.0468
28594W        W45442  10.786  13.623  15.352 -0.0172 -0.0234 -0.0470
28595W        W45443   1.732  15.538  12.701 -0.0186 -0.4062 -0.1969
28596W        W45444  16.152   4.940  11.572  0.1071 -0.1140 -0.1447
28597W        W45445   0.517  17.637   2.193 -0.0223 -0.3607  0.4035
28598W        W45446   5.115  15.619  15.953 -0.3186  0.0609  0.1163
28599W        W45447   7.532  10.790  14.004  0.2775  0.1046 -0.0383
28600W        W45448  14.303   6.946  14.225 -0.1758  0.1651  0.1878
28601W        W45449  11.188  10.764   0.513  0.1158 -0.0832 -0.2701
28602W        W45450  11.845   0.515   4.978  0.2461  0.1162 -0.3734
28603W        W45451   4.760  17.783   2.807  0.3177 -0.0535 -0.3016
28604W        W45452   2.495  14.326  15.428 -0.0104  0.2612  0.2118
28605W        W45453  14.729   4.206   3.955  0.1157  0.0517 -0.0626
28606W        W45454  10.712   0.478   4.126 -0.0280 -0.1841  0.0121
28607W        W45455   5.432   0.749   4.776  0.0473  0.1693  0.2832
28608W        W45456   8.879   7.055   1.323 -0.0089  0.0318 -0.3322
28609W        W45457  13.960  14.268   2.762  0.1476 -0.2189  0.1280
28610W        W45458   0.059  10.143   4.327 -0.1821 -0.1369  0.2851
28611W        W45459  13.486  12.382   5.303 -0.0978  0.2066  0.1424
28612W        W45460   4.149  14.043   5.412  0.0484  0.0287 -0.3023
28613W        W45461  12.128  16.625   3.956  0.0426 -0.2692 -0.1404
28614W        W45462   1.810   9.574   3.141 -0.0236  0.2097  0.1140
28615W        W45463   0.287   9.513  11.935 -0.0166  0.4072  0.1235
28616W        W45464   2.375  10.489   4.185  0.0951  0.0575  0.0062
28617W        W45465  10.203   1.786  13.557 -0.2033  0.0301  0.3105
28618W        W45466   2.890   6.288   4.782 -0.2111 -0.0392 -0.0850
28619W        W45467  17.203  10.473   2.373 -0.5117 -0.3955  0.0258
28620W        W45468  17.305   8.769  10.650  0.1438  0.0400 -0.0036
28621W        W45469   6.401   8.799  12.958  0.0782  0.1249 -0.0173
28622W        W45470   5.639  12.709   0.439 -0.2186  0.0486  0.0028
28623W        W45471   4.647   2.943   1.152 -0.0082  0.0803 -0.2584
28624W        W45472  16.944  10.153   3.726 -0.0954  0.0362  0.0474
28625W        W45473   9.027   5.365   3.601  0.0070  0.0227  0.1540
28626W        W45474   4.610  12.394   1.888  0.1223  0.2860  0.0016
28627W        W45475   4.877   6.842   3.760 -0.0819 -0.2758 -0.2479
28628W        W45476   3.441   4.797   2.499  0.0051 -0.1408 -0.0531
28629W        W45477  10.456  12.602   0.591  0.0704  0.3340 -0.3480
28630W        W45478   8.761  17.202   3.003  0.3443 -0.3026 -0.2017
28631W        W45479  17.393  13.151  14.975 -0.3008  0.0027  0.0236
28632W        W45480   5.662  11.680  12.517  0.1128 -0.4137 -0.2977
28633W        W45481  16.148   9.903  12.746 -0.0534  0.2651  0.0905
28634W        W45482   6.327   5.867   1.177  0.3457  0.0117  0.2782
28635W        W45483   1.363  17.209   3.157 -0.1406  0.0018 -0.1560
28636W        W45484  12.796   7.390  14.773 -0.0131 -0.0357 -0.0807
28637W        W45485   1.332   3.604   4.201 -0.1669  0.1143  0.0222
28638W        W45486   0.778   9.810  15.951 -0.2162  0.4836  0.1382
28639W        W45487   6.168   3.876   1.663 -0.1264  0.2238 -0.0993
28640W        W45488   9.261   1.149  16.555  0.3245  0.1355 -0.2838
28641W        W45489  15.215   3.521  14.817  0.2360  0.2278  0.1104
28642W        W45490  10.690   9.396  13.683  0.0751  0.1958 -0.0494
28643W        W45491  14.324   7.211  13.730 -0.2304 -0.3641  0.2008
28644W        W45492   2.301   9.509   0.237 -0.0224  0.1441  0.2794
28645W        W45493  15.070  12.356   3.098  0.0137 -0.5754 -0.0840
28646W        W45494   6.695   8.451   0.730 -0.1494 -0.0495  0.0867
28647W        W45495  16.248  10.314  11.542  0.1713  0.0360 -0.1091
28648W        W45496   5.617  12.033   5.255 -0.0078 -0.0723 -0.1709
28649W        W45497  13.090   9.992   3.025  0.2716 -0.1563 -0.1014
28650W        W45498  16.758   3.467  14.993  0.0022  0.1973 -0.0497
28651W        W45499   5.136   5.276  12.144  0.2642 -0.0872  0.0518
28652W        W45500   7.753   1.064  16.412  0.1365  0.2642 -0.1777
28653W        W45501  17.173   1.808  13.539 -0.1365 -0.1917 -0.0172
28654W        W45502  16.701  15.820   0.245  0.2053  0.0885 -0.1309
28655W        W45503  16.879  13.136   0.180 -0.1224 -0.0481  0.2930
28656W        W45504  12.584   6.892  15.035 -0.0445  0.1417 -0.2587
28657W        W45505   2.135   5.473  16.271 -0.1916  0.1326  0.0982
28658W        W45506   8.237   1.664  15.718 -0.0765  0.0538 -0.0904
28659W        W45507   5.005  11.701  14.731  0.0265 -0.0151 -0.0493
28660W        W45508   8.098   1.690   4.340 -0.0000 -0.0046 -0.0494
28661W        W45509  10.864   0.597  14.557  0.0161 -0.0628 -0.0533
28662W        W45510   3.580   8.343  14.271  0.1754  0.0887 -0.0340
28663W        W45511  17.191  15.984   4.967 -0.0384 -0.0950 -0.1288
28664W        W45512  15.444   0.071  14.476  0.2737 -0.1074  0.0354
28665W        W45513  15.312   3.657  11.877 -0.0575 -0.4620  0.1975
28666W        W45514  15.435  12.690   0.919 -0.0972  0.0041  0.0678
28667W        W45515   9.938  17.019  15.524 -0.0348  0.2136  0.2014
28668W        W45516   5.394   1.584  16.274  0.1863 -0.1706  0.0053
28669W        W45517   4.186   0.817   1.314 -0.0819 -0.1727  0.0458
28670W        W45518  10.134   7.300  16.583 -0.1515 -0.0014  0.1289
28671W        W45519   4.081  15.236   3.717 -0.0917  0.0159  0.0717
28672W        W45520   1.987  10.798   4.044  0.0137 -0.1103  0.0924
28673W        W45521   4.970  10.206   0.859  0.1021  0.1742  0.2796
28674W        W45522   8.762  14.889  11.943 -0.0198 -0.0357 -0.1338
28675W        W45523  14.265  11.542  14.741  0.2431 -0.1853 -0.2593
28676W        W45524   6.483   2.197  13.472 -0.1324 -0.0435  0.4031
28677W        W45525  11.114   0.466  13.291  0.3716 -0.1551  0.3118
28678W        W45526   3.094  16.619  14.985 -0.3037  0.0281 -0.1544
28679W        W45527  10.742   7.280  13.573 -0.2399  0.3799  0.0072
28680W        W45528  10.444  13.232   4.099 -0.2089  0.1649 -0.0305
28681W        W45529  12.678   6.585  16.484  0.2950  0.1300  0.0167
28682W        W45530  17.539  17.830   2.872 -0.0955  0.2311  0.0246
28683W        W45531   2.074   3.046  12.997  0.0461  0.2205  0.0532
28684W        W45532  12.010  13.214   5.255 -0.0023 -0.0204  0.4923
28685W        W45533   2.940   0.596   5.389 -0.3718  0.1946 -0.2849
28686W        W45534  10.181  11.187  12.798 -0.0716  0.2123  0.0376
28687W        W45535   0.224  11.388  14.318 -0.1377 -0.0609  0.1626
28688W        W45536   8.124   3.880  14.064 -0.1911 -0.0888 -0.0694
28689W        W45537  12.885  10.895  15.012  0.3141 -0.0657  0.4282
28690W        W45538   2.058   7.814   4.670 -0.1666 -0.0344 -0.0018
28691W        W45539   1.624  17.007   1.219 -0.0495  0.0845 -0.0968
28692W        W45540   4.128   1.609  11.339  0.1108 -0.1804 -0.0576
28693W        W45541   3.521   2.435   0.331  0.0248 -0.2056 -0.0670
28694W        W45542  15.137   0.109  13.043  0.1057 -0.1257 -0.2752
28695W        W45543  15.493   5.403  14.693 -0.1110  0.0833 -0.0818
28696W        W45544   8.330   6.712  15.183  0.0304  0.1799 -0.4465
28697W        W45545   5.331   3.436  14.277  0.1402  0.0609 -0.4264
28698W        W45546   9.402  15.577  10.844 -0.0800  0.0892 -0.3189
28699W        W45547   6.884   8.300   3.698  0.1034 -0.1004 -0.1381
28700W        W45548   7.256   7.056  12.211 -0.2350 -0.1586  0.1706
28701W        W45549   8.165  13.260  14.156  0.2049 -0.1689  0.0477
28702W        W45550  16.806   8.105  12.479  0.0687 -0.1655 -0.1573
28703W        W45551   2.363  12.886  14.287 -0.1265 -0.2478 -0.0386
28704W        W45552  15.333  16.461   5.875  0.1223 -0.2632  0.0161
28705W        W45553  12.551   1.383   0.817  0.2194  0.1059 -0.2475
28706W        W45554  11.804   3.658  13.920 -0.3027 -0.0474  0.0553
28707W        W45555  14.524  12.572  12.761  0.1378 -0.2281 -0.0194
28708W        W45556   0.787   4.157   0.737  0.0587  0.2196  0.2820
28709W        W45557   7.056   6.022   0.575  0.1769  0.3317  0.3124
28710W        W45558   5.461   9.270   3.708 -0.0970  0.1654 -0.1594
28711W        W45559   4.500  13.140  15.098 -0.1850 -0.0388 -0.1120
28712W        W45560   3.503   2.382   5.038  0.1943  0.0245  0.1583
28713W        W45561   0.011   5.935   1.578  0.0223 -0.1094 -0.2216
28714W        W45562  14.087  15.333   4.183  0.2200 -0.0011 -0.0887
28715W        W45563   4.644   1.395  11.449  0.0665 -0.4094  0.3432
28716W        W45564  16.683   5.398   0.879  0.1951 -0.1669  0.0709
28717W        W45565   9.932  13.512  14.951  0.2319 -0.0906 -0.2412
28718W        W45566   5.881  15.028  15.586 -0.1707 -0.1823 -0.3131
28719W        W45567   1.536  15.995  16.021  0.1600 -0.3991 -0.1654
28720W        W45568  11.973  15.488  12.423  0.1071 -0.0371  0.0392
28721W        W45569  13.993  16.554  11.569 -0.3108 -0.1691  0.0220
28722W        W45570  16.614   3.790  16.213 -0.3495  0.0817  0.0444
28723W        W45571   3.251  11.304   2.970  0.2416 -0.1840  0.3671
28724W        W45572   8.841   0.078   2.110  0.0383 -0.1718 -0.0950
28725W        W45573   2.981   8.545   0.803 -0.3016  0.0481 -0.1491
28726W        W45574   6.903   6.773   1.277  0.0568  0.2194  0.2468
28727W        W45575  13.202  16.834  15.426  0.0401  0.2707  0.2975
28728W        W45576  16.103  15.397  13.431  0.0804 -0.2053  0.1840
28729W        W45577   9.784   7.336  11.460  0.1450 -0.0433 -0.1073
28730W        W45578   2.946  14.305  15.231  0.1874  0.1168 -0.0376
28731W        W45579   2.566   3.717   1.922  0.1576  0.1440  0.1943
28732W        W45580   6.028   7.784  15.141  0.2117 -0.0338 -0.1238
28733W        W45581  15.311   5.266   5.899 -0.1211  0.1994 -0.1903
28734W        W45582   7.142  10.839  11.296 -0.0595  0.0277 -0.2158
28735W        W45583  14.202  14.789  11.874  0.1187  0.0262 -0.1964
28736W        W45584   3.684  11.862  13.823  0.2416  0.1494 -0.0055
28737W        W45585   9.669   2.754  11.330  0.0554  0.5301  0.2398
28738W        W45586   0.849  10.901   5.273 -0.1812 -0.1046  0.0326
28739W        W45587   6.312   0.027   4.426  0.2699 -0.0149  0.4253
28740W        W45588  16.746  15.910   4.677  0.1264 -0.0117 -0.4073
28741W        W45589   6.811   8.423   2.056 -0.0207 -0.0937 -0.1479
28742W        W45590  14.076   9.345   4.165  0.0942  0.1519 -0.0628
28743W        W45591  15.378   8.377  11.918 -0.0133  0.1270 -0.0283
28744W        W45592   2.699   2.491  14.607 -0.2348 -0.1031 -0.1850
28745W        W45593  12.132  17.382  12.641  0.0089 -0.0024  0.2591
28746W        W45594  11.403   2.727  12.523 -0.1346  0.4690 -0.0069
28747W        W45595  12.560   0.736  16.305 -0.1945 -0.2087  0.0434
28748W        W45596   3.269   1.004  11.481  0.0024 -0.1669  0.0216
28749W        W45597  16.777  15.070   4.442 -0.3404 -0.0178  0.0159
28750W        W45598  11.380   8.139  11.817  0.3258 -0.3051 -0.1420
28751W        W45599  12.470  17.219   0.269 -0.1240  0.1913 -0.2222
28752W        W45600   2.905  11.200   5.087 -0.0345 -0.2356 -0.2538
28753W        W45601  17.538  13.609  14.240 -0.0124 -0.2080  0.2644
28754W        W45602  14.791  16.976   1.579 -0.0599 -0.0621  0.2017
28755W        W45603   1.754   6.318   5.147  0.0863  0.0377 -0.2040
28756W        W45604   3.505   5.822  14.909 -0.0587 -0.1286  0.1618
28757W        W45605  12.391  12.621   3.091 -0.0408 -0.1416 -0.1455
28758W        W45606   7.379  16.079  14.694  0.5964  0.3622 -0.0941
28759W        W45607  10.533  10.467   4.336  0.2500  0.2590 -0.0600
28760W        W45608  11.358  13.608   3.761  0.0720 -0.1517  0.2654
28761W        W45609   0.900   6.998   3.746 -0.1722  0.1326 -0.0589
28762W        W45610   5.535  15.443  16.374  0.1149  0.0020 -0.0931
28763W        W45611   0.850   8.038  11.732 -0.0905  0.6318  0.2612
28764W        W45612  15.770  16.674  14.720 -0.1344 -0.2442 -0.4420
28765W        W45613   0.456  12.023  12.193 -0.1591  0.0169 -0.0522
28766W        W45614  16.981   6.723  16.336 -0.0852  0.0369 -0.3875
28767W        W45615  17.360   1.378   1.472 -0.0316  0.4709 -0.2231
28768W        W45616  11.358  10.283   3.983 -0.3689  0.5070 -0.1310
28769W        W45617  11.375   2.178   2.968  0.2360 -0.1087  0.0280
28770W        W45618  13.150   6.022  10.675  0.2671 -0.0157 -0.0257
28771W        W45619   9.153   8.896   2.043  0.0084 -0.3188  0.0342
28772W        W45620   8.818   1.810   3.984  0.1946 -0.0465  0.2455
28773W        W45621   3.354   1.605  13.178  0.1189  0.2754  0.1482
28774W        W45622   0.464   5.331   2.047  0.0551  0.0679 -0.2760
28775W        W45623   8.453   5.159   0.280 -0.2479 -0.1440 -0.1255
28776W        W45624  14.717  14.966  15.369  0.2219 -0.3042  0.0455
28777W        W45625  10.640   9.170  11.765  0.1479  0.1131  0.0360
28778W        W45626   1.209   6.586  12.000  0.1476  0.0624  0.2397
28779W        W45627  11.868   8.347   4.757 -0.0971  0.0019 -0.1045
28780W        W45628   8.505  12.081  11.568 -0.2262 -0.0455 -0.0362
28781W        W45629  16.401  16.207  14.781  0.0198 -0.0485  0.0818
28782W        W45630  17.420   9.019  13.838  0.0069  0.1890  0.1530
28783W        W45631   3.090  11.931  13.664 -0.0807 -0.0319 -0.2331
28784W        W45632  11.368  14.374  16.433  0.1437 -0.0593  0.2247
28785W        W45633   4.105  15.374   5.777 -0.1396  0.0829 -0.2773
28786W        W45634   1.773   0.681  14.676  0.2718 -0.0985  0.0950
28787W        W45635  17.710   5.010  15.591 -0.3394  0.3649  0.0662
28788W        W45636  14.070   7.091   0.849  0.0434 -0.1955  0.2278
28789W        W45637   2.302   3.390   3.503  0.2309 -0.0695 -0.2461
28790W        W45638   2.777   8.923  11.637 -0.0700 -0.0621 -0.1772
28791W        W45639  11.272   0.108   2.805 -0.2185  0.0317 -0.0210
28792W        W45640  10.019   8.658   2.183  0.1034  0.2747  0.0589
28793W        W45641   0.753  16.474  15.016  0.0884 -0.0800  0.0595
28794W        W45642   9.429   6.142   0.083 -0.6130 -0.0585  0.4001
28795W        W45643   9.452  15.941   4.533  0.2251 -0.0832  0.0573
28796W        W45644   2.267   3.030  15.466  0.0519 -0.0679 -0.0096
28797W        W45645   8.316  14.193   2.600 -0.1325 -0.0949  0.2444
28798W        W45646   0.271   7.542  12.258 -0.0490  0.2235 -0.1589
28799W        W45647  11.002   2.959   4.207 -0.3325 -0.2671 -0.0495
28800W        W45648  10.108   3.517   1.505  0.1653  0.0694 -0.1951
28801W        W45649  12.685   3.928  15.548  0.0835 -0.1180  0.1781
28802W        W45650   7.361   3.491  13.050  0.0923 -0.0545  0.2373
28803W        W45651   6.491  10.175  14.778 -0.3544  0.2727 -0.2276
28804W        W45652   8.811   9.388  12.281  0.0802  0.1994  0.0291
28805W        W45653   4.897   0.374  11.922 -0.4245  0.0460 -0.0368
28806W        W45654  15.295  13.792  15.862 -0.4507  0.2628  0.1740
28807W        W45655  16.450   1.103   1.616  0.1050 -0.0968  0.1693
28808W        W45656   8.111   3.173  13.682 -0.1369  0.0419 -0.2502
28809W        W45657  14.398   2.149   1.833 -0.3615  0.1037 -0.0875
28810W        W45658  11.841  14.839   3.445 -0.0595 -0.0636 -0.1687
28811W        W45659  15.909   8.465  14.105 -0.1621 -0.1458 -0.2483
28812W        W45660   7.943   4.694  16.247  0.2196 -0.3189  0.3506
28813W        W45661  10.764   5.380  16.089 -0.0201  0.1174  0.1555
28814W        W45662   6.793   0.543   2.739 -0.0969  0.2040 -0.2005
28815W        W45663  10.753  11.745  13.909  0.1680 -0.0388  0.1068
28816W        W45664   5.167   3.418  12.888 -0.0060 -0.2197 -0.1392
28817W        W45665   5.201  13.762   4.282 -0.0998  0.2288 -0.2064
28818W        W45666  15.490   5.981   1.259 -0.1750  0.2536 -0.3745
28819W        W45667   7.248  15.008  11.976  0.0193 -0.0152  0.0258
28820W        W45668   9.618   4.820   0.934  0.0213  0.0592 -0.0194
28821W        W45669   4.305   6.634  11.988 -0.0487  0.0997 -0.0408
28822W        W45670   4.252   2.349  13.608 -0.2471 -0.0655 -0.0741
28823W        W45671   8.521  11.968  12.527  0.2547 -0.1398 -0.0358
28824W        W45672  12.391   8.480   1.820  0.2504  0.2482 -0.2318
28825W        W45673   2.168  15.786   2.132  0.1199  0.0621  0.0839
28826W        W45674   1.458  15.234   1.914 -0.0464 -0.3859  0.3105
28827W        W45675  15.667  13.322  15.986 -0.1924  0.1454 -0.0571
28828W        W45676  14.507   0.675  12.899  0.2513 -0.0372  0.3035
28829W        W45677   2.353  15.890  11.767 -0.2980 -0.1073 -0.3154
28830W        W45678   9.215   6.099   1.083  0.0103  0.0420  0.3458
28831W        W45679   1.783  11.894  11.787 -0.2475 -0.1926  0.1623
28832W        W45680  16.885  16.126  15.303 -0.2442 -0.2631  0.1775
28833W        W45681  13.327   4.371  14.745 -0.0065 -0.0465 -0.2690
28834W        W45682   4.049   8.415  14.573  0.1933  0.0973 -0.0139
28835W        W45683   2.715  11.465  12.556  0.0776 -0.0502 -0.4598
28836W        W45684  11.330  10.799  15.649 -0.0622  0.0594 -0.0872
28837W        W45685  11.185  17.214   5.233  0.2559  0.2948  0.1943
28838W        W45686  14.378   5.103   5.238  0.1836 -0.0486 -0.1011
28839W        W45687   6.491   6.972  11.480 -0.3848  0.1760  0.1897
28840W        W45688   5.747   1.265   5.632  0.1613  0.0291 -0.2506
28841W        W45689  14.544   9.098   4.661  0.2250 -0.1517  0.0923
28842W        W45690  10.494  16.509  14.530  0.0210  0.0106 -0.0338
28843W        W45691   7.130   3.442  12.443  0.1418  0.1576 -0.3622
28844W        W45692   9.647   1.744   4.411 -0.0089 -0.0443 -0.0081
28845W        W45693   5.463   0.164   4.606  0.3799 -0.0041  0.1899
28846W        W45694  12.678  15.591   1.998 -0.0198 -0.1707 -0.2965
28847W        W45695  17.374  14.721   1.286 -0.0404  0.0391 -0.3071
28848W        W45696   9.375   2.984   4.441 -0.0438  0.2507  0.0640
28849W        W45697  13.603   8.431   3.067 -0.1779  0.4308 -0.0413
28850W        W45698   1.059   6.346  14.035 -0.1285 -0.0536 -0.3804
28851W        W45699  11.850  13.113   4.781  0.0134  0.1689 -0.1129
28852W        W45700  10.049   0.633  13.041 -0.1597  0.0172  0.0854
28853W        W45701   5.228  11.498  11.601 -0.5514  0.1439  0.1888
28854W        W45702  14.275  13.056  12.798  0.3398 -0.3623 -0.0080
28855W        W45703   2.092   4.636   2.875  0.0919 -0.3344 -0.0400
28856W        W45704  15.040   2.325   2.336  0.0380  0.0008  0.1318
28857W        W45705  12.467  12.333  11.580 -0.1738 -0.2958 -0.0252
28858W        W45706   4.218   5.839  14.300 -0.3546 -0.1824  0.1696
28859W        W45707  13.603   2.083   4.606 -0.0001 -0.0303 -0.1479
28860W        W45708  10.250   8.017  12.147  0.1751  0.0478 -0.0106
28861W        W45709   4.236  11.670  12.028 -0.2176 -0.1834 -0.0434
28862W        W45710   2.703  16.353  11.485  0.1408  0.5621  0.0699
28863W        W45711   2.454   2.815   5.778  0.0088 -0.2132  0.0486
28864W        W45712   2.304   7.188   1.549 -0.0193 -0.0288  0.2468
28865W        W45713  10.640  13.801  11.684 -0.2558  0.1635 -0.1424
28866W        W45714  16.239   1.257   5.505  0.1717  0.0235  0.0254
28867W        W45715   6.532   1.791  16.504  0.0867  0.0604  0.1454
28868W        W45716   5.457  17.688  16.449 -0.0157 -0.1225  0.0448
28869W        W45717  11.535  17.849   4.085 -0.1649  0.0744 -0.2354
28870W        W45718   5.059  13.614   1.898 -0.0084 -0.1782  0.1506
28871W        W45719   8.672   6.525   3.200  0.0185 -0.2366  0.1480
28872W        W45720   7.380   3.776   0.395 -0.0734  0.0740  0.2097
28873W        W45721  17.206   7.227  15.448 -0.3372  0.1549  0.1656
28874W        W45722   9.615   7.909   2.394  0.0884  0.1479  0.0886
28875W        W45723  13.977  11.837   1.246 -0.1138  0.0398  0.1986
28876W        W45724  11.345  14.007  14.932 -0.0371  0.0759  0.7291
28877W        W45725  15.245  14.185   2.530  0.1389  0.1201  0.0404
28878W        W45726  10.550  15.667  13.548  0.0240  0.1076 -0.1053
28879W        W45727   6.926   9.979   3.960 -0.2294  0.1629 -0.1658
28880W        W45728  17.085   3.501  11.469 -0.1830 -0.0619 -0.1805
28881W        W45729   5.996   9.454  14.270 -0.1762 -0.0454 -0.2181
28882W        W45730  12.047  10.140  10.637  0.0287 -0.0769  0.0591
28883W        W45731   4.312  10.357   3.501  0.0242  0.0232 -0.1807
28884W        W45732   8.722   4.999  12.330 -0.1495  0.0146  0.2848
28885W        W45733  11.926   7.224  15.332  0.1678  0.1381  0.0950
28886W        W45734  14.760  12.499  13.967 -0.1343  0.0878  0.0034
28887W        W45735  15.045   6.127  13.463  0.1215 -0.0021 -0.3266
28888W        W45736   7.962   9.444  14.637  0.0201 -0.3038  0.0475
28889W        W45737   5.046   1.038  13.893 -0.0941  0.1045  0.0386
28890W        W45738  15.349  11.250   5.344 -0.2109 -0.1302 -0.0535
28891W        W45739  17.635  13.230   0.591 -0.0687  0.0092  0.0333
28892W        W45740  16.387  11.237   1.531 -0.0018 -0.0062 -0.1371
28893W        W45741   4.642   0.596   2.133  0.3217 -0.1088  0.3080
28894W        W45742   1.193   9.363   3.191 -0.0844 -0.1237 -0.3593
28895W        W45743  12.316   6.648  13.047  0.1374 -0.0622 -0.0688
28896W        W45744  15.984   0.727   3.337 -0.0644  0.0264  0.0155
28897W        W45745   9.233  10.620  12.334 -0.3206  0.1600 -0.0479
28898W        W45746   4.217   5.023  16.411 -0.0920 -0.0241 -0.1661
28899W        W45747   7.667   5.642   4.683  0.3374 -0.0274 -0.0252
28900W        W45748  13.464  14.879  16.098 -0.0432 -0.1635  0.1389
28901W        W45749   5.599   1.438  15.490 -0.2030  0.2862  0.1223
28902W        W45750   2.120   9.949  15.564  0.2100  0.0368  0.1541
28903W        W45751   9.591  14.178   3.676  0.1105  0.2335 -0.2961
28904W        W45752   5.723  15.994  15.413  0.3388  0.2736  0.0408
28905W        W45753   1.854  10.199  12.408  0.2168  0.0721 -0.0639
28906W        W45754  15.862   1.872  16.383  0.0773  0.1747 -0.1824
28907W        W45755  10.221   4.602  16.484 -0.2409 -0.2306 -0.2300
28908W        W45756   3.303  16.889  12.146 -0.2617 -0.3307 -0.0097
28909W        W45757   1.425  16.520  12.562 -0.0760  0.2425 -0.1062
28910W        W45758   2.736   2.326  12.773  0.1153  0.2239 -0.2802
28911W        W45759  15.278  16.628   0.915 -0.0440 -0.2972  0.0242
28912W        W45760   3.743  16.265  11.374 -0.2489 -0.0987  0.2244
28913W        W45761   5.904   4.332   1.797  0.0252 -0.1083  0.0401
28914W        W45762   5.411  15.990   2.865 -0.1428 -0.1749  0.0547
28915W        W45763   0.758   9.047  13.405 -0.0634  0.0845  0.1647
28916W        W45764   3.661  17.729   4.127  0.2092 -0.0619 -0.2020
28917W        W45765   1.133  10.529   4.888  0.4126  0.3862 -0.0061
28918W        W45766   4.804   6.577  11.813  0.1018 -0.0828  0.2194
28919W        W45767  15.798  13.179   3.787  0.0693  0.0294 -0.0896
28920W        W45768   1.501  15.072   1.112 -0.0501 -0.0594 -0.0908
28921W        W45769  13.016   0.389  15.428  0.0967 -0.1955  0.1322
28922W        W45770   2.569   2.881  15.016 -0.1673  0.3814  0.2444
28923W        W45771   7.087   6.872   0.193 -0.3058 -0.1391 -0.2411
28924W        W45772   8.478   2.977  14.046 -0.2226 -0.1477 -0.0932
28925W        W45773  14.920  12.029  13.094  0.2709 -0.1937  0.2061
28926W        W45774   5.835   9.775   2.729  0.1948 -0.1154 -0.0574
28927W        W45775  15.978   4.852  12.246  0.1255 -0.0475 -0.0965
28928W        W45776   1.453   6.661  12.440 -0.1697 -0.1879 -0.2476
28929W        W45777  16.430   2.858  12.497 -0.1355 -0.1148  0.0897
28930W        W45778   1.818  10.151   1.929  0.0473 -0.2945  0.0859
28931W        W45779  11.475   9.374   0.995 -0.0745 -0.2524  0.0964
28932W        W45780  17.131   3.841  16.335 -0.1493 -0.3214 -0.0461
28933W        W45781   7.818   0.853   4.085  0.0383  0.1925 -0.3413
28934W        W45782   0.143  13.441   3.186 -0.0589  0.0090  0.3898
28935W        W45783   9.539  11.838   3.975  0.1154 -0.3096 -0.0191
28936W        W45784  13.431   2.427   5.967 -0.2874 -0.0462  0.1740
28937W        W45785  11.293   5.306  11.821  0.0475  0.2509  0.0452
28938W        W45786  16.112  12.196   3.991 -0.3121 -0.1740 -0.1679
28939W        W45787  16.417  10.263   3.707  0.2744  0.0882 -0.0583
28940W        W45788  11.283  12.062  11.919  0.3061 -0.1096  0.1607
28941W        W45789   3.208  10.129  14.294  0.0280  0.1696 -0.0623
28942W        W45790  13.196   7.161  12.374 -0.0213  0.1212  0.1607
28943W        W45791  11.222   2.767   5.386  0.1909 -0.0251  0.1857
28944W        W45792  15.388   2.055  16.217 -0.0143 -0.4174  0.0798
28945W        W45793  10.377   7.949   4.276  0.2088  0.0371 -0.2279
28946W        W45794   3.731  17.073  13.441 -0.2121 -0.0839 -0.0257
28947W        W45795   7.481  13.439  16.492  0.1249  0.1266  0.0361
28948W        W45796   0.039  10.783   2.834  0.0016 -0.0351  0.0715
28949W        W45797  17.158   9.596  12.411 -0.1227 -0.0603  0.1423
28950W        W45798   6.811  10.237   1.620  0.0275  0.1189 -0.0343
28951W        W45799   2.995   5.057   3.989 -0.0808  0.0749 -0.0449
28952W        W45800  17.808   9.940  15.244 -0.1907  0.1589 -0.3092
28953W        W45801   2.785  12.354  12.230 -0.0752  0.0943  0.0550
28954W        W45802  12.048   8.640  12.967  0.1518  0.1918 -0.1941
28955W        W45803   5.530  14.076   0.032  0.3570  0.1632  0.1704
28956W        W45804   6.840   2.396   1.764  0.1803 -0.1838  0.1509
28957W        W45805  13.024   4.245  11.725  0.1660 -0.3270  0.0883
28958W        W45806  14.885   1.260  11.106 -0.0432  0.2508  0.1423
28959W        W45807   5.611   2.129  13.882 -0.2736  0.2726 -0.2786
28960W        W45808   3.558   1.586   3.650  0.1187  0.0574 -0.0344
28961W        W45809   4.434  16.222   0.669 -0.0123 -0.0626  0.0538
28962W        W45810   7.622   0.687   0.146  0.0111 -0.1628  0.0982
28963W        W45811   5.613  13.685   5.195  0.2322  0.1326  0.2342
28964W        W45812   9.767   8.427   3.422 -0.2209 -0.0321 -0.1053
28965W        W45813   3.399   7.852   2.730  0.0719 -0.0663  0.0125
28966W        W45814   8.551   2.451  14.867 -0.2375 -0.1249 -0.1456
28967W        W45815   7.329   5.666   1.056 -0.0526 -0.1570  0.1513
28968W        W45816   1.279   2.708   2.200  0.1451 -0.0775  0.1954
28969W        W45817   1.139  16.572  13.090  0.1944  0.1992 -0.0911
28970W        W45818  10.378  12.959  12.650 -0.1798 -0.1476  0.3112
28971W        W45819  14.452   6.181  16.216 -0.1127 -0.0870 -0.0224
28972W        W45820   7.713   5.066  16.512  0.1589  0.0444 -0.2066
28973W        W45821   3.414   7.022  13.875  0.1940 -0.3243 -0.2174
28974W        W45822  12.483  12.528   1.563  0.0197 -0.4238 -0.0515
28975W        W45823   2.601   4.012   0.660 -0.1318  0.0721 -0.0389
28976W        W45824   3.784   8.282  12.254 -0.0910 -0.0865  0.0697
28977W        W45825   1.352  12.897  14.683  0.1374 -0.1914  0.2009
28978W        W45826   9.105   6.914   0.812  0.1133  0.0155 -0.2465
28979W        W45827  16.722  15.890   2.108 -0.0092  0.0053 -0.1773
28980W        W45828  11.536   0.186   5.207  0.1411  0.0752  0.3563
28981W        W45829  10.294  11.778   5.084 -0.2862 -0.0520  0.5155
28982W        W45830  10.868   3.789  13.112 -0.0544  0.1116  0.0040
28983W        W45831   9.896  15.168  11.945 -0.1344 -0.1103 -0.3657
28984W        W45832  16.743  16.250  13.859  0.0497 -0.1908  0.0728
28985W        W45833   8.460   9.665  14.007 -0.4278 -0.0475 -0.0299
28986W        W45834  16.209   4.050  15.567 -0.1819  0.0629 -0.3158
28987W        W45835  16.083  16.949   1.374 -0.0639 -0.0810  0.1183
28988W        W45836  16.449  16.432  14.367  0.2113  0.0308  0.0359
28989W        W45837  16.408  13.721   5.070 -0.1450  0.0848 -0.0783
28990W        W45838   8.425   1.471  13.854  0.1710  0.0559  0.1788
28991W        W45839  10.706   9.664   3.863 -0.3474  0.2731  0.0341
28992W        W45840   0.639   3.100   3.846  0.0936 -0.6043  0.1833
28993W        W45841  15.236  10.455   5.147 -0.0490 -0.0492  0.2871
28994W        W45842   0.716  17.539  14.956 -0.2884 -0.1417 -0.1865
28995W        W45843   4.785   3.122   0.505  0.1954 -0.2390  0.0657
28996W        W45844   2.409   3.014   2.822 -0.0557  0.4735 -0.0087
28997W        W45845   7.303   5.722   2.700  0.0216 -0.4187  0.1175
28998W        W45846   8.920  16.289   2.043 -0.1187 -0.0640 -0.0422
28999W        W45847  10.134   4.161  11.680 -0.1689 -0.0120  0.1608
29000W        W45848   7.309   7.147   1.211 -0.1025 -0.1048 -0.1326
29001W        W45849  17.447   8.741   0.274 -0.0660  0.1805  0.2771
29002W        W45850  15.346   7.753   3.374  0.2098  0.0690  0.1617
29003W        W45851  11.557   5.591   4.604 -0.3362 -0.0369  0.1121
29004W        W45852   7.682   2.020   3.468 -0.2166 -0.0765  0.1149
29005W        W45853   8.636  11.756  16.051 -0.1981  0.1921  0.1893
29006W        W45854  17.053  12.407  12.651 -0.1927 -0.3202  0.1976
29007W        W45855   2.481   5.396  14.251 -0.0843  0.1051  0.1663
29008W        W45856  12.152  10.210  12.956  0.5154 -0.1082  0.2052
29009W        W45857   6.345   0.604  12.909 -0.3041  0.2955  0.1820
29010W        W45858  13.323   4.100   0.062 -0.0706 -0.2272 -0.1315
29011W        W45859  16.994   1.029  12.124  0.2995 -0.4363 -0.1545
29012W        W45860  10.552   3.018   3.945 -0.0509  0.3854  0.1217
29013W        W45861   6.459   3.492   3.521  0.0400  0.1513  0.0021
29014W        W45862  17.719   7.620  13.673 -0.0657  0.0724 -0.0042
29015W        W45863  11.423   3.995   2.165  0.0883 -0.0421 -0.2407
29016W        W45864  15.470   7.982  12.241 -0.0486 -0.0777 -0.2172
29017W        W45865  17.117   5.705  16.257 -0.0949 -0.2757 -0.1742
29018W        W45866   4.389  15.657   4.965  0.1964 -0.2446 -0.0465
29019W        W45867   4.604  16.591   4.595  0.1410  0.0155 -0.0021
29020W        W45868  15.707   9.567  16.606 -0.1523  0.1646  0.3185
29021W        W45869   6.961   3.352   3.526 -0.1643 -0.3350  0.0982
29022W        W45870  10.725   5.135  11.578 -0.2744 -0.0546 -0.0448
29023W        W45871  12.689   2.527  15.881 -0.0263  0.0640  0.0887
29024W        W45872   1.376  10.327  16.066 -0.3016  0.0075 -0.0918
29025W        W45873   1.677  10.668  15.268 -0.0363  0.1122 -0.1460
29026W        W45874   8.371  15.646   1.650 -0.1428 -0.2407 -0.1070
29027W        W45875   8.460   0.910   2.338  0.0669 -0.0691  0.0296
29028W        W45876  15.804  13.044   5.207  0.0007  0.2284  0.1702
29029W        W45877  11.398  16.603  15.653 -0.0604 -0.0417 -0.0447
29030W        W45878  14.692  12.337   3.909  0.0120  0.2237 -0.1176
29031W        W45879  11.164  10.247   5.106 -0.1419 -0.2901 -0.3480
29032W        W45880   9.347  17.816  15.785  0.4725  0.0107 -0.1883
29033W        W45881  16.716   9.479  12.699  0.1031 -0.0096 -0.2147
29034W        W45882  16.974   0.684  15.645  0.1285 -0.0366  0.0035
29035W        W45883  14.561   1.313  12.038  0.3466 -0.0051 -0.0916
29036W        W45884   4.374   2.450   5.661  0.0834  0.0433  0.1649
29037W        W45885   7.578  10.692  14.871  0.2606  0.2105 -0.2128
29038W        W45886   2.852   5.603  13.910  0.3892 -0.0334 -0.1954
29039W        W45887  17.660  10.911  15.515 -0.0080 -0.1272 -0.0004
29040W        W45888  14.932   0.417  16.423 -0.1051 -0.1998 -0.1668
29041W        W45889  10.721   7.568  14.282 -0.4298  0.1017  0.4205
29042W        W45890  17.857   5.492   1.818 -0.1673  0.2305  0.0651
29043W        W45891  15.096  16.717  16.512 -0.1290 -0.1208  0.1804
29044W        W45892   9.064  17.734   0.496 -0.2312 -0.0298 -0.2654
29045W        W45893  10.549  12.312   3.792 -0.0927  0.0977  0.1009
29046W        W45894   6.332  13.469   4.387  0.1825  0.0562 -0.3798
29047W        W45895   1.970  10.818   2.525  0.2660 -0.3271 -0.0088
29048W        W45896   8.105   0.033  14.797 -0.1062  0.1095  0.1347
29049W        W45897   4.036  14.160  14.812 -0.1003 -0.2375 -0.1444
29050W        W45898   7.630   4.598   2.063  0.2701  0.3299 -0.0581
29051W        W45899  13.462   7.631  12.220  0.2232  0.3686  0.0338
29052W        W45900  16.936  16.264   1.855  0.1422 -0.1357  0.2689
29053W        W45901  11.592   1.178  16.559  0.2644 -0.0436  0.0547
29054W        W45902  16.645   5.194   0.408 -0.4344 -0.1091  0.3707
29055W        W45903  12.473  17.392   4.031 -0.1995  0.0518  0.1145
29056W        W45904   7.653  16.525  14.945  0.0506 -0.2233 -0.0796
29057W        W45905   4.300   1.276   3.258  0.3534  0.0780 -0.0055
29058W        W45906   4.756   4.803  12.066  0.0244 -0.0953  0.0890
29059W        W45907   4.152   0.255  12.290 -0.1524 -0.0835  0.1025
29060W        W45908   7.371  15.860  12.399  0.0476 -0.1132  0.0338
29061W        W45909  16.534   3.002   3.371  0.0483 -0.0264 -0.1487
29062W        W45910   9.063   0.994  10.801 -0.1515 -0.1877  0.0761
29063W        W45911   6.503  16.901   0.649 -0.1399 -0.0436 -0.3852
29064W        W45912   9.244   2.578   0.264 -0.2938  0.1675 -0.1503
29065W        W45913   4.538   9.419  12.523 -0.2039 -0.0596  0.2416
29066W        W45914   7.199   8.646   0.698  0.1437 -0.1515  0.3540
29067W        W45915  14.536  13.923   3.939 -0.2377 -0.0455  0.1273
29068W        W45916  13.753  12.764  16.524  0.2840 -0.2911 -0.2135
29069W        W45917   6.403   9.378   1.748 -0.1000 -0.0776  0.1817
29070W        W45918  16.431  13.313  15.469  0.1604 -0.0938 -0.2041
29071W        W45919   7.732   8.411   4.921 -0.2497 -0.2294 -0.2666
29072W        W45920   4.040  14.348  13.082  0.1180  0.1011 -0.0861
29073W        W45921   3.104   5.536   3.823 -0.4022 -0.2457  0.4314
29074W        W45922   7.068  16.636   1.831 -0.2809  0.1605 -0.0491
29075W        W45923  14.780   3.474   1.258  0.0206  0.3506  0.0563
29076W        W45924  10.925  14.050   2.986  0.0518 -0.0094 -0.1113
29077W        W45925  14.080  12.583   0.811 -0.0997  0.1610 -0.2262
29078W        W45926  13.448  11.421  12.164 -0.2196 -0.1583 -0.0210
29079W        W45927   2.514  17.580   3.927 -0.1227 -0.0032  0.5229
29080W        W45928  17.812   0.197   3.265 -0.0486  0.5934  0.1349
29081W        W45929   2.787   7.278   1.526  0.3062  0.0524  0.1489
29082W        W45930  15.978  11.550   0.906  0.1571  0.2314  0.1657
29083W        W45931   5.571   0.955  15.186  0.1467  0.0528 -0.0279
29084W        W45932  13.774  13.918  15.758 -0.0205  0.0351 -0.2463
29085W        W45933  15.981   2.026   3.781  0.1732  0.1396 -0.0136
29086W        W45934  10.519  10.007   4.198 -0.2488  0.1597  0.1886
29087W        W45935  13.768   4.987   3.800 -0.0690  0.0829  0.1292
29088W        W45936   8.728   4.503  12.478  0.2678  0.0286 -0.0310
29089W        W45937  11.209   5.843  12.500  0.0122  0.0691 -0.1344
29090W        W45938  15.271  12.485  14.597  0.0110  0.1628  0.1592
29091W        W45939  12.696   7.344  12.470 -0.0785 -0.1605 -0.3107
29092W        W45940  17.756  15.408  10.799  0.0235 -0.1428  0.0228
29093W        W45941  11.131   1.051   5.013  0.2581  0.0086 -0.0061
29094W        W45942   0.447   8.738   0.717 -0.1064 -0.0342  0.2187
29095W        W45943   1.645  11.348  16.481  0.0484 -0.1275 -0.0664
29096W        W45944  17.708   0.751  14.624 -0.0107  0.0163 -0.0193
29097W        W45945  13.883   2.617   1.911 -0.4436 -0.0125 -0.1153
29098W        W45946   2.760   3.862   1.224  0.0317  0.2676 -0.0046
29099W        W45947   7.168  16.291  12.132  0.0775 -0.3656 -0.1943
29100W        W45948  17.814  10.098   1.861 -0.2530  0.1556  0.0704
29101W        W45949   8.750  14.655  12.781  0.1305  0.2135  0.0794
29102W        W45950  14.178   4.166  15.458  0.1349  0.1266 -0.0787
29103W        W45951  14.829   5.934   3.752 -0.3969 -0.0250 -0.2808
29104W        W45952   1.672   0.996  16.138  0.3178 -0.3277  0.0030
29105W        W45953  10.207   8.933   1.206  0.0117  0.0422 -0.2065
29106W        W45954  16.033   7.528   1.969 -0.0284  0.1794 -0.1777
29107W        W45955  13.424   3.599   0.940 -0.0438 -0.0173 -0.2072
29108W        W45956  15.352  16.933   1.759 -0.1513  0.0408  0.0412
29109W        W45957   1.320   6.628  14.545  0.1448 -0.0791 -0.1859
29110W        W45958  16.649  10.675   3.799 -0.2310 -0.3221 -0.0574
29111W        W45959  14.702  13.835   2.269 -0.0091  0.0045  0.0952
29112W        W45960  15.912   4.355  13.473 -0.0533 -0.0369  0.0744
29113W        W45961  11.859  10.044  12.112 -0.2247  0.1525 -0.3499
29114W        W45962   7.529   3.747  11.732 -0.0222 -0.1164 -0.1671
29115W        W45963  14.479   9.074   0.415  0.2213  0.1814  0.2387
29116W        W45964   6.953   5.385   2.528  0.0918 -0.3399  0.0031
29117W        W45965  14.791   6.198  13.955  0.0559  0.0344  0.0326
29118W        W45966  15.715  16.658  11.655  0.1521  0.0025  0.2284
29119W        W45967  13.137  13.438   4.034 -0.1888 -0.4656  0.2506
29120W        W45968   4.765   1.986   2.110 -0.2027 -0.0028 -0.0508
29121W        W45969   9.428   8.185   4.799  0.0977  0.0608  0.0086
29122W        W45970  12.494   4.691  14.108  0.0245  0.1968  0.1498
29123W        W45971  16.127   7.839   4.614  0.2908 -0.0457 -0.0602
29124W        W45972   0.800   8.090   1.028  0.2270 -0.0051  0.0758
29125W        W45973  11.447  13.446   2.399 -0.1786  0.4000  0.1748
29126W        W45974  15.891  11.972  16.231 -0.0120  0.1633 -0.3846
29127W        W45975   0.981  12.902  15.037  0.0985  0.0524  0.0408
29128W        W45976   3.039  13.532  16.373  0.0530 -0.1719 -0.0689
29129W        W45977  14.044  17.336  16.403  0.4671  0.3364  0.2722
29130W        W45978   3.314   1.419   2.395 -0.1225 -0.4565 -0.0554
29131W        W45979  12.372   1.305   5.120  0.0770  0.0098 -0.1602
29132W        W45980   5.171   1.379  12.061  0.0477  0.0293 -0.0432
29133W        W45981   3.813   3.750  15.950  0.1482 -0.0583 -0.1672
29134W        W45982   8.505   6.911   2.389 -0.2306  0.0380  0.0191
29135W        W45983  15.331   9.794  11.889 -0.0443 -0.2259  0.2401
29136W        W45984  11.706   6.456   4.514 -0.0586  0.2784 -0.1276
29137W        W45985   6.209  14.199   4.099 -0.3282 -0.1381  0.1542
29138W        W45986  14.409   5.846   1.363  0.0715 -0.0186  0.0286
29139W        W45987   6.156   7.407  11.517 -0.0495 -0.0647  0.0899
29140W        W45988  14.974  16.299   3.172  0.0744 -0.2447  0.0932
29141W        W45989  16.419   7.204  15.753 -0.1848  0.1132 -0.2572
29142W        W45990   7.741  15.677  14.909 -0.0865  0.1193  0.0208
29143W        W45991  12.655  11.409  14.760 -0.0193 -0.2665  0.2730
29144W        W45992  12.024   9.553  15.825  0.2692 -0.1842  0.1667
29145W        W45993  17.534   5.098  13.726 -0.0723 -0.1734 -0.1902
29146W        W45994   7.119   4.167  14.838  0.0983 -0.3424  0.0893
29147W        W45995   7.718   0.822   2.106 -0.1051  0.1367  0.3803
29148W        W45996   4.612   2.945   5.637  0.0910  0.2291 -0.0374
29149W        W45997   6.469   3.605   1.325  0.0437 -0.0460  0.0398
29150W        W45998   2.266  13.392  11.480  0.2138  0.2455  0.3162
29151W        W45999  10.782   7.984  13.972 -0.1170 -0.1364 -0.3949
29152W        W46000   7.775   6.799  15.560 -0.2980  0.1380 -0.0257
29153W        W46001   2.316  11.240  15.460  0.2465  0.1415  0.2740
29154W        W46002   1.247   8.672  11.759 -0.2297  0.0757  0.3083
29155W        W46003  15.248   1.367   2.481 -0.1403 -0.0405 -0.3477
29156W        W46004   9.116   4.120   4.049 -0.1910 -0.0451  0.2052
29157W        W46005   7.907  16.610  13.054  0.2052  0.1735  0.4124
29158W        W46006   9.100  17.506   2.865  0.1287  0.2024  0.1119
29159W        W46007   7.839  13.657   4.447  0.0379  0.1049 -0.2975
29160W        W46008  10.280  13.095  14.646 -0.0905 -0.1179 -0.1791
29161W        W46009  17.689   0.273  11.402  0.3634  0.0967 -0.1348
29162W        W46010   8.654  10.270   0.147  0.1177  0.1491  0.1366
29163W        W46011  12.262   5.742   1.587 -0.3691  0.0055 -0.2160
29164W        W46012   5.692  10.204  15.451  0.1290 -0.0202  0.0276
29165W        W46013  16.882  13.950  12.062 -0.0512 -0.1469  0.0165
29166W        W46014   6.374   2.224  11.287 -0.2700 -0.2208 -0.2363
29167W        W46015   8.217   5.662  12.400 -0.0811  0.0688  0.0479
29168W        W46016   0.304  10.218  12.169 -0.1684  0.3111  0.1084
29169W        W46017   4.465   6.169   3.931 -0.1106  0.1482 -0.1357
29170W        W46018   0.729  10.042  12.077 -0.2080 -0.0282  0.1743
29171W        W46019   9.215   0.137   5.158  0.3070 -0.1126 -0.3873
29172W        W46020   0.696  17.784   3.562  0.0448 -0.0431  0.0617
29173W        W46021  10.951   3.709  14.105  0.3885 -0.1114 -0.3092
29174W        W46022  16.399   4.312   2.925 -0.2360  0.2724  0.1402
29175W        W46023   2.936  15.056   4.084 -0.1425 -0.0032  0.1203
29176W        W46024  14.464  16.283  16.593 -0.0358 -0.1290  0.2354
29177W        W46025  13.722  10.004   2.420  0.1277 -0.0073  0.3545
29178W        W46026  10.086   1.969   4.838  0.0726 -0.2002  0.2329
29179W        W46027   9.231   1.812   1.605  0.2466  0.1386  0.2964
29180W        W46028  11.072  10.432   2.417  0.3898 -0.2598  0.3627
29181W        W46029   1.691  13.184  13.925 -0.2158  0.3367  0.0498
29182W        W46030  16.711   0.503   1.213 -0.0953  0.0683 -0.4956
29183W        W46031  15.107  15.008   2.788  0.0926  0.0194  0.2132
29184W        W46032  12.395  17.814  14.896  0.2139 -0.1707  0.1205
29185W        W46033   0.170   0.211  12.669  0.1781  0.0511 -0.1329
29186W        W46034   1.428   0.036  15.336  0.6304 -0.1748  0.3664
29187W        W46035  13.506  14.741  13.578  0.0168 -0.3625 -0.0448
29188W        W46036  12.137   6.812  16.629 -0.0988  0.0160  0.0703
29189W        W46037   7.969  16.856  14.717  0.2906  0.1987  0.1178
29190W        W46038   5.762   7.088  14.398  0.0020  0.2399  0.0704
29191W        W46039   8.451  12.183   5.122  0.0614 -0.2493  0.0472
29192W        W46040   9.530  13.617  13.569  0.0747 -0.1676 -0.0672
29193W        W46041   1.439   7.177  11.285 -0.1000  0.4455 -0.2001
29194W        W46042   7.428   5.286  16.163  0.0752 -0.0001  0.0465
29195W        W46043  13.809   7.259   0.396 -0.0554 -0.2158 -0.0101
29196W        W46044   6.738  10.192  16.479 -0.1209 -0.1453 -0.1585
29197W        W46045   2.081   1.098   3.823  0.1789 -0.0657 -0.0962
29198W        W46046  16.700  15.771  13.969  0.1749 -0.1275  0.2193
29199W        W46047  15.769  16.255   0.292  0.0816  0.0483 -0.1604
29200W        W46048   6.150   8.891  15.317 -0.1702  0.0633 -0.3566
29201W        W46049   5.189   7.642  15.517  0.1143 -0.1143  0.0308
29202W        W46050   2.214  11.803  14.342 -0.2946 -0.0082  0.0068
29203W        W46051  13.159   0.793  14.963 -0.2031  0.3907 -0.1018
29204W        W46052  12.526   7.680  16.373  0.0490  0.2659 -0.1496
29205W        W46053   9.609  11.916  12.982  0.0333  0.0601 -0.0565
29206W        W46054   3.083   6.254   3.375 -0.3129  0.2765 -0.2253
29207W        W46055  14.296   7.441   5.134  0.1425  0.3182  0.1984
29208W        W46056  15.803  13.833  13.089 -0.1484 -0.0869 -0.1046
29209W        W46057  11.028  12.194   2.822 -0.1762 -0.0726 -0.2401
29210W        W46058  14.513   9.125   4.127  0.1508 -0.1068 -0.0469
29211W        W46059  14.246   3.323   5.306  0.1119 -0.2413 -0.0456
29212W        W46060  13.386  11.153   1.378  0.1320  0.1236  0.0906
29213W        W46061  17.303  10.573   1.860  0.0347 -0.1655 -0.0175
29214W        W46062   1.299  13.702  16.509  0.3068 -0.0338 -0.1085
29215W        W46063  16.035   5.332   3.512 -0.1217 -0.1117  0.0116
29216W        W46064   1.044   9.883   0.392 -0.0117 -0.2222  0.1393
29217W        W46065   8.313  16.374   3.075  0.1001 -0.1061  0.1453
29218W        W46066   4.599   5.877  14.761  0.0401  0.0582 -0.4045
29219W        W46067  13.474   8.138   3.477 -0.0198 -0.1634  0.1574
29220W        W46068  15.787   8.469  13.611 -0.0448  0.2235 -0.1762
29221W        W46069   2.939   7.137   3.274 -0.0590  0.1053 -0.1217
29222W        W46070  14.262   6.080   3.783  0.2913 -0.4416 -0.1903
29223W        W46071   7.026  12.981  15.547 -0.1833  0.2074 -0.1388
29224W        W46072   1.193  16.999  16.508  0.0109  0.2193  0.0284
29225W        W46073   0.237   8.291   4.309 -0.0847  0.1921  0.2072
29226W        W46074  13.567   3.088   0.984  0.0955  0.1098  0.0133
29227W        W46075   1.080   2.065  15.989  0.1033 -0.2631  0.1321
29228W        W46076   2.956   3.816  12.275 -0.1839 -0.0211  0.0694
29229W        W46077   6.469   1.907   4.776 -0.0106 -0.2802 -0.0559
29230W        W46078   0.848   3.727  12.371 -0.0734  0.0183 -0.0718
29231W        W46079  16.194   3.146   3.729 -0.0940 -0.0608  0.1399
29232W        W46080   2.513   5.573  11.960  0.0151 -0.0119  0.0201
29233W        W46081  13.399  15.729   4.756 -0.1543  0.1440  0.2029
29234W        W46082  11.940   8.783   4.071 -0.0266  0.0743  0.1427
29235W        W46083   7.348  14.654   4.951 -0.1329 -0.1715  0.3018
29236W        W46084   1.287  11.410   4.225  0.1459 -0.0494 -0.0546
29237W        W46085   9.421  13.715  12.436 -0.1466  0.1168  0.2254
29238W        W46086  13.966   5.427   4.921 -0.1716  0.2151 -0.0428
29239W        W46087  10.005   9.677   4.904 -0.3114  0.0205 -0.1613
29240W        W46088   5.323   8.473  15.416  0.2251  0.0769 -0.0514
29241W        W46089  10.807  16.957  13.996  0.0528 -0.1257  0.1513
29242W        W46090   8.863  12.653  12.981  0.3885  0.0256  0.1743
29243W        W46091  15.390   5.748  15.920  0.2044 -0.1830  0.0988
29244W        W46092  10.537  10.018   1.968  0.1050  0.2998 -0.1129
29245W        W46093   3.210   7.603  11.703 -0.0102  0.4961  0.1795
29246W        W46094   3.372  10.711  13.302 -0.2446  0.1251  0.0233
29247W        W46095   1.557  14.171   5.235 -0.0388 -0.1210  0.0577
29248W        W46096   1.794  15.731   3.108 -0.2510  0.0779 -0.0285
29249W        W46097   3.293  17.146   1.358  0.1464  0.2571 -0.0985
29250W        W46098  12.603   2.839   0.201 -0.1597 -0.0472 -0.3331
29251W        W46099   0.689   2.718   2.310 -0.1175 -0.2816 -0.0213
29252W        W46100   9.014   0.698   0.865 -0.0490  0.2119 -0.0051
29253W        W46101   7.121   5.423  15.020 -0.1368  0.1684 -0.1155
29254W        W46102  12.673  11.321  14.252 -0.0617 -0.0746 -0.2586
29255W        W46103   8.279   2.982  13.230 -0.2485 -0.1623  0.0971
29256W        W46104   3.239   7.263   4.624  0.2074 -0.0746 -0.0961
29257W        W46105  12.844  15.374  15.267 -0.1205  0.2202  0.1340
29258W        W46106  14.666  13.076  11.774  0.1487  0.0379 -0.3087
29259W        W46107  14.584  11.600  11.648 -0.0471 -0.1581  0.0769
29260W        W46108   7.227   1.772   2.151  0.0027 -0.4160 -0.2987
29261W        W46109  11.073   8.804  13.402 -0.3723 -0.0620 -0.0500
29262W        W46110  11.104   2.963  12.855  0.2756 -0.0503  0.1883
29263W        W46111  10.700   7.146   3.007 -0.0735 -0.1196  0.1892
29264W        W46112  12.093   9.321  12.764 -0.0103  0.3699  0.1168
29265W        W46113   5.902   5.046   4.489 -0.4582  0.2336 -0.2899
29266W        W46114   0.668  16.041  16.389 -0.0629 -0.0821 -0.0383
29267W        W46115   5.414   2.005  14.798  0.1902  0.0348  0.0593
29268W        W46116   6.352  11.896  12.755 -0.0788 -0.4376 -0.2344
29269W        W46117  16.619   6.072  13.355  0.1619 -0.2880 -0.0687
29270W        W46118  17.084  15.498  13.766  0.0780  0.0804 -0.0630
29271W        W46119   4.251  10.849   5.374  0.3946  0.0403  0.1075
29272W        W46120   8.608   1.936   1.881 -0.1288 -0.1257 -0.0427
29273W        W46121  12.832  13.079   5.106 -0.1341  0.0238 -0.0545
29274W        W46122   2.425   0.358  15.124 -0.0029  0.1776  0.1407
29275W        W46123   2.652   6.026  12.230  0.3739  0.0390 -0.0489
29276W        W46124  11.130  15.390   3.534  0.0501 -0.1568  0.1551
29277W        W46125  12.792   9.995  14.966 -0.0044  0.1850  0.1126
29278W        W46126  13.530   6.336   1.130 -0.0625  0.0495  0.2284
29279W        W46127   3.517   1.847   1.719  0.1641 -0.1676  0.1742
29280W        W46128  15.671   8.026   4.676 -0.1511  0.0641 -0.2073
29281W        W46129  12.027   0.626  15.453  0.0442 -0.2835  0.0796
29282W        W46130   6.844  12.052  15.350 -0.0511 -0.2211  0.1085
29283W        W46131   4.808  12.841   3.888  0.3756 -0.0519  0.0742
29284W        W46132  14.684  14.014   4.574 -0.1163  0.1267  0.0137
29285W        W46133  12.801   4.042   1.696 -0.1407  0.0351  0.0105
29286W        W46134   6.910   6.276  14.203 -0.1532 -0.1829 -0.0320
29287W        W46135  15.561   1.601   3.765  0.4266 -0.1690 -0.0800
29288W        W46136   8.817   4.332   3.687  0.0276  0.0916  0.0429
29289W        W46137  11.602   6.853   4.825  0.0004  0.0643  0.0099
29290W        W46138  12.721   8.903   1.146  0.1938  0.1321 -0.0473
29291W        W46139  15.136  17.344  16.103  0.0075 -0.2751  0.1905
29292W        W46140   9.400  10.613  15.612 -0.1486  0.0673  0.1502
29293W        W46141   1.607   8.983   3.309 -0.2806  0.0691  0.0160
29294W        W46142   1.024   4.423  13.874 -0.0664 -0.0931  0.1036
29295W        W46143   5.625  12.463  16.506  0.0631  0.0866 -0.1453
29296W        W46144   8.528   5.347  16.162 -0.1353 -0.0294 -0.0594
29297W        W46145  10.668  13.826   0.237 -0.0115 -0.2110  0.0062
29298W        W46146  15.291   8.222   4.325 -0.1466 -0.1421  0.0199
29299W        W46147   8.127   0.503   2.899  0.0927 -0.1465 -0.1941
29300W        W46148  14.700  13.590  15.529  0.2565  0.1891  0.0093
29301W        W46149   3.491   9.599  14.346  0.1176 -0.2412  0.0085
29302W        W46150   2.940  13.453   0.610 -0.4940 -0.0870 -0.2095
29303W        W46151   6.866   4.861  14.020 -0.1235  0.1221 -0.0075
29304W        W46152  17.411   2.841   5.535  0.1107 -0.1370  0.1932
29305W        W46153  16.381  17.486   1.289 -0.4457  0.3231 -0.1631
29306W        W46154  10.432  13.703  12.712 -0.3797 -0.2709 -0.1632
29307W        W46155  12.577   7.524  14.303  0.0611  0.0833 -0.2206
29308W        W46156  10.007  13.748   3.468 -0.0079 -0.1653 -0.1633
29309W        W46157  12.456  15.474   1.542  0.1796  0.1486  0.1481
29310W        W46158   8.013   3.722  16.548  0.0230 -0.2120  0.0194
29311W        W46159  13.581  13.437   0.587  0.0550  0.0973 -0.2072
29312W        W46160   8.404   0.629   3.312  0.2357 -0.0324  0.1960
29313W        W46161  10.383   5.677   5.514 -0.3527  0.0062  0.2360
29314W        W46162   7.372  13.982  15.147  0.2206 -0.0038 -0.0994
29315W        W46163   1.612   2.714  16.289  0.1556 -0.2556 -0.1109
29316W        W46164  10.898  15.695  11.905  0.0834  0.0886 -0.0583
29317W        W46165   7.696   5.728  14.542  0.2520 -0.1891 -0.1345
29318W        W46166  16.788  13.129   2.337 -0.0141  0.1655  0.1464
29319W        W46167   9.648   4.379   3.984 -0.1608  0.1670  0.1902
29320W        W46168  15.643   2.547   1.185  0.3102 -0.0856  0.2681
29321W        W46169   2.499   1.905  15.069 -0.0319  0.1219 -0.3215
29322W        W46170  17.036   1.900  16.046 -0.0301  0.3815 -0.0460
29323W        W46171   7.554   1.580  13.892  0.1454 -0.2572  0.0135
29324W        W46172   8.340  11.598   3.320 -0.2156  0.0295 -0.1460
29325W        W46173   9.433   0.351  16.105  0.5045  0.1807  0.0650
29326W        W46174  15.291  16.193  12.389  0.2636  0.0321  0.1056
29327W        W46175  17.142   0.696   0.322 -0.0712  0.2162 -0.0648
29328W        W46176   0.265   4.381  13.405 -0.1230  0.0514  0.0683
29329W        W46177   3.415  16.087  15.577 -0.1497 -0.1413  0.1545
29330W        W46178  14.743  14.556   3.858  0.4049  0.2639 -0.1167
29331W        W46179   3.751   2.422  11.711  0.1353  0.0148  0.1703
29332W        W46180   0.740  13.462  15.835 -0.0976  0.2385  0.2301
29333W        W46181   4.859   6.757  11.352 -0.1794 -0.0316 -0.2153
29334W        W46182  11.663   4.815  13.796 -0.1489  0.1344 -0.0037
29335W        W46183  12.793   4.959   4.469 -0.2072 -0.0135 -0.0660
29336W        W46184   2.508   4.668   3.692 -0.0960  0.0147 -0.0090
29337W        W46185   2.168   8.056  13.238  0.3353 -0.1708  0.1110
29338W        W46186   1.154  11.531   0.940  0.0139  0.0098 -0.0439
29339W        W46187   9.173   4.591  14.681  0.1504 -0.0360  0.0525
29340W        W46188  13.436   1.985   3.086 -0.1636  0.1943 -0.1194
29341W        W46189  12.872   3.561  11.414  0.1059  0.1169 -0.0044
29342W        W46190  17.177   1.028   5.345 -0.2723 -0.0408 -0.1512
29343W        W46191   0.528   6.104  16.018 -0.0984  0.1582  0.1383
29344W        W46192  10.243   9.170   0.602  0.2509 -0.3063 -0.1276
29345W        W46193  14.323  17.369  14.813 -0.0932  0.0732  0.0647
29346W        W46194   4.022   6.385  15.139 -0.1335 -0.1188  0.0957
29347W        W46195  14.446  13.450   1.015  0.1261 -0.2058 -0.1479
29348W        W46196   9.145  11.422   4.368  0.0940  0.1554 -0.1279
29349W        W46197   5.353   5.586  13.430  0.0530 -0.1616 -0.1425
29350W        W46198  12.616  12.168  10.489 -0.0891  0.1530  0.4338
29351W        W46199   7.574  11.341   2.083  0.0770  0.0242  0.0291
29352W        W46200   9.846   0.495   4.673 -0.0909 -0.1673  0.0143
29353W        W46201  10.406  16.871   0.143 -0.4835  0.2675  0.2805
29354W        W46202  17.204   7.211   1.629  0.1410 -0.2656 -0.3069
29355W        W46203  15.583   6.876   3.261 -0.0044 -0.1782 -0.1238
29356W        W46204   3.968   6.216  10.657  0.2012  0.1099 -0.2797
29357W        W46205  13.839   0.110  16.072 -0.1018  0.1370 -0.0610
29358W        W46206  12.732  17.809   4.058 -0.0344 -0.2271  0.2503
29359W        W46207  12.483  13.826   2.070 -0.1906 -0.0736 -0.0913
29360W        W46208  15.912   0.913   2.738  0.1963 -0.0657  0.4004
29361W        W46209   6.523  12.041   1.029  0.3618  0.0865  0.0450
29362W        W46210   0.560   5.230   3.565 -0.1441  0.1490  0.3636
29363W        W46211  17.568   5.691  16.001  0.0647  0.0914 -0.2878
29364W        W46212  13.550   9.566   4.143  0.3701  0.1031 -0.0601
29365W        W46213  14.520   1.578  12.646  0.1545 -0.1204  0.1000
29366W        W46214   0.326   8.530  16.386  0.0638  0.1082 -0.0436
29367W        W46215   9.457   8.777   3.178  0.1977  0.4072 -0.2246
29368W        W46216  13.361  12.614  15.810  0.1530 -0.0181  0.0109
29369W        W46217   7.425  10.568   3.702  0.1902  0.1115 -0.3279
29370W        W46218   5.448   1.616   3.048  0.2405  0.2509  0.0849
29371W        W46219  11.425   2.270  15.030 -0.0872 -0.0965  0.0610
29372W        W46220  16.161  12.872  13.434 -0.0204  0.1924  0.2892
29373W        W46221   1.658   7.107   5.068  0.0316 -0.2247  0.0224
29374W        W46222  12.043   8.668  15.921  0.1531  0.0375 -0.1532
29375W        W46223  17.850  11.042  13.314 -0.3935  0.0789 -0.1985
29376W        W46224  16.357   4.016  14.528 -0.1435  0.2813 -0.1223
29377W        W46225  11.113  12.845  16.103 -0.2076 -0.2007 -0.0342
29378W        W46226  17.082   0.882  16.461 -0.1087 -0.0788  0.0877
29379W        W46227  14.892  11.443   3.656  0.1478  0.0885 -0.1238
29380W        W46228   6.869   6.607  11.498  0.2036  0.1510 -0.2475
29381W        W46229   6.178   3.252  12.203  0.1281 -0.0198 -0.0123
29382W        W46230  16.686   7.415   4.979 -0.0229 -0.4009  0.0842
29383W        W46231  13.076   6.133   2.889  0.0795  0.2215 -0.0125
29384W        W46232  14.968  11.032  15.508  0.0957 -0.2111  0.1520
29385W        W46233   4.031  12.887  14.740  0.0233  0.2225 -0.2082
29386W        W46234  16.954   4.998   3.087 -0.0021  0.2141 -0.0582
29387W        W46235  12.891   2.572   0.510 -0.2672  0.1354  0.0921
29388W        W46236   9.047   7.515  15.231 -0.1151  0.0881 -0.0423
29389W        W46237   1.623   8.132  15.068  0.0169 -0.0599  0.1620
29390W        W46238  10.936  13.148  16.429 -0.0152 -0.1151 -0.2049
29391W        W46239  14.033   8.852   4.018  0.0424 -0.0323  0.0355
29392W        W46240   4.374  11.077   4.920 -0.0598  0.0471  0.0186
29393W        W46241   8.593   6.525  14.088 -0.1818  0.2215 -0.4063
29394W        W46242   9.171  12.547   2.723  0.3269  0.3085  0.1206
29395W        W46243   9.416  16.151  15.940 -0.2525 -0.4086  0.1396
29396W        W46244  17.311   6.902  15.969 -0.1648 -0.2447 -0.1799
29397W        W46245   2.138  14.749  14.756  0.0209  0.1142 -0.1568
29398W        W46246   4.006  14.893  13.793  0.3262 -0.1017  0.1475
29399W        W46247  17.619  15.613  12.250 -0.1182 -0.1411  0.5142
29400W        W46248   6.956   6.547   2.196  0.1361  0.1000  0.1612
29401W        W46249   0.936   0.967   4.382 -0.2373  0.1585  0.4231
29402W        W46250  14.870  11.439  16.012  0.2284  0.1859 -0.0621
29403W        W46251  11.269  11.401   5.723  0.1059  0.3580  0.0695
29404W        W46252   8.808  14.020   4.168 -0.0288  0.2503 -0.0936
29405W        W46253   1.809   2.061   1.993  0.0487  0.1954  0.0191
29406W        W46254  13.983   2.770   3.665  0.0591  0.0920  0.0852
29407W        W46255  10.789   6.047   2.266 -0.1677 -0.1979  0.3084
29408W        W46256   0.284   8.784  11.435 -0.0889  0.3547  0.1256
29409W        W46257  12.683  14.988  11.559  0.1789  0.0882 -0.0280
29410W        W46258   6.764   8.038  11.663  0.0172 -0.0684  0.2059
29411W        W46259  13.499  13.712   2.129 -0.3708  0.2113 -0.1102
29412W        W46260  11.921   4.716   1.143  0.3169 -0.0532 -0.1347
29413W        W46261  12.334  15.983  12.145 -0.0387  0.0401 -0.0652
29414W        W46262  10.316   2.886  13.496  0.0177  0.0129 -0.0601
29415W        W46263  12.909   3.087  14.760 -0.2669  0.0563  0.0842
29416W        W46264  15.744   9.424   0.530 -0.0596  0.2405 -0.0165
29417W        W46265   1.933   0.426  15.045  0.0578 -0.1152  0.1425
29418W        W46266  11.422  15.530  12.564 -0.2047 -0.1138  0.2361
29419W        W46267   9.404   4.886  12.868 -0.0590 -0.1048 -0.0889
29420W        W46268   1.551   2.563  12.362 -0.3571 -0.1104  0.0011
29421W        W46269   9.007  11.850  12.531  0.1698 -0.1253 -0.0797
29422W        W46270   0.578   7.018  14.557  0.2677 -0.2185 -0.0930
29423W        W46271  10.493   2.220  16.252  0.0232  0.0018 -0.0227
29424W        W46272   2.094  16.193   1.451 -0.0915 -0.1885 -0.1022
29425W        W46273  13.736  10.991   2.914  0.0036  0.1211 -0.1311
29426W        W46274  17.179  13.036   3.117 -0.0838 -0.2239 -0.1223
29427W        W46275   5.624   3.619  12.544 -0.2028 -0.0410 -0.4554
29428W        W46276   2.468  15.632   3.545 -0.2533  0.2384  0.2102
29429W        W46277   0.077   5.988   4.583 -0.3138  0.1481 -0.1743
29430W        W46278   2.504  11.029   1.976 -0.0970  0.2020 -0.2082
29431W        W46279   3.060   2.030  16.284  0.2335 -0.3492  0.1736
29432W        W46280   3.041  15.382  15.897 -0.2640 -0.2849 -0.0387
29433W        W46281  10.975  16.908  12.002 -0.2655  0.2631 -0.0208
29434W        W46282  11.889  15.182  14.099  0.0068 -0.0745 -0.0632
29435W        W46283   4.427  15.573   4.070 -0.0136  0.2530 -0.1512
29436W        W46284  12.312   7.723  15.932 -0.1564 -0.0388 -0.1920
29437W        W46285   6.655   5.892  12.012 -0.3412 -0.0701  0.0239
29438W        W46286   6.655   2.183   4.220 -0.4149 -0.0447 -0.0418
29439W        W46287   0.648  13.056  16.090 -0.0143  0.0568  0.1394
29440W        W46288  15.157  12.618   5.451  0.4973 -0.1611 -0.0318
29441W        W46289   4.670   4.598   3.068 -0.2816 -0.3663 -0.1281
29442W        W46290   5.900  10.857   0.092  0.1440  0.0385  0.3521
29443W        W46291  12.259  13.002   4.066  0.1759 -0.2021 -0.0560
29444W        W46292   0.314   6.649   0.085  0.1925  0.0302  0.0145
29445W        W46293  11.494   4.147   0.993 -0.3534 -0.1044 -0.2619
29446W        W46294   5.271  17.109  13.124  0.0015  0.2770  0.0791
29447W        W46295   8.224  14.552   2.909 -0.1613 -0.2209  0.0404
29448W        W46296   4.092   9.566  14.873 -0.1016 -0.3998  0.1124
29449W        W46297   3.090  14.964   4.546  0.2896 -0.0366 -0.0357
29450W        W46298  10.699   0.586  12.450 -0.0640 -0.0012  0.0009
29451W        W46299  14.960  14.079  12.762 -0.4484 -0.4488 -0.1736
29452W        W46300   5.473  16.299   1.956 -0.0094  0.1087 -0.1229
29453W        W46301  13.998  15.934  15.628  0.0476  0.3470  0.1504
29454W        W46302  17.722  12.008  16.384  0.0420  0.2028  0.2777
29455W        W46303   8.107   1.416  11.036 -0.3814  0.0306  0.1061
29456W        W46304  13.609   1.353   0.261  0.1260 -0.1562 -0.1204
29457W        W46305   7.309   3.397   2.800 -0.3198  0.0307 -0.1901
29458W        W46306  13.265  14.940   0.292  0.0598  0.0927 -0.0550
29459W        W46307   7.983  14.399  12.205 -0.1286  0.1508 -0.0832
29460W        W46308  12.186   9.812   0.127  0.2235  0.0589 -0.1489
29461W        W46309   9.350  10.837  11.837 -0.0887  0.1110 -0.2811
29462W        W46310   7.140   8.960  13.583  0.1011  0.2175  0.3494
29463W        W46311  14.508   4.042   5.322 -0.0804 -0.1393  0.2534
29464W        W46312   9.221  12.214  12.245 -0.0543  0.1601 -0.1724
29465W        W46313   2.935  11.185   3.781 -0.0140 -0.2001  0.0019
29466W        W46314   3.839   4.015  13.337  0.0931  0.2691  0.2811
29467W        W46315   7.140   4.794   4.626 -0.1482  0.1270  0.0038
29468W        W46316  11.316   1.984  11.186  0.1698 -0.3352 -0.2206
29469W        W46317  12.068   3.104  14.012  0.3134 -0.4232 -0.0975
29470W        W46318   8.112   5.884  11.406  0.1983  0.0475  0.3099
29471W        W46319   6.066  17.389  16.554  0.1567 -0.1590  0.0564
29472W        W46320  13.232  17.170   2.768 -0.1674  0.1669  0.0416
29473W        W46321  13.113  15.954  14.950  0.0110 -0.1537 -0.0794
29474W        W46322   7.439  10.188  13.657 -0.0476 -0.1049 -0.2447
29475W        W46323   5.228   7.132  14.271  0.0178  0.2540 -0.6089
29476W        W46324  11.885  11.058  12.773  0.1320  0.2737  0.1765
29477W        W46325   3.673   3.319   3.169  0.0367 -0.2186 -0.3446
29478W        W46326   6.833   5.847  12.848 -0.1059  0.1583  0.1767
29479W        W46327   9.846   6.887   2.389  0.1164 -0.4680 -0.1178
29480W        W46328  17.694   6.756   0.147 -0.0130 -0.0312 -0.3582
29481W        W46329   6.014  14.918  14.869 -0.0401  0.2189 -0.4666
29482W        W46330   9.782   1.253  15.762  0.1436  0.3127  0.0657
29483W        W46331   4.865   4.871  11.527  0.1176 -0.0900 -0.0732
29484W        W46332  14.025  15.132   1.823  0.0645  0.0824 -0.1664
29485W        W46333  15.423  15.054  13.945 -0.1835  0.2153 -0.0376
29486W        W46334  12.752   5.203   3.711  0.1285 -0.0866  0.1189
29487W        W46335   2.348  11.424  14.724  0.0615 -0.0113 -0.0894
29488W        W46336  10.616  11.493  15.440  0.1205  0.0415 -0.2298
29489W        W46337   5.118   7.542   4.337  0.3448 -0.0091  0.2243
29490W        W46338   5.107  16.059  16.225 -0.0199 -0.0865 -0.1490
29491W        W46339  12.078  13.166  13.933 -0.0909 -0.0270  0.0503
29492W        W46340   8.132  11.847   0.034  0.0945  0.2444 -0.2323
29493W        W46341   0.985   6.992  15.519  0.2469 -0.0459 -0.3926
29494W        W46342   3.862   3.755  15.014  0.3250 -0.1181  0.2713
29495W        W46343   4.650  11.329   4.586  0.1160  0.0916 -0.1684
29496W        W46344   4.007  14.733  12.718 -0.0669 -0.2034 -0.1070
29497W        W46345   4.630   2.659  11.801  0.0822  0.2900 -0.1975
29498W        W46346  10.666   4.504  13.578 -0.0283  0.0012  0.3853
29499W        W46347   4.145   4.449  13.762  0.2430 -0.2193 -0.2793
29500W        W46348   1.539  10.392  13.080  0.1551 -0.0707  0.0653
29501W        W46349   7.473   5.013  15.279 -0.1035  0.1975 -0.0548
29502W        W46350  14.917   7.287   2.937 -0.0076 -0.2488 -0.0629
29503W        W46351   9.032   6.372   0.301  0.0697 -0.1602 -0.1460
29504W        W46352  11.269   8.428   5.046  0.2238 -0.2601 -0.1435
29505W        W46353  15.453   7.782   1.380 -0.2014  0.0846 -0.1505
29506W        W46354  12.089  13.939   0.030 -0.2890 -0.2233  0.2364
29507W        W46355  10.769   0.365   4.665 -0.2779 -0.2355  0.0556
29508W        W46356  14.678   5.981   0.173 -0.4225  0.0450  0.1659
29509W        W46357   0.306  13.786  15.450  0.1018 -0.0672  0.3054
29510W        W46358  14.278   3.720  15.708 -0.0399  0.0356  0.1551
29511W        W46359  12.773   1.546  10.592 -0.0868  0.1067 -0.0753
29512W        W46360   1.824  10.580   1.593 -0.0547  0.1257  0.1675
29513W        W46361  14.222   3.841  14.458 -0.2202 -0.0643 -0.1446
29514W        W46362  17.513   3.626   2.869  0.1916 -0.0272 -0.1499
29515W        W46363  16.612  10.637   2.898  0.0932  0.2598  0.1345
29516W        W46364  13.814  16.404   5.812  0.2558  0.2579  0.0235
29517W        W46365   7.690  11.505  11.448 -0.0710  0.1535  0.3007
29518W        W46366  14.303   5.741   2.562 -0.0031 -0.0946  0.0910
29519W        W46367   9.609  11.045  12.551 -0.1758  0.1734  0.2166
29520W        W46368   8.725  11.457  13.770  0.2500 -0.0599 -0.0812
29521W        W46369  15.085  13.763   2.737  0.0444  0.1866  0.0762
29522W        W46370  15.333  13.886   3.978  0.0868 -0.0326  0.0157
29523W        W46371  14.361   0.201  12.747 -0.0854  0.1882  0.2170
29524W        W46372   2.984  17.468  15.550 -0.2915  0.0271 -0.0793
29525W        W46373   9.948  15.889  14.519 -0.0337 -0.0510  0.2625
29526W        W46374  14.952   5.391   3.756 -0.2742 -0.1379  0.0430
29527W        W46375   8.327   5.226  12.203  0.2346  0.2182  0.0987
29528W        W46376   3.108   5.233  13.608 -0.1525  0.0228  0.2625
29529W        W46377  13.418   0.382   4.682 -0.1914  0.1071 -0.2945
29530W        W46378  11.506  17.568   3.525  0.0621 -0.1070 -0.0747
29531W        W46379  10.630  11.351  13.055  0.0165 -0.0134 -0.1777
29532W        W46380   6.596   8.955  15.497 -0.1426 -0.0531 -0.1551
29533W        W46381   6.992  17.539  14.237 -0.0382  0.2110 -0.0555
29534W        W46382   5.859  16.219   1.480  0.1097  0.2053  0.2864
29535W        W46383   4.397  16.994  13.471 -0.0240 -0.0948  0.1966
29536W        W46384   9.285  17.145   4.772 -0.2675  0.0464  0.0873
29537W        W46385  13.108  13.490  12.674  0.1312  0.1456  0.1000
29538W        W46386  10.346   5.368   5.043 -0.1983  0.0235  0.2306
29539W        W46387   5.732   6.534   1.515  0.0561 -0.1317 -0.0452
29540W        W46388   8.123  13.409   3.608 -0.2319  0.0230 -0.2039
29541W        W46389   2.151   7.610   3.967 -0.0406  0.0475  0.2049
29542W        W46390  14.416   0.613  13.382  0.0967 -0.1086 -0.3020
29543W        W46391   6.495   6.202  14.441 -0.0544  0.0728  0.0738
29544W        W46392   6.122  10.678   0.484 -0.0454  0.0987  0.0073
29545W        W46393  12.236   3.752   0.765  0.0935  0.1745  0.0158
29546W        W46394   8.772  11.979   2.042 -0.1837  0.0711  0.2182
29547W        W46395   3.201   7.289  12.896  0.2849 -0.2799 -0.0858
29548W        W46396   1.413  17.357   0.992  0.2730  0.3847 -0.0424
29549W        W46397  16.610   1.023   1.172  0.3273  0.2410  0.1074
29550W        W46398   5.884  13.847  15.685 -0.4250  0.0803  0.2480
29551W        W46399   8.290  12.080   3.222 -0.2940 -0.0674  0.1258
29552W        W46400   6.381   5.754  16.111 -0.0866  0.0787 -0.4123
29553W        W46401  15.049  12.122  11.843  0.1814 -0.1803  0.0163
29554W        W46402   5.266  16.022  15.027  0.0660 -0.3391 -0.0873
29555W        W46403  13.361  13.083   6.137 -0.4643  0.3717 -0.2914
29556W        W46404   2.824   3.714  15.062 -0.1068 -0.1722 -0.1393
29557W        W46405   2.683   0.654   2.833  0.5082  0.1198 -0.0261
29558W        W46406  17.066  11.269  13.596 -0.1078  0.2540  0.1943
29559W        W46407   6.374   1.060   4.942 -0.1811 -0.1751  0.0803
29560W        W46408   9.249   8.434   1.232  0.1860  0.2998 -0.1310
29561W        W46409   3.747   5.222   5.759  0.0584  0.2856  0.3737
29562W        W46410   8.317  13.656   1.308 -0.1608 -0.3904 -0.2325
29563W        W46411  16.627  12.315   5.304  0.1991 -0.0534  0.0981
29564W        W46412   2.224  10.957  14.687 -0.1183 -0.2797  0.2942
29565W        W46413   1.047   3.820   0.418  0.2809 -0.0549 -0.0760
29566W        W46414  10.796   4.924  13.266  0.0781  0.0446 -0.1305
29567W        W46415  10.127   4.579   3.761  0.3604 -0.0843 -0.0012
29568W        W46416   2.137  16.878  11.832  0.0901 -0.1983  0.0366
29569W        W46417   3.795   1.016   3.480  0.1022  0.0665  0.0789
29570W        W46418  11.653  12.884  11.636 -0.1600 -0.0541  0.1701
29571W        W46419   3.815  10.388   3.037  0.1847  0.0396  0.1890
29572W        W46420   7.705   5.445   5.260  0.2030 -0.2012  0.0291
29573W        W46421  17.120   2.793  14.507  0.1503 -0.1598 -0.0166
29574W        W46422   7.118  13.922   0.413  0.0961  0.0688 -0.4855
29575W        W46423  10.393   6.750   0.910 -0.1152  0.2854  0.0231
29576W        W46424   8.543   3.315  12.384  0.1493 -0.0288  0.1999
29577W        W46425   3.255  11.762  14.097 -0.0180 -0.2036  0.1418
29578W        W46426  16.501   6.743   1.272 -0.1086 -0.0241  0.0493
29579W        W46427   6.726   1.002  12.050 -0.0221  0.1966  0.0386
29580W        W46428   2.087  10.926   5.036  0.0368  0.1682 -0.1156
29581W        W46429   0.606  16.353   5.025  0.1328 -0.0906 -0.1015
29582W        W46430   1.420   0.818   4.207 -0.2009  0.1463 -0.1287
29583W        W46431   2.160   3.705  14.898  0.2287 -0.2367  0.1965
29584W        W46432   8.675   6.788  12.764 -0.0105 -0.1252 -0.2286
29585W        W46433   0.471   6.659   3.344 -0.4314  0.3335  0.0282
29586W        W46434   6.919   5.881  15.956  0.1778  0.2051 -0.1100
29587W        W46435  11.599   8.706  13.177  0.3777 -0.2429  0.3866
29588W        W46436   6.166   1.031  15.874 -0.3929  0.1952  0.2370
29589W        W46437   0.030  15.250  14.027  0.2464 -0.0271 -0.0040
29590W        W46438   7.691   8.141  11.706  0.0525  0.1573  0.0823
29591W        W46439  12.173  16.648   1.440  0.3216  0.2601  0.0140
29592W        W46440  10.986   0.832   1.127 -0.0116 -0.0411  0.0538
29593W        W46441   0.052   3.541  11.178 -0.1858  0.2424  0.2057
29594W        W46442  16.789   9.958   2.078  0.0482 -0.2221 -0.1177
29595W        W46443   2.058   1.208  12.107  0.2414  0.0626  0.2992
29596W        W46444   4.051  15.303  11.862  0.1344 -0.0136  0.2126
29597W        W46445  11.789  17.837  14.894 -0.1300  0.4348 -0.3073
29598W        W46446   6.877   7.588   3.029  0.0141 -0.0415 -0.1957
29599W        W46447   5.318   9.928  12.566 -0.1871 -0.0515 -0.0786
29600W        W46448   7.836  17.777   2.151 -0.0933 -0.1047  0.3534
29601W        W46449  12.496   0.857   3.105  0.0101  0.0672 -0.1074
29602W        W46450  11.804   8.885  11.825  0.0555 -0.2039  0.0353
29603W        W46451   0.952   3.192   4.722  0.1103 -0.2075 -0.1737
29604W        W46452   0.402   5.304  12.906  0.0515  0.1754 -0.2280
29605W        W46453   6.022  10.510  16.247  0.2276 -0.0941 -0.0379
29606W        W46454  14.934  10.006  14.797  0.0665  0.4158 -0.1999
29607W        W46455  11.283   6.776  13.060 -0.0029 -0.1302  0.0367
29608W        W46456  11.283   0.600  14.877  0.4638  0.1918  0.1635
29609W        W46457   1.548   4.088   1.049 -0.2346  0.0844 -0.0803
29610W        W46458   2.063   8.798   3.414 -0.2546  0.2429 -0.0637
29611W        W46459  16.857   0.803   2.419  0.1166 -0.1745 -0.1108
29612W        W46460   7.046   5.433  10.516  0.2670  0.1546 -0.1152
29613W        W46461  10.647   1.375  11.362 -0.0592  0.2992 -0.3621
29614W        W46462  17.815   0.160   1.684 -0.1250  0.4147  0.1948
29615W        W46463   3.195   6.868   0.417  0.3043  0.1131 -0.0005
29616W        W46464  12.990   9.281  13.850 -0.1053  0.2828  0.0920
29617W        W46465   0.416   7.869  14.385 -0.1021  0.2951  0.3706
29618W        W46466   3.488   8.568  14.697  0.0046 -0.1207 -0.1572
29619W        W46467   5.026  13.484  11.820  0.0213  0.1463  0.0877
29620W        W46468  14.281   5.565  13.741 -0.1602 -0.2374 -0.3493
29621W        W46469  15.602  17.471  16.425  0.0293 -0.5055  0.3546
29622W        W46470   9.013   1.767  13.790  0.2273 -0.2670  0.0146
29623W        W46471   7.781   2.057  11.767 -0.0928  0.0188  0.0864
29624W        W46472  14.561  12.001   3.047 -0.4352  0.2107  0.2134
29625W        W46473   3.999   4.738   1.102 -0.0479  0.0914 -0.1417
29626W        W46474   1.727   2.167  14.549 -0.2010 -0.0197  0.2740
29627W        W46475  13.962  11.338  13.829  0.2540 -0.0981 -0.0253
29628W        W46476  10.580  13.868  15.880 -0.2191  0.1405  0.1107
29629W        W46477   6.714  16.603  12.148 -0.2156  0.0080 -0.3542
29630W        W46478   8.359   5.073  14.225 -0.1788  0.1324  0.2896
29631W        W46479   0.461   7.288   0.758 -0.2608  0.1389  0.0532
29632W        W46480  12.011   3.426   1.539  0.0013  0.0746 -0.3874
29633W        W46481   9.245   4.641   1.208 -0.1125  0.1868 -0.1127
29634W        W46482  16.894  13.808  12.691 -0.0304  0.2227  0.0825
29635W        W46483  17.618   6.371  13.336 -0.1068 -0.0845 -0.2212
29636W        W46484  15.219  11.108  15.058 -0.0559 -0.0781 -0.1453
29637W        W46485   4.809   8.651   5.219 -0.0009  0.2892  0.0374
29638W        W46486  16.313  11.506   3.308 -0.3884 -0.0720  0.2298
29639W        W46487   9.631   9.919  16.182 -0.2018 -0.0991  0.0063
29640W        W46488   7.781   5.713  11.063 -0.2989 -0.1385  0.0529
29641W        W46489   6.247   1.587  12.808 -0.1083 -0.1017 -0.1077
29642W        W46490   2.540   7.310  13.270  0.0159 -0.2826  0.2829
29643W        W46491  12.146  11.927   5.565 -0.2518 -0.0921  0.1257
29644W        W46492  16.907  16.392  13.193 -0.2574  0.0378  0.0860
29645W        W46493   8.616   8.675   0.529 -0.0543  0.0629  0.2360
29646W        W46494   5.190   2.281   0.635 -0.1403  0.0488  0.1423
29647W        W46495   0.295  13.907   2.366 -0.0300 -0.1608 -0.0298
29648W        W46496   1.151   1.237  13.827  0.0074 -0.0115 -0.4792
29649W        W46497   2.466   3.159  13.403  0.0722  0.0916  0.0994
29650W        W46498   9.181   6.823   1.620 -0.1624  0.1335  0.1287
29651W        W46499  10.886   4.462   5.041  0.0824 -0.3274 -0.0397
29652W        W46500   2.334   7.161   2.080 -0.2148 -0.0180 -0.0971
29653W        W46501   0.525   4.730  11.601  0.0825 -0.0239  0.2065
29654W        W46502   5.319   7.998  15.800  0.3408 -0.0737 -0.3095
29655W        W46503  12.193  13.535  15.655 -0.2477 -0.2476  0.3163
29656W        W46504   5.763  15.541   3.734 -0.2194  0.2254 -0.0588
29657W        W46505   1.124   9.667  11.953  0.3327  0.1626 -0.6141
29658W        W46506   9.643   8.354  15.113  0.1531  0.2087 -0.2942
29659W        W46507  15.686   8.366   1.641  0.3451 -0.0197  0.1557
29660W        W46508   4.109  10.503   1.195  0.0225 -0.0228 -0.1071
29661W        W46509   9.373  10.360  11.552  0.0282  0.0039 -0.2589
29662W        W46510   7.288   5.848  12.848 -0.2093 -0.5830  0.0928
29663W        W46511   6.794  12.766  12.967 -0.4569  0.1951  0.0739
29664W        W46512   6.598  12.634   2.902  0.3603 -0.0068 -0.1872
29665W        W46513  16.871  11.229   0.729  0.2205 -0.0088  0.2078
29666W        W46514   7.162   5.892   4.674 -0.0300  0.0730 -0.1295
29667W        W46515   9.297   2.240   3.600  0.2120 -0.1049 -0.1468
29668W        W46516   9.309   6.741  15.997  0.1392 -0.0294 -0.0950
29669W        W46517  10.504   7.107  15.574  0.0226 -0.2760 -0.1762
29670W        W46518   0.122   0.113   2.242  0.0853 -0.0485  0.0167
29671W        W46519   9.860   6.352   2.309  0.2488  0.1193  0.2370
29672W        W46520  12.267   9.353   0.468 -0.1634 -0.0241  0.0791
29673W        W46521   8.703   2.600  11.884  0.0419  0.1120 -0.2033
29674W        W46522  13.477  10.134   6.235 -0.1892 -0.1605  0.1512
29675W        W46523   7.049   4.883   2.582 -0.0788  0.1379  0.1004
29676W        W46524   9.406   1.099  15.211  0.2229 -0.0202 -0.1993
29677W        W46525   2.801   7.755   3.936  0.1273 -0.1612 -0.2118
29678W        W46526  11.747  15.878  12.686 -0.0129  0.0656  0.3002
29679W        W46527   1.407  10.706   5.292  0.2727  0.0562  0.0064
29680W        W46528   1.221   2.731   4.642  0.1314 -0.0717 -0.0390
29681W        W46529  13.434   4.419  11.451  0.0240 -0.2427 -0.0278
29682W        W46530   7.094   1.657   4.664 -0.1105 -0.0497 -0.0023
29683W        W46531  14.268  12.048   0.927 -0.1705  0.4063  0.0440
29684W        W46532   8.975  14.371  14.688  0.2258  0.2656 -0.2860
29685W        W46533   7.924   1.229   1.294  0.0933 -0.0106 -0.1443
29686W        W46534  14.173   3.746  13.941  0.1417  0.0189  0.0230
29687W        W46535  17.847  11.753   3.772  0.0894  0.1496  0.1927
29688W        W46536  16.020   9.845  13.299 -0.2131 -0.0738  0.1540
29689W        W46537  15.550   1.379  15.734 -0.0014  0.1744 -0.1899
29690W        W46538  10.944  14.030   0.709  0.2394  0.0565 -0.1743
29691W        W46539  16.847   0.367   3.273 -0.0922 -0.2093  0.0549
29692W        W46540   8.487   0.118  16.118  0.1736  0.1498  0.2175
29693W        W46541   2.574   3.384  14.826  0.3287  0.4471  0.0931
29694W        W46542   9.493   8.101  15.879 -0.0066 -0.1533  0.1774
29695W        W46543   3.580  10.596   2.638  0.1803  0.1391 -0.1793
29696W        W46544   0.430  15.899   1.261  0.2962 -0.1922  0.0988
29697W        W46545   7.688  14.926   4.309  0.3975  0.1466  0.0515
29698W        W46546   7.412  17.554  14.549  0.0802  0.0165  0.2313
29699W        W46547   8.981   1.103  12.673 -0.0263 -0.0814 -0.2547
29700W        W46548   6.046   3.923   2.206  0.1717  0.1721  0.2660
29701W        W46549  16.527  13.243   1.125 -0.0162  0.2019  0.0677
29702W        W46550   8.764   3.536  12.869 -0.2267  0.0823  0.2892
29703W        W46551   4.066  17.413  15.233 -0.0335 -0.1185 -0.2864
29704W        W46552   1.934   8.585  16.044 -0.1249 -0.3542 -0.0095
29705W        W46553   8.051  11.911   4.786 -0.1996 -0.1466  0.0439
29706W        W46554  13.466   9.402   1.260  0.1032 -0.2299  0.1138
29707W        W46555  13.384  15.304  11.465  0.0032 -0.0100  0.0962
29708W        W46556   8.642  13.540   4.344  0.5560  0.1017  0.1649
29709W        W46557   1.353  16.882   0.750  0.0686 -0.1250  0.1489
29710W        W46558  14.887   2.513  15.744 -0.1336 -0.1388  0.0170
29711W        W46559  16.882   4.004   0.126  0.0937  0.0147  0.0855
29712W        W46560  12.153   4.165   4.308 -0.3155 -0.2586 -0.1106
29713W        W46561  15.402  17.296  15.629  0.1734  0.1805 -0.0018
29714W        W46562  13.024   1.556   4.153 -0.1615 -0.0114 -0.3045
29715W        W46563  11.152  10.833   2.117 -0.0781 -0.0719  0.0097
29716W        W46564   4.952  13.555   2.798  0.3424 -0.2823  0.2374
29717W        W46565  15.981   5.459   1.579 -0.1837  0.2237  0.0312
29718W        W46566  10.321   0.605   0.159  0.0880  0.1548  0.1285
29719W        W46567   7.167   1.150  14.386  0.3682 -0.1479 -0.2716
29720W        W46568   8.994  12.154  11.635  0.1764  0.0233 -0.4803
29721W        W46569  15.068  13.561   2.254 -0.0634  0.1183  0.0749
29722W        W46570   1.281   6.289   2.940 -0.0306 -0.0268  0.2318
29723W        W46571   2.762  15.640  14.753  0.0829  0.3161  0.2490
29724W        W46572  10.704   2.919   0.336 -0.0753 -0.0039  0.0364
29725W        W46573  14.917  12.071   0.681 -0.1241  0.0619 -0.0731
29726W        W46574   6.945   8.662   1.642 -0.0305  0.2720 -0.0047
29727W        W46575  13.496   9.505   0.177 -0.0181 -0.0684  0.0532
29728W        W46576  14.080  11.854  13.863  0.0332 -0.1002 -0.2230
29729W        W46577  13.801  11.734  14.796  0.2656  0.1146  0.2509
29730W        W46578  14.329   2.406  12.322  0.2499  0.1162 -0.1052
29731W        W46579   8.725   4.521  15.203  0.3965  0.0329  0.1527
29732W        W46580   7.540   1.181   2.988 -0.0464  0.2103  0.1001
29733W        W46581  10.800  16.947   1.206 -0.3159  0.1074 -0.0473
29734W        W46582  13.642  17.427   1.093  0.0955  0.1493 -0.0335
29735W        W46583   2.679  10.344  13.347  0.1986  0.1372 -0.1758
29736W        W46584  15.949  15.900   1.204  0.4191 -0.2472 -0.0609
29737W        W46585  12.049  14.768  12.536  0.0413 -0.0764  0.0636
29738W        W46586  15.519   4.380   2.491  0.0261  0.0676  0.1685
29739W        W46587   5.792  13.279  11.688 -0.1575 -0.1254  0.0408
29740W        W46588   3.111   6.550  13.248  0.0654  0.0906 -0.1845
29741W        W46589  16.966  17.323  14.122  0.1774  0.0500  0.1832
29742W        W46590   2.527  12.399   1.771  0.1752  0.0709 -0.2150
29743W        W46591   7.416   2.591   1.675 -0.1985 -0.0020 -0.3141
29744W        W46592   5.068  12.592  12.300  0.1083 -0.2122  0.0765
29745W        W46593   3.930  11.681   3.742  0.2705  0.1772 -0.0130
29746W        W46594  12.151   1.271   3.041  0.1902 -0.0530 -0.1029
29747W        W46595   6.681   1.181   5.298 -0.0981  0.0637 -0.1765
29748W        W46596   8.747  14.328  15.798 -0.0805  0.1178  0.0136
29749W        W46597  17.386   5.519   1.570 -0.1834  0.3275  0.0302
29750W        W46598  10.952  11.771   3.696 -0.1006  0.0267 -0.1410
29751W        W46599  17.102   1.681   4.707 -0.0341 -0.2279  0.2121
29752W        W46600   4.928   4.034  13.550  0.0061 -0.0301  0.3028
29753W        W46601   4.463   6.817   0.927  0.3487  0.2619  0.1000
29754W        W46602  11.617   1.664   4.530 -0.1145 -0.0549 -0.1656
29755W        W46603   4.462   0.301   4.506  0.1589 -0.2814 -0.0693
29756W        W46604  16.201   8.710  13.693 -0.1239 -0.1473 -0.0402
29757W        W46605   8.905  13.409  13.295  0.1434 -0.0421  0.1531
29758W        W46606   0.193   9.377  16.398  0.2070 -0.0668  0.1830
29759W        W46607   0.043  13.042  13.500  0.1359  0.2132  0.2385
29760W        W46608  11.056   9.230  12.821 -0.1204 -0.1382  0.0126
29761W        W46609   7.449   7.828   2.976 -0.0325  0.0295  0.1323
29762W        W46610   7.777  17.758  12.204 -0.1391 -0.3030 -0.1698
29763W        W46611   5.494  10.690  15.455 -0.1794  0.2383  0.2796
29764W        W46612  17.624   7.233  11.990 -0.2619  0.0864  0.3254
29765W        W46613  10.338  12.404   5.982 -0.2170  0.1993  0.0409
29766W        W46614  17.163   9.844  15.737 -0.3746 -0.2360  0.0803
29767W        W46615   2.166  11.587   1.600 -0.1209  0.1421  0.1030
29768W        W46616  16.362   6.683  15.599 -0.0399  0.2922  0.0296
29769W        W46617   5.563  11.512   1.817  0.0731  0.3718  0.0141
29770W        W46618   6.085  12.436   2.857 -0.4135  0.2731 -0.0063
29771W        W46619   4.713  11.310   3.158 -0.2204  0.0903 -0.0880
29772W        W46620   7.143   9.507   1.490 -0.1668  0.2351  0.0889
29773W        W46621   4.275  17.349   4.327  0.3557  0.1793 -0.1062
29774W        W46622  10.818  11.298   0.125 -0.1810  0.3075 -0.2922
29775W        W46623  16.338   4.642  11.930  0.1217  0.0460  0.0916
29776W        W46624   9.008  11.828  16.345  0.1139  0.0549 -0.2579
29777W        W46625   7.076  16.314  15.051  0.3648 -0.1245  0.0015
29778W        W46626  15.982  17.639  13.175  0.0088  0.1393  0.3660
29779W        W46627   8.636   8.332   3.268 -0.4652  0.0307 -0.1564
29780W        W46628  17.177   0.831  14.652 -0.2537  0.0009 -0.1167
29781W        W46629  12.867  14.391   2.548 -0.1192 -0.0963  0.0952
29782W        W46630  15.580   5.045   1.477  0.1357 -0.1150 -0.2099
29783W        W46631  17.021   3.516   6.180 -0.0314  0.2302 -0.1216
29784W        W46632   3.603  13.904  14.699 -0.0121  0.2241  0.3636
29785W        W46633  12.285  17.852  13.356  0.0821  0.2183  0.1529
29786W        W46634   4.201   2.187   1.385  0.0173 -0.0246 -0.2619
29787W        W46635   7.963  10.407  15.394  0.2410  0.0181  0.1667
29788W        W46636  11.573   1.415  14.985 -0.1108 -0.1963 -0.0349
29789W        W46637  14.511   8.524  11.674 -0.5434  0.0690  0.0233
29790W        W46638  11.840   7.962  11.385 -0.0432  0.1464 -0.1433
29791W        W46639  14.693  10.313  16.063  0.1246 -0.0737 -0.0502
29792W        W46640   3.387   0.602  14.245 -0.0425  0.1808 -0.1265
29793W        W46641   7.554   6.144  12.479  0.2519 -0.0687  0.1119
29794W        W46642  12.184  10.197  13.912 -0.0267  0.1660  0.0863
29795W        W46643  11.598  10.197  15.422  0.0826  0.2491 -0.4129
29796W        W46644   3.390  13.378   4.936  0.0628 -0.1278 -0.1086
29797W        W46645  10.637   7.044  10.779  0.0078 -0.2428  0.0019
29798W        W46646  17.420  16.957   2.471  0.1257  0.0688  0.2696
29799W        W46647  14.058  14.041  16.201 -0.0774  0.1074  0.0545
29800W        W46648   2.227   6.708   6.091 -0.1625 -0.0133 -0.2082
29801W        W46649  15.447  15.296  11.927  0.0613  0.0796 -0.1168
29802W        W46650  15.614   5.027  12.748 -0.1291  0.1163 -0.1595
29803W        W46651   2.248   6.959   5.044  0.0387  0.1708 -0.0139
29804W        W46652  15.938   9.910  15.218 -0.2757  0.3710 -0.1767
29805W        W46653   0.640   3.255  14.026  0.0832 -0.1756  0.0512
29806W        W46654  11.695   6.065  15.087 -0.3252 -0.0253 -0.0737
29807W        W46655  10.886   2.175   3.141 -0.3474  0.0340 -0.0110
29808W        W46656  16.704  16.016   5.748  0.2271  0.0255  0.0801
29809W        W46657   9.742   7.658  15.666  0.2213  0.0316 -0.0988
29810W        W46658  13.434   1.148   1.968  0.0940  0.0768  0.0782
29811W        W46659  11.356   9.343   4.794  0.0432 -0.2405  0.3341
29812W        W46660   8.319  10.578  11.028 -0.2585 -0.0194 -0.1823
29813W        W46661   3.804  10.069  11.176 -0.1210  0.0127  0.2348
29814W        W46662   1.603   9.278  14.983  0.2539  0.2286 -0.0874
29815W        W46663  10.129   2.590  13.922 -0.0513  0.0292  0.3615
29816W        W46664   4.524  15.578  11.854 -0.0374  0.0285  0.2067
29817W        W46665   4.434  11.712   0.764 -0.1065  0.3125  0.1395
29818W        W46666  13.086   3.506   4.410 -0.0750  0.0347 -0.2864
29819W        W46667   4.017   1.328  12.249  0.2302  0.0086  0.2309
29820W        W46668  14.690  15.369   4.963 -0.5663 -0.1028  0.3714
29821W        W46669  16.080   2.800   0.059 -0.0251  0.1311  0.5021
29822W        W46670   7.177   2.852  15.127 -0.0497  0.2688 -0.0121
29823W        W46671  13.514   5.691   4.770  0.1570 -0.0029 -0.0047
29824W        W46672  15.764   8.969  13.703 -0.0948  0.2046  0.2281
29825W        W46673   1.404  13.245  15.189  0.3155 -0.1458 -0.0299
29826W        W46674   6.446   7.725  11.866  0.0107  0.1038  0.1569
29827W        W46675  16.295   9.480  11.965  0.2034 -0.1706  0.0009
29828W        W46676  16.396  14.305  14.707  0.1584 -0.3166  0.2616
29829W        W46677  13.143  17.626   1.797  0.1472  0.1933 -0.0386
29830W        W46678  13.289   5.380  12.738 -0.1834  0.3278 -0.0312
29831W        W46679  13.885   3.128   4.587 -0.1405 -0.2183 -0.1132
29832W        W46680   1.747  17.171  13.620  0.3296  0.0224  0.0563
29833W        W46681   2.504  10.615  10.527  0.0109 -0.0245  0.4699
29834W        W46682  13.395  16.291  14.607  0.0127 -0.2555  0.0131
29835W        W46683  14.226   4.462  11.963  0.1913  0.4285  0.2294
29836W        W46684  14.872   1.467   0.701  0.0883 -0.1106  0.1030
29837W        W46685  10.385   9.311   5.140  0.3069  0.1487 -0.0575
29838W        W46686  17.111   3.114   3.454  0.1082 -0.3155 -0.3218
29839W        W46687   3.601   9.809   6.201 -0.0467  0.0212 -0.0752
29840W        W46688   0.939  11.339   1.790  0.1469  0.0924 -0.0649
29841W        W46689  14.532   4.109  15.801  0.0434 -0.2338 -0.1047
29842W        W46690   4.164   3.736  13.080  0.1924  0.0597 -0.0781
29843W        W46691  15.725  16.560  13.549 -0.0637 -0.1414  0.1227
29844W        W46692  11.471   6.778   5.378 -0.1789  0.1936  0.1054
29845W        W46693   0.841   3.950   1.582 -0.2142 -0.0098  0.0556
29846W        W46694   6.639  14.869   2.269  0.1324  0.0696 -0.0446
29847W        W46695   2.958  11.870  13.187 -0.2245 -0.0781 -0.2286
29848W        W46696   5.815   4.377   0.285  0.0145  0.2958 -0.2394
29849W        W46697  10.842  13.088   3.664  0.0119 -0.0667 -0.1443
29850W        W46698  11.946  12.303   0.001  0.3656  0.1346 -0.0847
29851W        W46699   9.968  16.077  12.897 -0.1287 -0.0755  0.0241
29852W        W46700   2.577   7.732   1.269  0.2518 -0.0712 -0.3173
29853W        W46701  17.645  12.230   3.076 -0.1884  0.2919  0.1417
29854W        W46702  12.196   5.772  12.210  0.0492 -0.0416 -0.1696
29855W        W46703   7.213   7.703  11.737 -0.1501 -0.0121  0.1399
29856W        W46704   7.374   3.133  16.321 -0.1692 -0.2948  0.0737
29857W        W46705   9.345  10.231  13.199 -0.4380  0.1927 -0.0216
29858W        W46706   7.617  16.090   3.540 -0.1758  0.0897  0.0568
29859W        W46707  12.023   2.533  11.115  0.2746  0.1636  0.1336
29860W        W46708  17.671  11.101  12.249  0.2093 -0.2160  0.0365
29861W        W46709   2.733  10.730  15.966 -0.2013 -0.2857 -0.0856
29862W        W46710   0.933   5.877   1.577 -0.1378 -0.0714  0.3095
29863W        W46711  15.893  12.107   5.619 -0.1556 -0.1862 -0.1424
29864W        W46712  12.353   0.218   3.697  0.3264 -0.0387 -0.0023
29865W        W46713  15.361   4.911   3.750  0.0196  0.2093 -0.1639
29866W        W46714   3.147   9.593  15.120  0.0931  0.2209  0.0462
29867W        W46715   0.451  15.648  14.855  0.2623 -0.0413  0.0172
29868W        W46716   6.339  13.978  13.855  0.0070 -0.0019  0.2958
29869W        W46717  15.843  15.616  11.929  0.0790 -0.1026 -0.0889
29870W        W46718  14.521   8.127  12.313  0.3864 -0.1778 -0.0072
29871W        W46719   9.939  15.450   3.222  0.1433 -0.2048  0.0108
29872W        W46720   0.657  10.028   0.047  0.1010 -0.1399 -0.1781
29873W        W46721  17.202   3.162  15.679  0.0426  0.2052  0.0594
29874W        W46722  10.309  15.935   3.152 -0.1433  0.3008 -0.0354
29875W        W46723   5.628  12.840  14.203 -0.1928  0.0739 -0.3315
29876W        W46724  10.235   0.757  12.132 -0.2808 -0.0543 -0.1758
29877W        W46725   0.370  16.523  12.663  0.0522 -0.0422  0.1041
29878W        W46726  15.458  15.310  14.686 -0.1519  0.0086  0.2123
29879W        W46727  17.435  14.903  14.776  0.2203  0.0816  0.0733
29880W        W46728   3.411  11.879   6.137 -0.4481 -0.0362  0.1179
29881W        W46729  12.492  13.148   4.712 -0.2569  0.1218  0.0033
29882W        W46730   5.635   1.780   0.531  0.0208 -0.0601  0.0186
29883W        W46731   9.717   7.239   1.587 -0.4371  0.0285  0.1444
29884W        W46732  14.296   0.225  15.229 -0.0584 -0.3280 -0.1070
29885W        W46733  11.654   6.913  11.356 -0.0101 -0.3253  0.0324
29886W        W46734   8.333   5.238  10.546  0.0864  0.2011 -0.2453
29887W        W46735   9.935  16.853  16.479  0.1460 -0.4456 -0.1184
29888W        W46736  12.679   4.661   1.275 -0.1675 -0.1173  0.0479
29889W        W46737   1.385  14.240  13.272 -0.2018 -0.1967 -0.0281
29890W        W46738  17.231   9.625  11.736  0.1549  0.1191  0.1731
29891W        W46739   2.069   5.135  13.857  0.3791 -0.1652 -0.1170
29892W        W46740   2.223  15.917  10.870 -0.0249  0.0864 -0.2267
29893W        W46741  10.712  12.195  14.149 -0.1123 -0.1853  0.2361
29894W        W46742   5.087  10.685   2.159 -0.0677 -0.2361  0.0406
29895W        W46743   9.420  15.747  14.661 -0.0812 -0.1778  0.0289
29896W        W46744  12.551   0.358   3.248 -0.4815 -0.0350 -0.0463
29897W        W46745   3.826   6.329   1.427  0.1615 -0.2096 -0.0932
29898W        W46746   2.959   4.682   2.756 -0.0253  0.0893 -0.1580
29899W        W46747  13.936   6.755  15.467  0.0280 -0.0979  0.0890
29900W        W46748  10.062  12.043   3.921  0.2978  0.1254  0.2156
29901W        W46749  17.721  14.609   0.934  0.1722 -0.1323  0.1877
29902W        W46750   7.608  10.924   4.949  0.1445  0.1178  0.0940
29903W        W46751   5.570  13.765  11.836 -0.1434 -0.1008 -0.1453
29904W        W46752  17.623   1.106  13.847  0.0005 -0.2464 -0.0511
29905W        W46753  12.321  15.784   0.509 -0.0065  0.1831  0.0874
29906W        W46754  15.825  12.826  13.788 -0.0477  0.0627  0.2466
29907W        W46755   9.980  17.676   0.723  0.3072  0.2628  0.0620
29908W        W46756  11.986   5.458  16.249 -0.1007  0.2131  0.1487
29909W        W46757   1.417   4.017  16.387  0.4705  0.0055 -0.0338
29910W        W46758   8.984   7.402  16.578  0.0630 -0.0648 -0.0602
29911W        W46759  16.319  15.199   3.575  0.1393  0.2379 -0.0230
29912W        W46760  12.467   7.645  12.049  0.0762 -0.0782 -0.0833
29913W        W46761  11.776  10.060   3.631  0.1316 -0.1553  0.1571
29914W        W46762   3.264  16.674   4.194 -0.0179 -0.0611 -0.0124
29915W        W46763   4.631  16.079   2.502 -0.1009 -0.1829  0.2302
29916W        W46764  17.590   1.795   4.818 -0.2454 -0.2549  0.3046
29917W        W46765   0.490   0.698   2.769  0.0725  0.0470  0.0365
29918W        W46766  16.423   5.978  16.051  0.0334  0.0940  0.1849
29919W        W46767   3.891   6.311  12.655 -0.1936 -0.4608 -0.1863
29920W        W46768   4.159   8.246   1.768 -0.0222 -0.1460  0.1142
29921W        W46769  17.561   4.108   2.705 -0.0731 -0.0479 -0.0744
29922W        W46770  11.574   4.551  14.235 -0.2517 -0.1320  0.1308
29923W        W46771  13.210   9.688  11.637 -0.3170 -0.0546  0.0277
29924W        W46772   9.669  17.393  12.082  0.1010  0.2612  0.0668
29925W        W46773   0.979   1.698  14.328 -0.0497 -0.4075 -0.0776
29926W        W46774  16.904   7.784  15.666  0.1374 -0.2365  0.2442
29927W        W46775  17.227   8.066   4.222  0.1794  0.2398 -0.3211
29928W        W46776   5.984   0.454   2.242 -0.0119 -0.0815  0.0278
29929W        W46777   2.614  14.560  13.937  0.0525  0.4228 -0.0410
29930W        W46778   5.678  11.737  11.618 -0.1434 -0.2010 -0.2076
29931W        W46779  16.364  14.024  14.244 -0.2235  0.1060  0.1702
29932W        W46780   7.315  16.319   4.513 -0.1576 -0.2984  0.1348
29933W        W46781  17.222  15.150  11.976  0.0347  0.0261  0.0602
29934W        W46782  15.316  16.634   3.021 -0.0515  0.4360  0.0635
29935W        W46783   8.013  16.999   1.571 -0.1160  0.2319 -0.3171
29936W        W46784   5.494  12.229   0.270  0.1467  0.0285  0.1381
29937W        W46785   9.318   4.942   6.029 -0.0803  0.0006  0.0552
29938W        W46786  13.068  12.359  15.057  0.0848  0.1330  0.3021
29939W        W46787   3.213   6.588  14.701 -0.0176  0.1575 -0.0817
29940W        W46788  15.497  12.408  16.062  0.3434 -0.0709 -0.2197
29941W        W46789  13.028  15.164   3.624  0.2728 -0.0368 -0.1880
29942W        W46790   6.796  16.655  12.681 -0.0659  0.0719  0.0183
29943W        W46791  16.639   9.835  13.343 -0.3570  0.2529  0.0326
29944W        W46792  10.218  13.172  15.783  0.0355 -0.4461 -0.3380
29945W        W46793  14.056   5.538  12.873 -0.0230 -0.1411 -0.0032
29946W        W46794   8.827   1.329  16.340  0.0286  0.3789  0.1771
29947W        W46795   2.052   9.129  15.205 -0.2027  0.4681  0.0546
29948W        W46796   1.387  16.065   0.937 -0.0756 -0.2821 -0.1055
29949W        W46797   4.694   8.329   0.881 -0.0156 -0.2088  0.3861
29950W        W46798   8.022  13.898   3.949  0.3728  0.4319 -0.1730
29951W        W46799   0.658   6.560  16.334  0.1200 -0.1210  0.3224
29952W        W46800  11.068  11.107   2.971  0.2327  0.0986  0.2840
29953W        W46801   4.519  16.788  13.004 -0.3606  0.1720 -0.0923
29954W        W46802   7.116   9.963  13.406  0.2102  0.0241  0.1490
29955W        W46803   0.985  10.631   4.042 -0.0754 -0.2008  0.3203
29956W        W46804   6.336   5.567   2.112 -0.2659 -0.0566  0.1868
29957W        W46805   6.095   0.016   2.444 -0.2145 -0.2273  0.0376
29958W        W46806  17.211   3.141  13.722  0.0073 -0.1438  0.3223
29959W        W46807   1.245   9.675  15.802 -0.2116  0.3263  0.2408
29960W        W46808   0.682   0.070   4.080 -0.1174  0.1225  0.2682
29961W        W46809   7.525   4.806   3.868  0.0972  0.3388  0.2156
29962W        W46810   6.076  14.261  13.053  0.2341  0.0218  0.2645
29963W        W46811  16.024   0.208   3.205  0.0792  0.1963  0.2939
29964W        W46812  15.577   4.681   2.889 -0.0075 -0.0099  0.1798
29965W        W46813  13.466  12.492  13.706  0.1065 -0.0647  0.0430
29966W        W46814  13.799  13.088  14.879 -0.1842  0.0795  0.3764
29967W        W46815   5.479  16.659  12.860  0.0683 -0.3631  0.0485
29968W        W46816   3.972   8.460   5.020 -0.1370  0.3126 -0.3025
29969W        W46817   0.687  16.079   3.780 -0.0220  0.0773  0.1988
29970W        W46818  13.081  15.445  15.874  0.0916 -0.2888  0.2755
29971W        W46819   9.564  10.251  12.558  0.1810 -0.0596  0.4129
29972W        W46820   0.054  16.605  13.331  0.2632 -0.2378  0.0416
29973W        W46821  11.280  17.748   1.243 -0.0976  0.0274  0.0626
29974W        W46822   1.601  15.971  11.863 -0.2832 -0.1212 -0.0101
29975W        W46823  10.635   5.700  14.400 -0.3353 -0.2633  0.1653
29976W        W46824   7.226   6.716  11.864  0.1811  0.1515  0.1059
29977W        W46825  11.807  13.971   3.022  0.0494  0.1954  0.1627
29978W        W46826  16.013   1.304   0.993 -0.2260  0.0309 -0.0570
29979W        W46827  15.139   6.282   3.442 -0.5257  0.0866 -0.2742
29980W        W46828   0.404   1.328   6.514 -0.1618  0.1376  0.0838
29981W        W46829   6.380   7.702   4.421  0.4241 -0.1097 -0.1904
29982W        W46830  15.321   3.347   1.194 -0.0065 -0.0190 -0.0619
29983W        W46831  11.801  15.968  12.182 -0.2575  0.3236  0.0248
29984W        W46832  11.126   5.556  15.667 -0.1045  0.2757 -0.2593
29985W        W46833   6.253  15.257  15.303  0.0153  0.3061 -0.1736
29986W        W46834   6.797  12.287  14.884 -0.1175  0.4026 -0.1206
29987W        W46835  14.358   8.597  12.641  0.4839  0.0771 -0.4383
29988W        W46836  16.608   6.472   2.169  0.0326  0.1837  0.1627
29989W        W46837   6.491   2.747   1.884 -0.2715 -0.1473 -0.2617
29990W        W46838   5.802  10.612  12.297 -0.0571 -0.2475 -0.0514
29991W        W46839   5.077  13.275  16.570 -0.0829  0.2368 -0.2558
29992W        W46840  17.311  13.856   3.449  0.3175  0.1682 -0.2843
29993W        W46841  11.245   2.416  12.943  0.0629 -0.2216 -0.1154
29994W        W46842   9.162   1.687   3.577 -0.0715 -0.1181 -0.0825
29995W        W46843   9.312  15.002   0.095 -0.2385 -0.2564 -0.0816
29996W        W46844   3.123   1.532   2.900  0.0342  0.1952 -0.2014
29997W        W46845   9.719   4.321  15.637  0.2939 -0.1783  0.3718
29998W        W46846   1.298  12.090   2.965 -0.1444 -0.1605  0.2854
29999W        W46847   0.484   9.073   1.149 -0.0280  0.0802 -0.2320
30000W        W46848   6.876  12.682   1.350  0.0816  0.3047 -0.1581
30001W        W46849   4.838  10.044   1.374 -0.4115 -0.0149  0.1490
30002W        W46850   4.836  12.467   4.278 -0.3063  0.0953  0.2816
30003W        W46851  14.376   9.441   0.751 -0.3736  0.2668 -0.1016
30004W        W46852   2.519  13.578  13.230 -0.1199  0.2359  0.1316
30005W        W46853  10.408   7.161  14.934 -0.2148 -0.0433 -0.0294
30006W        W46854   7.147   0.442   0.675 -0.0612  0.0389 -0.0606
30007W        W46855   8.475  15.263   3.847  0.2444 -0.1545 -0.0318
30008W        W46856   5.709   8.234   5.160 -0.1606 -0.0104  0.0336
30009W        W46857  15.995   1.740   2.840 -0.0073  0.0250 -0.2178
30010W        W46858  10.250   5.180  14.063  0.4759  0.3718  0.0249
30011W        W46859  13.040  11.496   2.467 -0.1011  0.0705 -0.2496
30012W        W46860  16.878  16.832   3.444 -0.5357 -0.3187  0.2981
30013W        W46861   6.974  14.477  12.034 -0.3529  0.0085  0.2358
30014W        W46862  11.147  11.925   1.642 -0.0792 -0.2640 -0.3651
30015W        W46863  13.885  13.696   1.450 -0.1829 -0.1149  0.0956
30016W        W46864   0.282  11.575  12.306 -0.1671  0.1840 -0.2666
30017W        W46865  10.724   1.150  16.142 -0.2863  0.2439 -0.2309
30018W        W46866   0.041   7.669  11.068 -0.1958 -0.0020  0.2010
30019W        W46867   0.391   4.446  12.408  0.0380 -0.2698 -0.4251
30020W        W46868   7.398   8.551  12.334  0.2280 -0.2088 -0.3015
30021W        W46869  10.464  13.041  15.303 -0.0844  0.0676  0.0362
30022W        W46870  13.163  15.976  15.803  0.3479  0.0084  0.1385
30023W        W46871  13.414  11.243  11.692  0.0205 -0.1543 -0.0662
30024W        W46872  11.065   6.484  12.546  0.5012  0.0017 -0.1818
30025W        W46873   3.265  12.156  16.470  0.2992 -0.1640 -0.0352
30026W        W46874  17.475  16.963  11.979  0.1455  0.2151 -0.1261
30027W        W46875  12.237   0.142   1.115 -0.2736  0.0580 -0.1590
30028W        W46876   9.862  16.330   0.958  0.1430  0.0219  0.0028
30029W        W46877  15.425   9.313   4.202  0.0297  0.2541  0.1186
30030W        W46878  10.020   7.260   4.550 -0.1170 -0.0464 -0.3285
30031W        W46879  13.347   5.192  15.936 -0.0694  0.0161 -0.2998
30032W        W46880   0.310   3.494   2.018 -0.3060 -0.1759 -0.0098
30033W        W46881   4.528   7.522  14.258 -0.0962 -0.0381 -0.1958
30034W        W46882  16.417   0.617   6.202 -0.0879 -0.5401 -0.1635
30035W        W46883   6.613  14.206   3.842  0.2363 -0.0417  0.1131
30036W        W46884  14.223  16.026  12.494  0.1913  0.1331  0.3204
30037W        W46885  13.847   3.938   1.016 -0.0612 -0.0341 -0.1561
30038W        W46886   0.001  17.686   5.469 -0.4351 -0.0436  0.1363
30039W        W46887   5.071   3.967   2.024  0.1022 -0.0773  0.3606
30040W        W46888  12.209   7.138   0.813  0.3582 -0.1794 -0.0073
30041W        W46889  14.609   8.173  12.767  0.1017  0.1155 -0.5168
30042W        W46890   0.316   4.727  16.211  0.2028 -0.0883 -0.0187
30043W        W46891  13.251  13.399  14.151  0.0838  0.0263  0.3449
30044W        W46892   6.927   9.034  10.472 -0.2361  0.0429  0.1840
30045W        W46893  15.172  10.058   1.563 -0.1644 -0.1078 -0.0308
30046W        W46894   3.619   5.540   2.934  0.3573 -0.0263 -0.0017
30047W        W46895   3.480   2.580   3.601 -0.1035  0.0783 -0.0147
30048W        W46896  14.925  16.064  12.752 -0.5058 -0.1140 -0.1289
30049W        W46897  12.937   9.777   5.539 -0.0677 -0.3126 -0.0697
30050W        W46898  13.687  14.945  11.777 -0.0947 -0.0284 -0.0709
30051W        W46899   0.883  10.789   3.437  0.1214 -0.0274 -0.0406
30052W        W46900   0.019  15.242   4.533  0.3232  0.3496  0.0409
30053W        W46901  15.059  10.487   1.344  0.2668 -0.0755 -0.2593
30054W        W46902   9.742   7.838  14.991  0.2282 -0.1741 -0.0548
30055W        W46903   8.692   4.017   1.757  0.2482  0.1655  0.0593
30056W        W46904  14.974   9.212   4.364 -0.1013 -0.3155 -0.0172
30057W        W46905  11.738   4.752  14.708 -0.1038 -0.3046 -0.1138
30058W        W46906  13.730  16.781   3.601 -0.1196  0.1298 -0.0594
30059W        W46907   6.310   5.023  10.328 -0.1755 -0.1896  0.1447
30060W        W46908  13.267   5.620  15.212 -0.1849  0.2278 -0.2996
30061W        W46909  10.136   4.868   2.349 -0.0537  0.0979  0.0417
30062W        W46910  17.642  14.968   5.061  0.2587  0.0415  0.3730
30063W        W46911  10.384   8.493   1.433  0.1532  0.1519 -0.1080
30064W        W46912  11.621  17.565   2.572  0.0569 -0.3668 -0.0184
30065W        W46913  14.806   9.178   0.886  0.1843 -0.1669  0.0344
30066W        W46914  14.615   3.490  11.684  0.1659 -0.0182 -0.0832
30067W        W46915  11.061   3.407  15.829 -0.1895  0.1377  0.3581
30068W        W46916   4.461   5.852  16.433  0.1489  0.1502 -0.0172
30069W        W46917  10.957   5.293  12.301 -0.2489 -0.2064 -0.2406
30070W        W46918   2.870   3.820  14.212  0.2971 -0.0461 -0.1057
30071W        W46919  16.900   4.440   2.915  0.3830  0.1534  0.0542
30072W        W46920  12.857   5.127   5.117  0.1737  0.0968 -0.1344
30073W        W46921  16.955  15.825  11.236 -0.0486 -0.1811 -0.3280
30074W        W46922   7.189   3.811   3.691 -0.0505 -0.0814  0.1578
30075W        W46923   7.700  15.753   3.128  0.2019 -0.1177 -0.1566
30076W        W46924  11.926  11.458   3.379  0.1407 -0.0020 -0.0629
30077W        W46925   8.926   8.621   0.923  0.2939 -0.0477 -0.0406
30078W        W46926   9.795   3.948   0.419 -0.0784  0.0872 -0.0990
30079W        W46927  16.964  12.108  10.572 -0.0665  0.2789  0.0558
30080W        W46928  12.373  10.914   2.283  0.1600  0.0455  0.0520
30081W        W46929  14.555   3.588   2.221  0.1028 -0.0198  0.2179
30082W        W46930   5.693  12.398  14.569  0.0910 -0.1990 -0.1235
30083W        W46931   5.818   4.898  13.083 -0.1677  0.1016 -0.0224
30084W        W46932  13.364  15.249  13.894 -0.2382 -0.0984  0.0044
30085W        W46933   2.092   4.313   1.391  0.0313 -0.0191 -0.1230
30086W        W46934   6.215   3.082   2.265 -0.0894 -0.0271 -0.1658
30087W        W46935   4.516   1.677  15.390 -0.1954 -0.0433 -0.1193
30088W        W46936   4.885   8.381   0.415 -0.0876  0.3394  0.2971
30089W        W46937  15.284  13.858   5.293 -0.1735  0.0946 -0.0261
30090W        W46938   6.663  17.519  15.776 -0.0612 -0.1039  0.0643
30091W        W46939   7.840  16.890   3.909 -0.1721  0.3349  0.0130
30092W        W46940   0.787   0.694  12.823 -0.4704  0.2573 -0.0118
30093W        W46941  11.516  11.705   0.788  0.2321 -0.1085 -0.2172
30094W        W46942   2.637   8.659   0.466  0.1709  0.2753 -0.1391
30095W        W46943  16.681   4.789  12.920 -0.2034  0.0038 -0.3728
30096W        W46944   2.349   3.255   4.064 -0.0047 -0.0041 -0.1231
30097W        W46945  10.980   5.506  13.601  0.2329  0.0464 -0.0553
30098W        W46946   6.113   3.936   4.219  0.2559 -0.1348  0.3646
30099W        W46947   0.555   8.269  11.434  0.1054 -0.1052  0.0988
30100W        W46948  10.518   4.355   1.870 -0.1377  0.1470 -0.1413
30101W        W46949  11.009   4.080   4.150  0.1828  0.0830  0.2748
30102W        W46950   6.867  10.456   3.788 -0.1704 -0.1169  0.1117
30103W        W46951  15.706   7.845  16.559 -0.0867  0.1423  0.0149
30104W        W46952  17.740  10.725  12.881 -0.2187 -0.1554 -0.0446
30105W        W46953  13.509  12.035   0.378 -0.2250  0.2399 -0.0131
30106W        W46954  16.930  17.291  16.057  0.1937 -0.1332  0.3271
30107W        W46955   3.535   0.496   4.680  0.0565 -0.3185 -0.0622
30108W        W46956  10.050  11.159   3.891  0.0214  0.0837  0.3114
30109W        W46957   3.630  14.800   1.528  0.2658  0.0283  0.0419
30110W        W46958   1.776   0.794   0.887  0.0264 -0.2071 -0.2567
30111W        W46959  11.428   0.405   0.555  0.2359 -0.1884  0.1398
30112W        W46960   8.105   6.250   1.146  0.0505 -0.1580 -0.0023
30113W        W46961   2.780   9.132   3.932 -0.0512 -0.1481  0.3057
30114W        W46962  16.684  12.779  15.392 -0.0083  0.0132  0.2016
30115W        W46963  10.098   7.581  10.701 -0.0772 -0.1525  0.2204
30116W        W46964   6.562   4.513   4.788 -0.2600 -0.1715 -0.0552
30117W        W46965  16.375  10.608  15.286  0.3711 -0.0696  0.3410
30118W        W46966  17.728  15.610   0.652 -0.0481 -0.2166 -0.5605
30119W        W46967   2.694  14.046  12.936 -0.0831 -0.0730  0.1138
30120W        W46968   9.572   6.981  12.691  0.1136  0.0357 -0.0572
30121W        W46969   0.885  17.467   1.580  0.2080  0.2452  0.2388
30122W        W46970  12.003  10.085   1.040  0.0093  0.1859  0.3350
30123W        W46971  12.098   1.161   1.141  0.0382  0.1265  0.1748
30124W        W46972   4.342   6.599  15.521 -0.2724 -0.0150  0.2106
30125W        W46973   9.129   5.088  12.007  0.1378  0.1125 -0.3868
30126W        W46974  15.638  14.325  14.004 -0.2688 -0.1255 -0.2365
30127W        W46975   7.422   6.023   1.742 -0.1277 -0.2746  0.2830
30128W        W46976  17.488  17.349   0.825  0.0736  0.0365 -0.0225
30129W        W46977  11.995   1.467   5.408 -0.2484 -0.0750 -0.2384
30130W        W46978  16.721   2.787  12.030  0.2907 -0.1384  0.0685
30131W        W46979   2.856   3.435  16.306  0.1621  0.0978  0.1214
30132W        W46980  11.617  14.826  15.098 -0.3188  0.3458  0.2004
30133W        W46981  12.218   4.363   4.763 -0.0283 -0.0879 -0.0437
30134W        W46982   0.003  16.154  15.649  0.1191  0.2164 -0.2445
30135W        W46983  16.363  10.045  14.198  0.0683  0.1091  0.1956
30136W        W46984   5.294   7.254   6.063  0.0930 -0.1927  0.0021
30137W        W46985  16.717   7.432  15.407 -0.1709  0.2333 -0.1330
30138W        W46986  16.473   0.041   3.036 -0.0765 -0.3680 -0.0785
30139W        W46987   8.490   2.549   3.718 -0.1924  0.1307 -0.0610
30140W        W46988  17.673  12.307   1.208 -0.0856  0.0469  0.0228
30141W        W46989   8.968  13.495   0.774  0.0399 -0.1013  0.1806
30142W        W46990   2.077   0.580   5.157  0.2567 -0.1037 -0.0515
30143W        W46991   6.369   8.531   2.851 -0.0299 -0.2222 -0.2082
30144W        W46992  12.794   7.574   3.423  0.0806  0.0944  0.0460
30145W        W46993  17.264  16.054  13.982  0.0603 -0.0075 -0.3581
30146W        W46994   9.368  14.461  14.971  0.3196 -0.0090  0.0273
30147W        W46995   0.514  14.443  16.620 -0.0673 -0.2457 -0.1733
30148W        W46996   1.719  16.859  16.278  0.0134 -0.0354 -0.3101
30149W        W46997  14.751   3.820  14.849 -0.0133 -0.1349  0.0085
30150W        W46998  14.184   5.243  12.488 -0.1580  0.2884 -0.3379
30151W        W46999  10.005   9.761  11.998 -0.1986  0.0737 -0.0233
30152W        W47000  14.280   7.275  15.813 -0.2005  0.0730  0.2357
30153W        W47001  15.700  16.833  11.122 -0.2712  0.0240 -0.3589
30154W        W47002   0.410  11.797  12.823  0.1048  0.0997  0.3890
30155W        W47003   3.577  17.626   2.059 -0.1740 -0.0251  0.0517
30156W        W47004  17.086   4.015   3.803 -0.0213  0.3435  0.2519
30157W        W47005  11.804   8.347   2.805  0.0387  0.0440 -0.0479
30158W        W47006   2.870  12.447  11.381  0.1213 -0.0958 -0.0960
30159W        W47007   7.112   4.675   3.086  0.0059 -0.2132 -0.1104
30160W        W47008  10.629  10.465   0.784 -0.0649 -0.2356 -0.0421
30161W        W47009  13.470   5.277   2.201  0.0992  0.0500  0.0392
30162W        W47010   9.436   0.533  16.616  0.0255 -0.1856 -0.0239
30163W        W47011   2.577  16.279   1.649  0.1385 -0.3763  0.2715
30164W        W47012   0.120  13.810  12.914  0.3042 -0.2016 -0.3520
30165W        W47013  13.428  12.872   0.776 -0.2739  0.1332 -0.1125
30166W        W47014  12.525   7.059  16.455  0.3209 -0.3310 -0.2490
30167W        W47015  12.806  12.445   1.108 -0.2117 -0.0093 -0.1849
30168W        W47016  16.319   7.741   5.109 -0.0099 -0.0990  0.2373
30169W        W47017  13.989  11.402   2.042 -0.2722  0.4466  0.2512
30170W        W47018   8.572   1.729  16.155 -0.1712  0.1238  0.1601
30171W        W47019  10.263   8.487  12.818 -0.0651 -0.1624  0.1981
30172W        W47020  15.359  12.397  15.606  0.0604 -0.1299  0.2322
30173W        W47021   2.190  16.360   1.969 -0.3063  0.0239  0.2115
30174W        W47022  16.297  15.176  16.338 -0.0794 -0.0955  0.2586
30175W        W47023  17.768   2.793   6.072  0.1978 -0.4056 -0.0706
30176W        W47024   5.175  10.195  11.168 -0.1699 -0.0624  0.0986
30177W        W47025  11.158  15.824   3.248 -0.1596  0.2138  0.2709
30178W        W47026   9.239   9.647  10.897  0.0038  0.1137  0.2979
30179W        W47027   2.278   8.226  11.376 -0.2091  0.4042 -0.3481
30180W        W47028   2.673   3.742  12.658 -0.1016 -0.0227 -0.2692
30181W        W47029   2.316   0.864  13.568 -0.0558  0.4974 -0.4403
30182W        W47030  10.584   9.915  13.406  0.0509 -0.0020  0.3144
30183W        W47031   7.285  13.035   5.057 -0.1281 -0.0201  0.2735
30184W        W47032   3.462  16.623   5.090 -0.0548 -0.1738  0.4146
30185W        W47033   8.936  14.210  12.974 -0.3078  0.2066 -0.1512
30186W        W47034   1.731  10.089  13.473  0.0361 -0.0805  0.0157
30187W        W47035  14.916   7.928  14.940  0.1401 -0.1381  0.0821
30188W        W47036   3.601   9.213  11.595 -0.0658 -0.0735  0.0232
30189W        W47037   4.843   3.583  14.218  0.3139 -0.1872 -0.3178
30190W        W47038  16.129   4.771   2.896  0.0758 -0.3209 -0.0975
30191W        W47039   2.089  14.964   4.520  0.0711  0.1170  0.3535
30192W        W47040   5.621  11.408  16.561  0.1356 -0.2148  0.3209
30193W        W47041  12.931  12.933  16.015  0.0650  0.0027 -0.0277
30194W        W47042   1.719  14.165  14.089  0.3006  0.0352 -0.1031
30195W        W47043  17.110   4.323   2.413  0.0607 -0.0756 -0.0990
30196W        W47044  12.094   2.314  13.335  0.1556 -0.1342  0.0852
30197W        W47045   2.947   5.446   9.972 -0.2638 -0.1702 -0.2100
30198W        W47046   4.122   1.818   5.296  0.0153  0.3880 -0.0126
30199W        W47047  13.499  13.755  12.400  0.1451  0.0683 -0.2703
30200W        W47048   2.087   4.431  15.717 -0.0854 -0.2264  0.1674
30201W        W47049  10.153  15.945   1.742 -0.0329 -0.1884  0.4702
30202W        W47050  14.862  11.522   0.267 -0.0855  0.2381  0.1915
30203W        W47051   7.707   2.989   3.241  0.1923  0.1813 -0.0639
30204W        W47052   9.869   4.186   4.470  0.0596 -0.1204 -0.1188
30205W        W47053   4.903  11.246  13.002  0.3045  0.2655 -0.1640
30206W        W47054  11.107  13.815   5.468  0.1077 -0.0628 -0.1225
30207W        W47055  14.094  14.422  12.724 -0.0156 -0.2192 -0.0109
30208W        W47056   4.787  10.965  15.901  0.1821  0.0580 -0.0182
30209W        W47057  11.617  12.794   0.793  0.2515 -0.1324 -0.0208
30210W        W47058   2.777  14.842  15.239  0.0471 -0.1532 -0.1880
30211W        W47059   3.020   7.500   3.567 -0.1033  0.4960 -0.0761
30212W        W47060   6.621  16.463   2.716  0.0061 -0.1783 -0.0503
30213W        W47061  14.809   0.510   5.857 -0.2579 -0.0974  0.1075
30214W        W47062   8.530  15.813   0.347 -0.4743 -0.0730 -0.0144
30215W        W47063  13.830   4.330  12.894 -0.0835 -0.2236 -0.0806
30216W        W47064   8.696   7.360  14.148 -0.0069  0.2634 -0.0098
30217W        W47065   7.028  12.133   2.458 -0.1721 -0.1770 -0.0025
30218W        W47066   0.293   5.671   0.668 -0.1502 -0.1124 -0.3544
30219W        W47067   4.271   7.488   2.426 -0.0241 -0.0520 -0.3575
30220W        W47068  16.326   4.754   0.407  0.0652  0.0748 -0.2763
30221W        W47069  17.164  16.327   5.869  0.1929 -0.2492 -0.1307
30222W        W47070  13.114  17.096   4.965 -0.3538 -0.0168  0.0751
30223W        W47071   7.832   4.057   0.239 -0.0552  0.0759  0.1410
30224W        W47072  16.959  14.714  15.820  0.0630 -0.1083 -0.0503
30225W        W47073   2.173   0.068  14.167  0.2365 -0.0926 -0.2108
30226W        W47074  12.076   0.535   3.426 -0.2353 -0.1520 -0.2214
30227W        W47075   5.232   6.137  15.668  0.0011 -0.1729  0.2880
30228W        W47076  13.957   7.082  15.113 -0.0466 -0.1781  0.2634
30229W        W47077   3.743   7.392  13.731 -0.2032 -0.1840  0.4729
30230W        W47078  17.081  12.146   5.123  0.0577 -0.4606  0.0443
30231W        W47079   6.616  15.493   0.561  0.0947  0.0213  0.1620
30232W        W47080  13.365   6.349   1.830 -0.0148 -0.0900 -0.0254
30233W        W47081   9.329  12.507  14.998  0.1178  0.0652  0.0063
30234W        W47082   7.070   3.041   2.563 -0.1230  0.3946 -0.1245
30235W        W47083   4.376  11.675  11.497 -0.1655 -0.0946  0.2840
30236W        W47084   0.531   7.566  16.423  0.0432 -0.2946 -0.2830
30237W        W47085   1.743   1.621  13.418 -0.3789  0.0012 -0.1755
30238W        W47086  10.415  15.446   3.416  0.3272 -0.0337  0.1422
30239W        W47087  13.407   6.283   3.306  0.2735 -0.1224  0.1407
30240W        W47088   3.008  17.556   0.440  0.2436  0.0307  0.2479
30241W        W47089  15.532  15.531  14.225  0.0599 -0.0116 -0.0785
30242W        W47090   2.407   2.983  12.546  0.1797 -0.1267  0.0088
30243W        W47091   2.571  11.014   5.926  0.1530  0.1637  0.1595
30244W        W47092   5.161   4.489  13.697 -0.3103  0.0029  0.2040
30245W        W47093  16.310  10.896  13.798 -0.1493  0.0552  0.1988
30246W        W47094  14.805  15.627   2.239  0.0569  0.1858 -0.0407
30247W        W47095   0.983   4.134   6.228  0.0256 -0.2722  0.0200
30248W        W47096   2.423   5.372  13.123 -0.1739 -0.0297  0.1682
30249W        W47097  10.603  12.888   2.730 -0.2499 -0.0820 -0.0137
30250W        W47098   6.484   9.882  15.634 -0.0444  0.0325 -0.4939
30251W        W47099   4.282   3.182   3.930 -0.1706 -0.0716 -0.3116
30252W        W47100   3.310  16.890  14.602 -0.0194 -0.2173 -0.1572
30253W        W47101  16.801   9.157   2.288  0.0422  0.1008  0.4601
30254W        W47102  12.103   6.945   2.458  0.1764 -0.2706  0.2342
30255W        W47103   1.282   7.259  13.907 -0.0636  0.0017 -0.2013
30256W        W47104   5.979   3.324   3.339 -0.0758 -0.2128 -0.0377
30257W        W47105   1.832  11.104   5.376 -0.2066 -0.0298  0.1679
30258W        W47106   6.361  14.404   5.375 -0.0481  0.2027 -0.3018
30259W        W47107  13.834   8.462   5.104 -0.5511  0.1028  0.1882
30260W        W47108  12.542   6.081  15.663 -0.0170  0.1124 -0.0454
30261W        W47109  15.859  17.159  11.792 -0.1107  0.1162 -0.3131
30262W        W47110  10.456   8.857  15.155  0.2431 -0.0072 -0.1749
30263W        W47111   1.624   7.413  13.490 -0.1547 -0.2804  0.0713
30264W        W47112   2.798   4.388  14.050 -0.0527  0.0080  0.1888
30265W        W47113   3.019   3.174  15.842 -0.1795 -0.1500  0.2077
30266W        W47114  15.657  12.324  14.864  0.0890 -0.2178  0.0363
30267W        W47115  10.833  15.439  13.123 -0.1627 -0.1638 -0.0482
30268W        W47116  13.502   6.762  11.752 -0.0111 -0.2072  0.2252
30269W        W47117   0.030   5.914   2.724  0.1439 -0.0665  0.0521
30270W        W47118   8.281  16.057  14.070 -0.2086  0.2940  0.4452
30271W        W47119  11.576  17.565   5.046  0.0898  0.0631  0.3157
30272W        W47120   7.523   8.625  11.251 -0.3842  0.1737  0.1767
30273W        W47121   6.274  13.284   5.730 -0.0351 -0.2619 -0.0353
30274W        W47122   0.645   0.679   0.463  0.0052 -0.0257  0.2819
30275W        W47123  12.123  15.094  11.307 -0.1749  0.0124 -0.2002
30276W        W47124   9.477   2.342   1.215 -0.0054  0.2575  0.1828
30277W        W47125   1.233  16.930  13.782  0.2914  0.0153 -0.3068
30278W        W47126  16.605  12.513  12.605  0.0299 -0.0401 -0.0839
30279W        W47127   6.299  11.430  12.999 -0.0272  0.0786 -0.1243
30280W        W47128   2.549  11.707  16.126  0.2628  0.3206  0.2116
30281W        W47129  14.834  16.503   1.736  0.1586  0.0054  0.0320
30282W        W47130  12.942  14.323  16.403 -0.1527  0.2148  0.0812
30283W        W47131   5.690  10.162   0.014  0.1123 -0.2380 -0.0791
30284W        W47132   6.034   7.717  13.871 -0.0845 -0.0411  0.1781
30285W        W47133   4.045   4.651  11.215 -0.3204  0.0782 -0.0656
30286W        W47134   4.686   8.243   2.777  0.0972  0.1921  0.0514
30287W        W47135   0.314   2.989  16.192 -0.1588 -0.0511  0.3606
30288W        W47136  10.130  10.162  13.915  0.1340 -0.1374  0.4421
30289W        W47137   2.682   3.510  13.645  0.3496 -0.2838  0.0695
30290W        W47138   3.278  15.800   4.009 -0.1927 -0.1429  0.0862
30291W        W47139   1.251   2.902  12.577 -0.0304 -0.2543 -0.1041
30292W        W47140   3.312   2.906  12.861  0.1291 -0.1298 -0.1684
30293W        W47141  13.856   3.517   2.332 -0.1466  0.2591  0.1546
30294W        W47142   0.324   2.702   4.098  0.1042 -0.0395 -0.1436
30295W        W47143  15.752   5.732   3.240 -0.0911  0.1344 -0.3439
30296W        W47144   7.308  13.895   2.744 -0.0476 -0.0490  0.0916
30297W        W47145  15.482  15.793  11.564  0.0359  0.2484  0.1824
30298W        W47146   6.159   4.178  12.669 -0.0071  0.0581  0.1765
30299W        W47147   1.861   6.642  13.184 -0.0397 -0.1020  0.3440
30300W        W47148  17.412   9.955   2.904 -0.2208  0.0401  0.0487
30301W        W47149  17.473   2.525   1.511  0.0994 -0.1010 -0.0109
30302W        W47150  15.116  10.534   4.623  0.1319  0.0744  0.1720
30303W        W47151  10.274  11.346  15.126 -0.0999 -0.0306 -0.1658
30304W        W47152   5.181   1.527  14.590 -0.1078  0.1827 -0.0032
30305W        W47153   9.876   1.796  14.668  0.0927 -0.0187 -0.3282
30306W        W47154   4.472   0.507  14.087  0.0409 -0.0268 -0.1483
30307W        W47155   7.744   1.919  15.682  0.2560 -0.2864 -0.1335
30308W        W47156  15.725   0.780  13.513 -0.3747  0.0741  0.1607
30309W        W47157   6.449  14.353  15.146 -0.1231 -0.2551 -0.1270
30310W        W47158  15.471  16.895  12.844  0.0306 -0.0643 -0.4235
30311W        W47159   9.944  16.162  15.839  0.0161 -0.2138 -0.0653
30312W        W47160  14.365  16.789  16.352 -0.3102 -0.1168  0.0253
30313W        W47161   7.736   1.447  13.125 -0.1156  0.1291 -0.2161
30314W        W47162   5.758   9.569   4.336 -0.0556  0.1907 -0.2158
30315W        W47163  11.246  12.921  11.108 -0.3566  0.2839 -0.0211
30316W        W47164   6.382   1.177   4.450  0.0885 -0.2094 -0.0005
30317W        W47165  11.857   2.810   4.239 -0.2681  0.1162 -0.0755
30318W        W47166   5.486  16.518   4.390  0.2215 -0.2079 -0.1898
30319W        W47167   9.163  16.595  16.581  0.0395  0.2547  0.4161
30320W        W47168   7.199  16.358   3.054 -0.1924  0.1099  0.1732
30321W        W47169   2.146  14.632   5.307 -0.1285  0.1232  0.3710
30322W        W47170   8.556  12.342  15.515 -0.0490  0.0790  0.1726
30323W        W47171   2.174   6.777   4.210 -0.0948  0.1335 -0.0031
30324W        W47172   7.745   5.655   5.814  0.0451 -0.2601  0.0056
30325W        W47173   7.253   5.268   1.761 -0.3768  0.1502 -0.1566
30326W        W47174  10.015   1.025  13.318  0.0302 -0.2045 -0.2600
30327W        W47175   6.827   0.100  12.090  0.0159 -0.1243  0.1447
30328W        W47176   4.728   7.893  11.690 -0.1644 -0.1334 -0.1843
30329W        W47177   0.181   8.646   2.113 -0.1364  0.0221  0.1419
30330W        W47178   4.725   2.021   0.466 -0.1339 -0.1670 -0.1725
30331W        W47179   0.726   5.262  13.953 -0.1720  0.0228  0.1711
30332W        W47180   5.879   8.394   3.580 -0.1191  0.1171 -0.0908
30333W        W47181   3.331   1.025   0.714 -0.0718  0.0749 -0.1463
30334W        W47182   4.026   1.165  12.806 -0.0283 -0.0782 -0.0686
30335W        W47183  11.981   8.324  12.484 -0.1195 -0.0598 -0.4638
30336W        W47184  16.296   4.378   1.737 -0.1195 -0.1505  0.0343
30337W        W47185   9.389   2.624  16.033 -0.0665  0.0276  0.1808
30338W        W47186  11.775  16.716   2.473 -0.3206 -0.0200  0.0994
30339W        W47187   4.662   2.129   1.027  0.1138  0.1041 -0.1016
30340W        W47188  16.217   5.514   2.842 -0.1220  0.2236 -0.1952
30341W        W47189  17.343  12.406  15.490 -0.0651  0.3674  0.0228
30342W        W47190  13.690  17.287   3.411 -0.0956  0.3286  0.0272
30343W        W47191  10.390   5.914   3.279 -0.1575  0.0338 -0.3555
30344W        W47192  12.703   3.134  15.223  0.0750  0.2100 -0.3199
30345W        W47193  16.225  16.853   3.717 -0.3187 -0.0861 -0.3883
30346W        W47194   8.304   1.375   2.531  0.3397 -0.3229  0.0681
30347W        W47195  16.061   0.872   1.394  0.2115 -0.1226  0.0513
30348W        W47196   7.072   1.391  12.010 -0.1353 -0.0172 -0.2164
30349W        W47197   6.887  13.236   2.311  0.2482 -0.4142 -0.1228
30350W        W47198  17.518   3.254   0.533  0.0046 -0.0310 -0.0361
30351W        W47199  11.144   9.798   4.876 -0.0006  0.1841 -0.1730
30352W        W47200   9.351   8.888   1.064  0.0667 -0.5289  0.0286
30353W        W47201   5.487   1.424   3.968  0.2529  0.0290  0.1924
30354W        W47202   9.619   2.812   1.105  0.2011  0.0668 -0.1050
30355W        W47203   0.962  17.825  15.988  0.1824 -0.2119 -0.0654
30356W        W47204   1.308  12.902  14.152  0.1052  0.1550 -0.1220
30357W        W47205   5.711   4.528  13.562 -0.0564  0.2237  0.3182
30358W        W47206   8.626   1.539   0.660 -0.1969  0.2799 -0.2498
30359W        W47207  13.870  13.202   5.021 -0.2895 -0.1092 -0.1388
30360W        W47208  10.448  12.074   0.344  0.1729 -0.2184  0.1090
30361W        W47209   0.471   0.354   0.122 -0.2472  0.1313 -0.0594
30362W        W47210   3.242   0.811  14.724 -0.1444  0.0265 -0.4223
30363W        W47211   2.644   6.884   1.252  0.0626  0.2345  0.2466
30364W        W47212  16.763  11.828   2.095 -0.1626  0.0859 -0.2586
30365W        W47213   9.594  15.692  11.909 -0.1201 -0.4956  0.1005
30366W        W47214   2.078  11.431   0.291 -0.1747  0.1205  0.1315
30367W        W47215  16.266   8.386  14.993  0.1098  0.0665  0.2644
30368W        W47216  16.558   4.117   1.171 -0.1489 -0.1725  0.0108
30369W        W47217  16.213  13.458  12.204  0.0272  0.1478 -0.3457
30370W        W47218  12.826   9.338  15.197 -0.1605  0.0154  0.3491
30371W        W47219   7.029  11.191   1.990  0.2206 -0.2559 -0.0604
30372W        W47220  15.125   1.233  15.907 -0.1715 -0.0629 -0.0947
30373W        W47221  14.633   5.539  16.332  0.2229 -0.0761 -0.0560
30374W        W47222  11.421  16.158   2.423 -0.2330 -0.0429  0.2860
30375W        W47223  16.946   0.580  13.817  0.0966 -0.0102  0.2056
30376W        W47224  14.041  13.573   4.503  0.0490  0.0674  0.0385
30377W        W47225  16.406   8.107  15.995 -0.1435 -0.0662  0.0969
30378W        W47226   9.478   7.966  15.385  0.0571  0.1409 -0.0395
30379W        W47227   1.601  10.727   0.629 -0.0973 -0.2247 -0.0564
30380W        W47228  15.867   3.563   2.918 -0.1510 -0.2557  0.1297
30381W        W47229   3.126   2.931  16.246 -0.2340  0.0095  0.1317
30382W        W47230  11.999  15.952   3.627  0.1544 -0.0414  0.3788
30383W        W47231   6.532   2.110   2.091 -0.1498 -0.0979 -0.0758
30384W        W47232   9.723  13.973  10.629  0.1383 -0.2433 -0.0575
30385W        W47233   5.219  13.733  12.225 -0.1699 -0.1783  0.0903
30386W        W47234   0.724   6.468   4.349  0.0119  0.2277 -0.1506
30387W        W47235   9.439  12.374   0.232  0.2241  0.0082  0.2117
30388W        W47236   3.614   9.174   1.388  0.3571  0.2717 -0.0472
30389W        W47237  10.765   4.972  15.210  0.0523 -0.3117 -0.0834
30390W        W47238  10.979   9.614  13.173 -0.0545  0.0571 -0.2290
30391W        W47239  15.462   8.736  16.543 -0.2276  0.1279  0.0985
30392W        W47240   1.267   9.717  13.310 -0.5541  0.2507 -0.2609
30393W        W47241  13.223   0.151  13.296 -0.0568 -0.4310  0.0789
30394W        W47242   3.410  14.207   0.884 -0.0768  0.0991  0.4061
30395W        W47243   7.010   3.218  11.922 -0.2497  0.0436 -0.0788
30396W        W47244  13.245   4.107   2.664  0.0271  0.0156 -0.1794
30397W        W47245   1.225   5.653  11.616 -0.1376  0.1071  0.0408
30398W        W47246   3.316  12.304   2.593 -0.3196  0.3118  0.2559
30399W        W47247  16.011   7.588   1.469  0.2380 -0.1435 -0.0066
30400W        W47248  10.994   4.380  13.080 -0.2163  0.1530  0.0970
30401W        W47249  11.081  10.964   4.280  0.0466  0.0813 -0.1226
30402W        W47250   3.182  10.363  16.562  0.2589 -0.1868 -0.0644
30403W        W47251  14.476   5.103  12.960  0.0337 -0.3600 -0.1084
30404W        W47252  14.628  14.912   1.064 -0.1187  0.1537 -0.2433
30405W        W47253  15.908   4.480  14.029  0.1615 -0.1693 -0.0722
30406W        W47254  17.699   2.300   2.581  0.0540 -0.4217 -0.1424
30407W        W47255  11.141   3.523   2.946 -0.1053 -0.1743  0.1125
30408W        W47256  14.232  12.237   5.653  0.0173 -0.2488 -0.0902
30409W        W47257   3.896  16.705  11.609 -0.0177 -0.0299  0.1129
30410W        W47258   2.100  17.008  15.490 -0.1193 -0.3083 -0.0606
30411W        W47259   8.324  16.085   2.168 -0.0306 -0.0333 -0.0589
30412W        W47260  13.901  14.018   1.908  0.4083  0.1246 -0.1668
30413W        W47261  17.345  14.121  14.470  0.1060 -0.1562  0.0505
30414W        W47262  13.341  15.300   1.612  0.0888 -0.1212  0.0843
30415W        W47263  13.954   4.840   0.541  0.1494  0.0108 -0.1221
30416W        W47264   8.523   6.256   3.628  0.0457 -0.0902  0.1353
30417W        W47265   6.362  12.190  11.748 -0.1050  0.1436  0.0877
30418W        W47266   7.522   8.682  11.738  0.1795 -0.1454 -0.1152
30419W        W47267   2.554   6.682   4.681 -0.1664 -0.0689  0.3062
30420W        W47268   6.678   3.961   3.402  0.1112 -0.2813  0.0773
30421W        W47269   7.536  13.387   5.294  0.1184  0.2629  0.0249
30422W        W47270  17.681  11.131  14.217 -0.1317  0.4948  0.2164
30423W        W47271  14.386  15.254  14.635 -0.0847  0.0053  0.0903
30424W        W47272  12.319   7.373   4.309 -0.4102 -0.1313 -0.3946
30425W        W47273  10.714  16.128   2.934  0.1419 -0.1590  0.2581
30426W        W47274   2.978  17.660   4.168 -0.1421  0.1927  0.0066
30427W        W47275   9.464   4.191  13.128  0.4072  0.1407 -0.0267
30428W        W47276  17.528   0.988  15.023  0.1062  0.2756  0.1883
30429W        W47277   2.325  11.405   4.792  0.1509 -0.1948 -0.1111
30430W        W47278  10.882   6.305   4.391 -0.0992 -0.0098 -0.2062
30431W        W47279  13.033   3.569   2.711 -0.0598 -0.0014 -0.1391
30432W        W47280   4.378   8.898  13.777 -0.1464  0.0585 -0.0167
30433W        W47281  11.286   6.139  13.667 -0.0773 -0.2228  0.0691
30434W        W47282  15.645   7.781  14.462  0.0096  0.0343 -0.0565
30435W        W47283   0.571   5.626  13.661 -0.3207  0.0564  0.1154
30436W        W47284  17.284  17.661  13.116 -0.2092 -0.1042 -0.2103
30437W        W47285   3.549   4.504  12.482  0.0388  0.3070 -0.0658
30438W        W47286   4.153  15.398  14.093 -0.0982  0.1914 -0.2650
30439W        W47287  15.555   4.389   3.578  0.0174  0.1518 -0.2109
30440W        W47288   7.879   3.296   3.579 -0.2919 -0.0515  0.2944
30441W        W47289  14.327   5.789  15.307 -0.0850  0.0755 -0.0192
30442W        W47290   1.995   2.955  15.025  0.0053  0.0596  0.0313
30443W        W47291   2.773  13.109   2.416  0.0446  0.1757  0.2809
30444W        W47292   6.618   4.418   0.893  0.0451  0.1798  0.0918
30445W        W47293   3.808  11.564   0.197 -0.1407 -0.2042 -0.0620
30446W        W47294  11.395  13.525  13.296 -0.3170  0.0433 -0.0425
30447W        W47295  15.155   3.657   1.589 -0.0355  0.3653 -0.2555
30448W        W47296  14.751   4.757   0.977  0.0593 -0.5529 -0.3783
30449W        W47297   0.771   8.702   4.783  0.1256 -0.2348 -0.0422
30450W        W47298   8.973  15.233   4.721  0.2093  0.1044 -0.0508
30451W        W47299  14.166  10.658  13.918  0.0272  0.3110  0.0387
30452W        W47300  15.677   2.676  12.170 -0.2794 -0.3249  0.4074
30453W        W47301   1.030  17.265   3.501  0.0884 -0.3222 -0.0657
30454W        W47302   7.303   6.731  16.375  0.2946  0.0966 -0.3620
30455W        W47303   8.921  17.493  15.040 -0.0048 -0.1693 -0.0079
30456W        W47304   5.797   9.010   3.286 -0.1514  0.2788  0.0750
30457W        W47305   6.999  10.725  14.890  0.1378 -0.0081 -0.3735
30458W        W47306   3.568  14.575   2.339 -0.0063 -0.0809  0.2757
30459W        W47307  15.208   9.111  14.199  0.2948 -0.4462 -0.0319
30460W        W47308  13.043  13.380   3.264  0.1536  0.2012 -0.1477
30461W        W47309   5.394  14.627   1.173  0.1699  0.1788 -0.3557
30462W        W47310  16.301  13.220   5.093  0.2255 -0.1243 -0.1130
30463W        W47311   5.092   5.397   0.477 -0.0116 -0.3647  0.2318
30464W        W47312   7.014   9.143  14.030 -0.0008  0.3025 -0.0720
30465W        W47313   3.407   4.394   1.005 -0.1488 -0.2255  0.2697
30466W        W47314  11.710   4.507   4.586  0.1126 -0.1041 -0.0180
30467W        W47315  11.169  11.420   4.552 -0.0681 -0.1194  0.1420
30468W        W47316  16.028  12.982  16.587  0.0813 -0.1107 -0.1035
30469W        W47317  12.971  11.314   2.976 -0.1153  0.1438  0.0136
30470W        W47318  12.384  10.935   4.098 -0.0807 -0.0824 -0.0557
30471W        W47319  15.471   5.298   3.435 -0.0206 -0.0329 -0.4001
30472W        W47320   9.961  12.125   3.302 -0.4164  0.0664  0.2211
30473W        W47321   0.220   0.350  12.145 -0.0030 -0.0103 -0.0266
30474W        W47322   9.173   3.706  15.001  0.1964  0.0428 -0.1065
30475W        W47323  10.484  17.137  14.573  0.0668  0.0250 -0.1273
30476W        W47324  13.234  16.440  12.268 -0.1016 -0.2434 -0.0414
30477W        W47325   1.545  10.239  14.959 -0.1065 -0.1624  0.1579
30478W        W47326   0.430   2.383   1.230  0.0386  0.0581  0.2377
30479W        W47327  12.829   1.476  13.775  0.0359 -0.1095 -0.2330
30480W        W47328  11.202   2.171   0.654  0.0623  0.1610  0.1424
30481W        W47329  16.877  17.709  14.372  0.1793  0.0624  0.1563
30482W        W47330   6.699   5.237  11.970  0.0703  0.0153  0.4168
30483W        W47331  14.712  17.616  12.496 -0.1002 -0.0133  0.0620
30484W        W47332   9.624   4.527  11.357  0.2707 -0.5722 -0.0236
30485W        W47333   8.382   4.380   4.028  0.1484 -0.2409  0.0848
30486W        W47334   6.860  10.235   5.156 -0.0182 -0.1960 -0.0510
30487W        W47335   6.373   9.943   1.760 -0.1454 -0.1362  0.1375
30488W        W47336   8.693  13.996   5.298  0.0618 -0.2786  0.1705
30489W        W47337   8.973  14.267  15.266 -0.2146 -0.0592 -0.1766
30490W        W47338  17.065   9.766  13.025 -0.0407 -0.1962 -0.0906
30491W        W47339   3.231  14.621  15.381 -0.0687  0.0415 -0.1834
30492W        W47340  11.154  16.511   5.916 -0.1916  0.0988 -0.2445
30493W        W47341   4.441  13.380  12.792 -0.0553  0.1835  0.1206
30494W        W47342   6.446   8.301  10.390  0.0176 -0.0609 -0.0736
30495W        W47343   6.949  12.658   2.530  0.2138  0.2585  0.1739
30496W        W47344  17.203   9.009  13.378  0.1592 -0.1915 -0.2705
30497W        W47345  13.101   9.925   0.187  0.0894 -0.1612  0.1888
30498W        W47346  15.220   4.293   3.926  0.0539  0.0398 -0.2553
30499W        W47347  12.473  11.163   0.642 -0.1741  0.4925  0.2573
30500W        W47348  16.708  11.707  14.269 -0.0099 -0.0590 -0.0763
30501W        W47349   8.799   7.372   3.135 -0.1538 -0.1154  0.0907
30502W        W47350   3.170   5.426   0.003  0.0303 -0.2078 -0.3556
30503W        W47351   1.989   9.277  12.720 -0.0442  0.3807 -0.0388
30504W        W47352   7.980   5.150  13.964 -0.2310  0.3053  0.0104
30505W        W47353  16.347   4.656   4.771 -0.1434  0.0512  0.0005
30506W        W47354  16.639   8.086  14.219  0.1608  0.0049  0.0913
30507W        W47355  10.013   5.983   1.401 -0.1224  0.0606 -0.1007
30508W        W47356  17.208  13.518  12.430 -0.1998  0.0148  0.0425
30509W        W47357   2.554  12.951   2.040  0.2976  0.0537 -0.0536
30510W        W47358  12.553   0.696  14.637 -0.1361 -0.1299 -0.2622
30511W        W47359   0.255   9.682  11.330 -0.0215 -0.2757  0.1311
30512W        W47360   7.588   0.203   0.492 -0.0781 -0.2265  0.1384
30513W        W47361   8.999  10.400  11.095 -0.3708  0.4182  0.0894
30514W        W47362  14.650   3.927   0.335 -0.3076  0.0452  0.2377
30515W        W47363   1.114   0.288  16.438  0.2925 -0.0618  0.3121
30516W        W47364   9.116   9.153   3.415  0.2789 -0.1503  0.0192
30517W        W47365   4.049   0.550   4.592  0.0214 -0.1342 -0.0081
30518W        W47366  12.003  10.090   2.091 -0.3500  0.2093 -0.1578
30519W        W47367   1.233  15.483  13.074 -0.0324  0.0650  0.1473
30520W        W47368   4.841  16.936   0.515  0.1367  0.0818 -0.2200
30521W        W47369  16.720  16.953   2.921 -0.0891 -0.3073  0.2046
30522W        W47370   6.380  16.786   6.056 -0.1412  0.0422 -0.2188
30523W        W47371   4.035   7.836  13.700 -0.3021 -0.1387  0.1624
30524W        W47372   2.486  13.227   4.644  0.0584 -0.0058  0.1054
30525W        W47373   4.408  11.027   2.403 -0.3307  0.1168 -0.1956
30526W        W47374   8.164  13.396   4.176  0.1212  0.1516 -0.0711
30527W        W47375   8.546  13.736  14.743  0.2754 -0.0322 -0.0489
30528W        W47376   5.490  16.735  13.356 -0.0006  0.1988  0.2433
30529W        W47377   0.608  10.541  16.525  0.0745 -0.0345  0.1610
30530W        W47378   8.466   5.966   2.261 -0.2259 -0.4008  0.1075
30531W        W47379   2.945   1.674   0.067  0.2064 -0.1249  0.1794
30532W        W47380  13.080  14.583  15.951  0.0493  0.1244  0.0185
30533W        W47381   5.220   9.186  13.705 -0.0622  0.2708 -0.0594
30534W        W47382  15.997  15.556   3.593 -0.3474 -0.1326 -0.2788
30535W        W47383   4.063   0.856  12.020  0.2830  0.4476  0.2755
30536W        W47384   1.941  12.938   3.005  0.0510 -0.2294  0.3107
30537W        W47385   4.195   3.825  11.911 -0.0576  0.0253  0.4165
30538W        W47386  15.316   9.354   0.782  0.1858 -0.2996 -0.0787
30539W        W47387   3.275  15.773   1.477 -0.2072  0.1468  0.0964
30540W        W47388  10.693  15.645   3.946 -0.1599  0.0563  0.1781
30541W        W47389  14.439  13.851  13.517  0.2134 -0.0263  0.0673
30542W        W47390   3.120   5.775   1.988 -0.1822  0.0530  0.1217
30543W        W47391  10.805   3.411   0.133 -0.1139 -0.0712 -0.1678
30544W        W47392   3.591  11.640   5.214 -0.2427 -0.0683 -0.0051
30545W        W47393  13.375   7.224   0.030  0.0216  0.0349  0.1493
30546W        W47394  14.987   7.533   1.364  0.1272  0.1387 -0.2685
30547W        W47395  11.790   3.002  14.525  0.0352 -0.1432 -0.3111
30548W        W47396  14.448  17.103   0.566  0.1988  0.0166 -0.1851
30549W        W47397   4.406   5.471   2.908  0.0631 -0.3451  0.4033
30550W        W47398   9.730   2.968  13.901  0.2208 -0.1330 -0.1283
30551W        W47399  12.162   7.834  14.315 -0.0227 -0.1490 -0.1623
30552W        W47400   5.197   8.416   4.147 -0.3786  0.0906  0.0186
30553W        W47401   3.331   8.444  12.003 -0.0779 -0.2990 -0.1397
30554W        W47402  11.576  15.487   2.755  0.1405 -0.0236  0.1289
30555W        W47403   8.130  12.962   3.882 -0.0648 -0.0062 -0.0200
30556W        W47404  13.295   5.944   0.841  0.0359  0.0225 -0.2264
30557W        W47405   3.724  10.157   0.481  0.0513  0.1013  0.3466
30558W        W47406   2.565  10.763   3.295  0.0752  0.2257  0.1921
30559W        W47407  10.707   5.124  13.747  0.0434  0.0806  0.0801
30560W        W47408   1.207   7.691   1.193 -0.0672 -0.0579  0.3925
30561W        W47409   5.466  16.846  11.986  0.1996 -0.2327  0.0081
30562W        W47410   3.173  12.664  12.171  0.0550 -0.0173 -0.1920
30563W        W47411   4.382   3.972   4.465 -0.0726  0.2348 -0.0979
30564W        W47412   5.810   2.782  14.889  0.1054 -0.2530 -0.2764
30565W        W47413  16.864   5.597  14.688  0.1508  0.2078 -0.1423
30566W        W47414   4.101   9.060  12.245  0.1191  0.1651 -0.0220
30567W        W47415   1.180  16.694   0.342  0.0310  0.0212  0.0767
30568W        W47416   5.651   9.071   4.540 -0.1036  0.0796  0.2192
30569W        W47417  11.203  17.607   1.787  0.1008 -0.0222  0.1439
30570W        W47418   3.172   8.868  16.383  0.2054 -0.0220 -0.0989
30571W        W47419   1.633  13.340  15.857  0.1444  0.1236  0.3277
30572W        W47420  15.983  12.499  15.888  0.0415 -0.0780 -0.1667
30573W        W47421  12.106  17.166   0.774 -0.0918 -0.1763  0.1003
30574W        W47422  13.177   2.317   0.996  0.1000 -0.2469  0.0616
30575W        W47423  12.913  13.594  11.701  0.2131  0.0745  0.0507
30576W        W47424   9.223  11.625  15.224  0.0446 -0.2799 -0.3032
30577W        W47425   2.964   3.273  12.789 -0.0292  0.2084 -0.0879
30578W        W47426   6.805  14.115   2.094 -0.0440 -0.0460 -0.2101
30579W        W47427   3.240  10.809   5.297 -0.1242 -0.2387 -0.1050
30580W        W47428   8.353   1.849   0.413 -0.1257  0.1281 -0.1517
30581W        W47429   6.968   0.847  14.940 -0.1485 -0.2108 -0.1714
30582W        W47430   1.750   5.962   1.506  0.2043 -0.1153 -0.0802
30583W        W47431   6.782   2.138  11.624  0.1431  0.2526 -0.0554
30584W        W47432   5.124  11.592   4.748 -0.2671 -0.2397 -0.0740
30585W        W47433  12.964  15.544   3.327 -0.0249  0.2346 -0.0353
30586W        W47434   9.612   6.812  14.525 -0.1650 -0.0321 -0.2440
30587W        W47435  10.585   2.800  14.195  0.2931  0.3334 -0.2738
30588W        W47436  13.206  13.452  13.534  0.1309 -0.0978 -0.3732
30589W        W47437  12.787  11.012   2.587 -0.2444  0.1234  0.0459
30590W        W47438  10.754   4.399   1.194  0.3945  0.4367 -0.0248
30591W        W47439  14.012  15.440   4.901 -0.0710  0.0304  0.0498
30592W        W47440   7.010  10.774   3.321 -0.0192  0.2539 -0.0694
30593W        W47441  10.040  14.251   2.110  0.1062  0.1534  0.0370
30594W        W47442   8.832   3.697  13.677 -0.0085 -0.1565 -0.0779
30595W        W47443   0.026  11.336   4.105 -0.2660  0.0766 -0.0709
30596W        W47444  12.989   0.602   3.138  0.1055  0.2256  0.0848
30597W        W47445   7.577   2.969   0.138 -0.0077  0.2103 -0.1538
30598W        W47446  14.254  11.001   4.755  0.2883  0.4289  0.1890
30599W        W47447  12.028   9.673   4.404 -0.3366  0.0834  0.2506
30600W        W47448   7.671   2.482   3.328 -0.0062 -0.3308  0.1076
30601W        W47449  11.326   6.368   0.161  0.1254  0.1960 -0.5242
30602W        W47450   1.431  16.136  15.312  0.1247 -0.2583 -0.0337
30603W        W47451   4.531  14.795   2.753 -0.0405 -0.0821 -0.4260
30604W        W47452   5.137   5.418   2.253  0.1784  0.0099 -0.1159
30605W        W47453   3.297   5.631  12.451 -0.2043  0.1568 -0.0094
30606W        W47454  15.339  16.944  11.827 -0.1604 -0.0462 -0.3753
30607W        W47455  17.459  11.665   0.463  0.2362  0.2023  0.0624
30608W        W47456  12.082   4.322  14.292 -0.0398 -0.0990 -0.0371
30609W        W47457  14.354   2.467   2.738  0.0435 -0.0808 -0.2434
30610W        W47458  11.328   6.649   1.125 -0.1056  0.1814 -0.1530
30611W        W47459   8.851   5.549   1.786  0.2235 -0.1537  0.2539
30612W        W47460   6.693  11.154  13.118  0.3541 -0.1694  0.1429
30613W        W47461   0.402  14.208   5.094  0.0597 -0.1833 -0.2856
30614W        W47462   4.395  17.567   2.445 -0.0298 -0.0535 -0.1565
30615W        W47463   0.803  16.678   2.780 -0.0964 -0.0149  0.3634
30616W        W47464  13.881   9.767  14.083 -0.2086  0.0799 -0.0861
30617W        W47465  16.509   6.788  12.784 -0.1188 -0.4071  0.0255
30618W        W47466   1.850  16.521   4.647 -0.0843  0.0147  0.0971
30619W        W47467   9.632  12.223   5.314  0.1342 -0.1148 -0.3073
30620W        W47468  14.849   4.985   0.341  0.2842  0.0357 -0.1802
30621W        W47469  11.302  10.147  14.871  0.1747  0.3138 -0.1323
30622W        W47470  10.784  11.305   3.354 -0.1187  0.0422  0.2825
30623W        W47471  11.735   1.303   2.763  0.1610  0.3409  0.0276
30624W        W47472   0.004   8.901  16.502 -0.0297  0.3852 -0.0357
30625W        W47473   8.731   3.039  12.929 -0.1926  0.2459 -0.1303
30626W        W47474   2.444   4.861  14.203  0.0027  0.2035 -0.1130
30627W        W47475   4.437  17.387  11.132 -0.3118 -0.2584  0.5001
30628W        W47476  13.291   1.721   4.878  0.2061  0.0187 -0.1931
30629W        W47477  10.332  13.635   1.508  0.0357 -0.1355 -0.0875
30630W        W47478   1.604  11.240  14.067  0.2026 -0.3340 -0.1829
30631W        W47479   1.673   6.623   2.139 -0.1267 -0.0818  0.2194
30632W        W47480  10.807   9.971   0.526 -0.1699 -0.2045  0.0564
30633W        W47481  13.155   6.829  16.508  0.1161  0.2930 -0.0347
30634W        W47482   8.382  14.600   1.662 -0.0291 -0.1076 -0.0312
30635W        W47483   6.589   5.982  15.536 -0.0314  0.1449 -0.0192
30636W        W47484  14.137  17.447   0.328  0.4694 -0.0142  0.1397
30637W        W47485  14.785   9.070  12.032  0.1582 -0.0330  0.0682
30638W        W47486  12.184  16.332  13.368  0.2213 -0.0329 -0.1147
30639W        W47487  16.020   2.296  13.086 -0.1683  0.0314  0.0527
30640W        W47488  15.334  11.446  13.874  0.0801  0.1156 -0.2295
30641W        W47489   9.623   2.789  12.784 -0.0470  0.2625  0.2013
30642W        W47490   7.832  13.767   3.469  0.1641 -0.0770 -0.5016
30643W        W47491   3.747  10.742   4.266 -0.1484 -0.3004 -0.1596
30644W        W47492   2.138  15.268   2.377  0.0218 -0.1660 -0.0006
30645W        W47493   4.600  14.353  14.475  0.0849 -0.0235  0.1711
30646W        W47494  17.001  16.982  14.510  0.0543  0.4289 -0.1199
30647W        W47495  17.102   1.737   3.000 -0.1959 -0.1171  0.0438
30648W        W47496  17.201  10.070  11.947 -0.1871  0.1172  0.1361
30649W        W47497   4.523   7.886   5.258  0.0986  0.0851  0.0088
30650W        W47498  10.821   8.324   3.721  0.0428 -0.2395 -0.4093
30651W        W47499   3.489  15.470  13.447  0.0741  0.3455  0.1075
30652W        W47500  16.864   5.837   4.165  0.1222 -0.1786 -0.0079
30653W        W47501  12.342  12.062   1.750  0.1031 -0.0794  0.2479
30654W        W47502  13.980  17.253  15.569  0.0723  0.0068  0.1676
30655W        W47503   1.106  14.625  14.586 -0.1292  0.0284  0.1832
30656W        W47504   1.213   7.689  12.631  0.2111 -0.1996  0.0499
30657W        W47505   5.862   4.760   2.116 -0.3733 -0.2018 -0.1156
30658W        W47506   0.478  12.776  14.196  0.1285 -0.1202  0.0539
30659W        W47507   4.604   4.220   3.361  0.0858 -0.0020 -0.2132
30660W        W47508  13.548  15.467  14.342 -0.3051 -0.1733  0.1245
30661W        W47509   2.753  16.060  13.842  0.0986 -0.1611  0.1719
30662W        W47510   5.253  16.593   0.569 -0.0516 -0.0481  0.0834
30663W        W47511   4.184   1.956  12.857  0.4840  0.1340  0.0307
30664W        W47512  12.932  10.438   2.944  0.0443 -0.2658 -0.1296
30665W        W47513  11.609   0.141   2.276 -0.1379 -0.3239 -0.0121
30666W        W47514   7.675  15.640  12.944  0.2043  0.3899 -0.0897
30667W        W47515  11.200   6.624   4.665  0.0747  0.3545  0.0812
30668W        W47516   5.028   8.813   1.650  0.0345  0.3965 -0.1249
30669W        W47517  11.307  15.578  13.809 -0.4095 -0.2437  0.0259
30670W        W47518  16.435  13.868   1.836  0.1178 -0.1447 -0.4829
30671W        W47519  13.073  11.817   3.030 -0.0478  0.0295  0.2374
30672W        W47520   5.646  17.190  16.368 -0.1867  0.1892  0.0372
30673W        W47521  10.072  14.108   0.359 -0.1973  0.1576  0.0164
30674W        W47522   4.158   3.713  13.559 -0.0287 -0.1924 -0.2770
30675W        W47523  15.316  15.855  15.595 -0.1035  0.0756  0.0870
30676W        W47524   9.545   1.217  12.177 -0.3758 -0.3099 -0.0379
30677W        W47525  12.608   1.084   0.330  0.3274  0.0950 -0.1690
30678W        W47526  14.129  12.306   1.343 -0.3134 -0.0206 -0.0059
30679W        W47527  10.345  15.940  16.431  0.2337 -0.0379 -0.1940
30680W        W47528   3.931   7.666   2.917  0.0468  0.0909  0.0721
30681W        W47529   0.190   3.385   3.636  0.1437 -0.0469 -0.0275
30682W        W47530   4.000   2.736  13.445  0.1116 -0.0083 -0.0318
30683W        W47531   9.468   1.397  14.728 -0.1244 -0.0267  0.0455
30684W        W47532   2.508  17.391   4.458  0.0505 -0.2795 -0.2198
30685W        W47533  12.396   7.798   3.747 -0.3958 -0.1478 -0.1135
30686W        W47534   1.385   1.209  15.386  0.0207  0.0803 -0.2101
30687W        W47535   7.826  12.980   0.532 -0.1193  0.0708 -0.1536
30688W        W47536   7.844   3.703   5.494  0.0791 -0.0017  0.1455
30689W        W47537   7.579   6.829   1.568  0.0938  0.0880 -0.0086
30690W        W47538  15.381   1.999   1.858 -0.0235  0.2443 -0.4739
30691W        W47539   7.864  10.585  12.529  0.1208 -0.3714  0.0802
30692W        W47540   3.355   7.058   4.200 -0.1058  0.0584 -0.1470
30693W        W47541   7.509  14.566   3.415  0.0921  0.0002  0.2494
30694W        W47542   4.880   2.484   1.416  0.1316 -0.0215  0.0161
30695W        W47543  16.489   5.205  16.475 -0.3221  0.4194 -0.0662
30696W        W47544   0.369   9.176  12.467 -0.2466 -0.0743  0.1027
30697W        W47545  14.849  14.203  14.327  0.3973 -0.0624 -0.2365
30698W        W47546   9.550   6.160  15.659 -0.0534  0.1339 -0.0122
30699W        W47547   7.264  14.669  14.279 -0.1092 -0.0414  0.0016
30700W        W47548   4.954   9.686   1.781 -0.1868 -0.0824 -0.1122
30701W        W47549  11.965  16.568  12.962 -0.0526 -0.2755 -0.0606
30702W        W47550  11.214   1.785  14.986 -0.0493 -0.0443  0.0409
30703W        W47551   2.834   9.382  13.077  0.1342  0.0150 -0.3063
30704W        W47552   9.330   9.811   2.267 -0.0431 -0.0022  0.0869
30705W        W47553   5.825  12.077   2.217 -0.1011  0.1022 -0.0978
30706W        W47554   5.619   3.606  13.633  0.1648  0.0673 -0.3881
30707W        W47555  10.652   7.998  15.229 -0.1255 -0.0785 -0.0578
30708W        W47556  14.611   1.790  14.002 -0.0776 -0.0593 -0.0669
30709ION     NA47557   0.490   2.012   6.041 -0.0527  0.1766  0.2475
30710ION     NA47558  10.533   1.705   4.751 -0.2908  0.1368 -0.0029
30711ION     NA47559  11.707   3.735   5.823 -0.1040  0.1338 -0.0582
30712ION     NA47560   8.453   4.503   5.921  0.0000 -0.2199  0.3249
30713ION     NA47561   1.171   9.084   5.865  0.1623 -0.4710 -0.2090
30714ION     NA47562  11.165  10.900  16.086 -0.0869  0.2496  0.0027
30715ION     NA47563   2.406   6.086   4.833  0.1646  0.3243  0.0001
30716ION     NA47564  17.395   5.060   5.700  0.1780  0.3526  0.0945
30717ION     NA47565   1.320   8.218  10.466  0.1032  0.1287  0.1231
30718ION     NA47566   8.809   7.246   0.466  0.1343  0.0732 -0.1444
30719ION     NA47567   8.227   6.176  10.429 -0.0379 -0.0198  0.0332
30720ION     NA47568  11.995  17.749  10.854  0.1655  0.1103 -0.2694
30721ION     NA47569  16.994  15.594   5.697  0.1473  0.0857  0.1039
30722ION     NA47570   3.700  16.266  10.841  0.2299  0.3456 -0.0252
30723ION     NA47571   9.824   5.586  10.908  0.1404  0.1443 -0.0380
30724ION     NA47572  11.874   3.285  10.607  0.0340  0.1816  0.0869
30725ION     NA47573   1.382  12.973   5.952 -0.1606 -0.2095 -0.1150
30726ION     NA47574  15.678  14.602   6.204 -0.1159  0.2279  0.0905
30727ION     NA47575   1.537   1.290  10.593 -0.4686 -0.0045 -0.1026
30728ION     NA47576  10.881   6.375   6.034 -0.1599 -0.1177  0.0936
30729ION     NA47577   0.704  12.733  10.501 -0.0115 -0.3798 -0.0615
30730ION     NA47578  12.669   1.527   6.253 -0.1452  0.2784 -0.1390
30731ION     NA47579  15.164   7.548  15.179 -0.1629 -0.0669  0.0610
30732ION     NA47580   8.508   6.148   5.796 -0.0122  0.3660 -0.1408
30733ION     NA47581  10.327   0.512  10.733  0.0617  0.0976 -0.0192
30734ION     NA47582   9.135   8.492  15.050 -0.0758 -0.2004 -0.3090
30735ION     NA47583   8.035   4.889  13.497 -0.3145  0.0351 -0.2538
30736ION     NA47584   7.347   8.092  10.557  0.0764 -0.0385 -0.1912
30737ION     NA47585  15.713  14.834  10.761 -0.0851 -0.2784  0.1539
30738ION     NA47586  12.364  11.270   5.940 -0.1618 -0.4488 -0.0488
30739ION     NA47587  10.544   2.079  11.995 -0.2711 -0.0952 -0.3482
30740ION     NA47588  13.301  17.502   6.096  0.5932  0.0801  0.0433
30741ION     NA47589  14.819  12.816   5.958  0.2080  0.0667 -0.0817
30742ION     NA47590   5.698   5.011  10.302 -0.2644 -0.2285  0.1503
30743ION     NA47591   8.194   4.708  10.827 -0.1650 -0.2535  0.0873
30744ION     NA47592  16.020   9.773   5.873  0.2106  0.0998 -0.1689
30745ION     NA47593  10.403  10.589   6.022  0.0748 -0.1079 -0.1509
30746ION     NA47594  17.017  15.886   6.092 -0.1525  0.2115 -0.0092
30747ION     NA47595  13.677  14.995   5.581 -0.0323 -0.2784 -0.2196
30748ION     NA47596   5.977  12.305  10.664 -0.2464  0.0116  0.0591
30749ION     NA47597  10.300  14.293   5.709 -0.2684  0.0507 -0.0507
30750ION     NA47598   5.864   1.135  13.882  0.0144 -0.0275  0.1203
30751ION     NA47599   2.428  15.072  10.867  0.0426 -0.3596 -0.3485
30752ION     NA47600   1.937   8.912  10.507 -0.0145  0.1550 -0.1502
30753ION     NA47601   5.502  10.586   1.844 -0.0411  0.0643 -0.0934
30754ION     NA47602   5.777   4.172  10.562 -0.0194  0.1040  0.0441
30755ION     NA47603   3.330   0.280   6.188 -0.1635 -0.1841  0.3421
30756ION     NA47604  17.746   1.378   1.793  0.3430  0.2292  0.3365
30757ION     NA47605  11.422   7.599  11.150  0.3439 -0.1128  0.0830
30758ION     NA47606   9.592  11.987   0.511  0.2522  0.0176 -0.1154
30759ION     NA47607  15.699   9.510  10.519  0.0572 -0.1353  0.3269
30760ION     NA47608  13.660   6.534  12.549 -0.2013 -0.1325 -0.1155
30761ION     NA47609   4.453   4.481  10.419 -0.1978 -0.2572 -0.1290
30762ION     NA47610  15.234  17.705   1.412 -0.1289 -0.1826 -0.0124
30763ION     NA47611  12.962   3.801   2.304  0.1566  0.1957  0.3022
30764ION     NA47612  17.208   2.566   5.195 -0.0920  0.1255  0.0419
30765ION     NA47613   9.637   7.413  10.953 -0.0439 -0.1501  0.1962
30766ION     NA47614  16.500  11.906   2.970 -0.3352 -0.4325 -0.1207
30767ION     NA47615  15.507   9.701  13.313  0.2808  0.0831 -0.1434
30768ION     NA47616  10.012   9.803  10.516  0.1049  0.1791 -0.0229
30769ION     NA47617  13.843   2.867  13.696  0.0297  0.1568 -0.2275
30770ION     NA47618   3.832   8.781  10.882  0.0531  0.1987  0.1334
30771ION     NA47619  16.441  15.363   0.331 -0.1494  0.0732 -0.0048
30772ION     NA47620   3.142   6.079  12.179 -0.0547  0.2000  0.0411
30773ION     NA47621   0.479   7.533  11.285  0.0261  0.1249  0.0192
30774ION     NA47622   4.942   2.470  10.398  0.3027 -0.2269  0.2193
30775ION     NA47623   2.190   5.484   0.322  0.0313 -0.2469 -0.0189
30776ION     NA47624  12.237  16.787  10.853 -0.3133 -0.2444  0.1041
30777ION     NA47625   7.572  11.552  10.654 -0.1270 -0.1575  0.1195
30778ION     NA47626   9.572   8.455  10.966 -0.0783  0.3248  0.5058
30779ION     NA47627  11.444   0.461   5.684  0.0314 -0.0113  0.0472
30780ION     NA47628   0.932  17.605   6.246 -0.2503 -0.0234 -0.0789
30781ION     NA47629  14.286  13.110  11.382 -0.3001 -0.0720 -0.2657
30782ION     NA47630  13.849   9.617   1.785  0.0220  0.0363  0.2914
30783ION     NA47631  11.547   6.287   2.721  0.0966  0.1252  0.0376
30784ION     NA47632  15.002  14.270   5.195  0.2051 -0.1298 -0.2168
30785ION     NA47633   0.706   2.987  14.485 -0.1095 -0.0286 -0.0906
30786ION     NA47634   2.405  11.330  13.914 -0.0604  0.0619  0.2891
30787ION     NA47635  16.020   0.305   6.172 -0.0494  0.1966 -0.2929
30788ION     NA47636   7.120  15.093   6.107  0.1308 -0.0959 -0.1138
30789ION     NA47637   6.680  11.662  10.708  0.2513 -0.2983 -0.2211
30790ION     NA47638   8.011   9.026   5.470 -0.0450  0.3743 -0.0979
30791ION     NA47639  16.968  14.511  10.492 -0.3269  0.1367  0.1008
30792ION     NA47640  11.464   6.596  10.964  0.1554 -0.1484 -0.1392
30793ION     NA47641  12.759  14.549   5.412 -0.1833 -0.0139  0.0070
30794ION     NA47642  16.390  12.788  14.655 -0.0082 -0.3225 -0.0214
30795ION     NA47643  17.842  11.790   4.285 -0.0367 -0.0435 -0.0605
30796ION     NA47644  15.181   1.803  12.262 -0.1873  0.2539 -0.0542
30797ION     NA47645   6.560   1.003   6.054 -0.1734 -0.0693 -0.0939
30798ION     NA47646  10.878   3.977   1.556  0.0470 -0.1350  0.1906
30799ION     NA47647   5.855   9.124  11.181 -0.0575  0.0392  0.0276
30800ION     NA47648   4.313   0.368  14.776 -0.1851  0.1475 -0.0461
30801ION     NA47649  12.605  16.989   4.937  0.0716  0.0710  0.1333
30802ION     NA47650   2.887   8.357   5.657  0.1522 -0.2660  0.3051
30803ION     NA47651   8.883   3.264   6.017 -0.1619 -0.0574  0.2321
30804ION     NA47652   8.119   6.564   6.016  0.0123  0.2037  0.2709
30805ION     NA47653   6.439   7.711  15.644 -0.0341  0.1333  0.0822
30806ION     NA47654   5.095  14.175  10.586  0.1877  0.2560 -0.0480
30807ION     NA47655  15.745   6.023   5.766 -0.1835  0.1120  0.0734
30808ION     NA47656  17.069   5.222  15.121  0.0784 -0.0028  0.2220
30809ION     NA47657  16.456   5.229   5.944 -0.1049  0.2249  0.2425
30810ION     NA47658   4.983  15.071  10.655 -0.3279 -0.0800 -0.2290
30811ION     NA47659   1.426   5.170   5.876 -0.0847  0.3631  0.1991
30812ION     NA47660   3.760   4.258   5.529  0.0533  0.1458  0.1192
30813ION     NA47661   3.673  13.513  15.389  0.0924  0.0393  0.1955
30814ION     NA47662  16.145   2.771  10.926  0.0391 -0.0911  0.4104
30815ION     NA47663  15.569  13.702  11.744 -0.0579  0.2734  0.3695
30816ION     NA47664  11.883   2.608   6.041  0.3988 -0.0057  0.1402
30817ION     NA47665  13.418  11.316   5.815  0.0110  0.0297 -0.2779
30818ION     NA47666  11.891   2.056   4.435 -0.1195 -0.1570  0.0366
30819ION     NA47667   1.199  12.084   6.074 -0.0853 -0.3629 -0.2738
30820ION     NA47668   7.115   7.576  10.575  0.1627  0.1773  0.2674
30821ION     NA47669   4.325   6.650   5.846  0.0947 -0.0923 -0.0038
30822ION     NA47670  15.931   3.822  10.762  0.0909  0.2091 -0.0802
30823ION     NA47671  14.657   0.280  10.931  0.1641 -0.0762  0.0483
30824ION     NA47672   0.458  11.340  10.516  0.1328  0.3654 -0.1736
30825ION     NA47673   0.538   9.084  11.052  0.2659  0.1208  0.0977
30826ION     NA47674   8.593  14.145   6.202 -0.3706 -0.1347 -0.0620
30827ION     NA47675  13.932   4.152   6.462  0.0890  0.0958 -0.2436
30828ION     NA47676  13.770   5.996   3.078  0.2822  0.0252 -0.1173
30829ION     NA47677  16.407   4.217   5.937  0.0210 -0.0567 -0.1531
30830ION     NA47678   1.461  12.730  15.158 -0.2180 -0.6016 -0.1595
30831ION     NA47679  16.009  13.722   6.103  0.0911  0.0409 -0.0542
30832ION     NA47680   6.813   9.789  10.685 -0.2482 -0.1477  0.2063
30833ION     NA47681  12.677   8.622  11.254 -0.0490 -0.1882 -0.2179
30834ION     NA47682   8.621  17.405  10.765 -0.3123 -0.2536 -0.1175
30835ION     NA47683  12.341  13.059   5.954  0.1024  0.1414 -0.0268
30836ION     NA47684   5.683   8.700  10.790  0.0108  0.2707 -0.0868
30837ION     NA47685   8.937   4.296  10.780  0.1963  0.2072 -0.2451
30838ION     NA47686  10.326  15.308   2.385 -0.0689 -0.1408  0.1898
30839ION     NA47687  17.046   6.844  10.381  0.0235 -0.2137  0.0795
30840ION     NA47688  10.811   5.286   6.088 -0.0548 -0.2161 -0.0235
30841ION     NA47689  15.097  15.218   5.805 -0.2737 -0.2330 -0.0299
30842ION     NA47690  11.646   5.572  15.873  0.0976 -0.1010  0.3137
30843ION     NA47691   7.073   0.177   5.947  0.1660 -0.1836  0.2605
30844ION     NA47692   9.939  13.416   4.236  0.1219  0.0364  0.1073
30845ION     NA47693  17.063   6.243  11.120  0.1512  0.1986  0.2347
30846ION     NA47694   9.540   1.707  13.773 -0.1141  0.0729  0.0533
30847ION     NA47695   1.199   7.256   5.796 -0.1187 -0.1901 -0.3503
30848ION     NA47696  17.275   3.341  10.657 -0.3270 -0.0756  0.5741
30849ION     NA47697   9.146  16.984  10.926  0.0102  0.1623 -0.0164
30850ION     NA47698  14.172   9.577   5.808  0.2139 -0.3634 -0.0683
30851ION     NA47699  16.312   8.645  10.700 -0.1299 -0.1542  0.1234
30852ION     NA47700   2.753   3.519  10.562 -0.3454 -0.0265 -0.0883
30853ION     NA47701   3.028  13.666  11.008  0.3009 -0.0019  0.0697
30854ION     NA47702   2.017   7.977   2.426  0.0822 -0.0853  0.0042
30855ION     NA47703  16.931   8.304   5.732 -0.0473 -0.0362 -0.1180
30856ION     NA47704   6.649   2.597  11.545 -0.0538 -0.1592 -0.1543
30857ION     NA47705  11.319  15.122  14.500  0.2403  0.2480  0.0694
30858ION     NA47706  10.818   1.955   5.875  0.2473 -0.2356 -0.1968
30859ION     NA47707   3.588  16.068   5.078 -0.0028 -0.0793 -0.1641
30860ION     NA47708  17.661   9.140  10.550  0.2251 -0.1470  0.2671
30861ION     NA47709  10.771   3.456   5.983 -0.0316  0.0152 -0.1753
30862ION     NA47710  11.929   5.831  10.591  0.1364  0.0188  0.2501
30863ION     NA47711  12.269  12.753  11.415 -0.0724 -0.2624  0.1848
30864ION     NA47712  14.995  11.115   0.574 -0.1180 -0.1449  0.0210
30865ION     NA47713  17.413   0.876   6.002  0.2955  0.4658 -0.4825
30866ION     NA47714  16.580   8.405   2.960 -0.0259 -0.1334  0.1322
30867ION     NA47715  11.476   7.528   3.918  0.2521 -0.2143  0.0946
30868ION     NA47716   0.250   3.455  13.051 -0.2821 -0.0953 -0.1768
30869ION     NA47717   4.762  16.665   6.169 -0.0539  0.0038  0.1230
30870ION     NA47718   4.906  15.781   6.300 -0.0332  0.0300  0.1636
30871ION     NA47719  11.611   0.916   6.109 -0.0423  0.0255 -0.2149
30872ION     NA47720   0.154   6.780   5.827  0.1927 -0.0015 -0.0289
30873ION     NA47721   9.761   6.705   5.946 -0.0913  0.0620 -0.0395
30874ION     NA47722   3.556   2.093   5.884 -0.1413  0.1354 -0.1245
30875ION     NA47723   6.476  13.285   6.169 -0.3663 -0.0992 -0.0747
30876ION     NA47724  10.726  15.992  10.725 -0.1681  0.3985 -0.0398
30877ION     NA47725  15.929  16.265   2.436 -0.1203 -0.1670 -0.2436
30878ION     NA47726   7.463   5.957   0.159 -0.2893 -0.0231 -0.0348
30879ION     NA47727   3.094  15.989   6.504 -0.0293  0.1622 -0.0241
30880ION     NA47728   0.957   7.339  12.222 -0.1424  0.0291  0.1507
30881ION     NA47729   7.464   6.049   5.753  0.3251  0.2623 -0.1918
30882ION     NA47730  11.417  12.389   4.143  0.0685  0.2080  0.1163
30883ION     NA47731   9.464  16.094  10.648  0.0556  0.0067 -0.1173
30884ION     NA47732  10.651   8.971   5.383 -0.2565 -0.0001 -0.0594
30885ION     NA47733  11.900   9.108  13.198  0.0065 -0.0321 -0.1684
30886ION     NA47734   1.032   1.809   3.929  0.1606 -0.3550 -0.2390
30887ION     NA47735  17.818  17.039  10.634  0.1449  0.0348 -0.1881
30888ION     NA47736   0.761  14.240  10.725 -0.1963 -0.1389 -0.1029
30889ION     NA47737   1.917  12.290   5.918  0.0341  0.0830  0.2117
30890ION     NA47738   9.262  16.856  11.400  0.0039 -0.1524 -0.2854
30891ION     NA47739   6.813   4.130  14.080 -0.0262 -0.1337  0.0507
30892ION     NA47740   7.943  13.221  16.409  0.0975  0.0394 -0.2763
30893ION     NA47741   5.127  11.064   5.386  0.2055 -0.1659  0.0916
30894ION     NA47742  16.294  14.519   6.238 -0.0694 -0.3724 -0.1840
30895ION     NA47743   8.655  13.750  10.755  0.1076  0.0109 -0.2613
30896ION     NA47744   0.009   4.398   5.791 -0.2549  0.2291 -0.2195
30897ION     NA47745   0.007   4.211  16.166 -0.2137 -0.1001 -0.1406
30898ION     NA47746   4.255   9.265  15.253  0.2296  0.1341  0.3949
30899ION     NA47747   5.505  17.831  10.484 -0.0063  0.1014 -0.1799
30900ION     NA47748   8.402  16.147   4.038  0.0612 -0.1363  0.2236
30901ION     NA47749  13.559  14.230  11.337  0.0407 -0.0362 -0.2419
30902ION     NA47750   9.319   6.933  10.753  0.1727  0.0866  0.0844
30903ION     NA47751  12.424  10.828  10.834  0.2672  0.0548 -0.0685
30904ION     NA47752   2.774  17.117  15.914  0.0680  0.0873  0.0580
30905ION     NA47753  14.022   1.035  15.888  0.0939 -0.1535  0.2607
30906ION     NA47754  13.552   1.225   6.208  0.0372  0.0000 -0.1088
30907ION     NA47755   5.630   1.268   3.412  0.0797 -0.1081  0.1227
30908ION     NA47756  14.371   2.118  11.079  0.2420 -0.0119  0.0591
30909ION     NA47757   4.134  15.453  10.774  0.1114  0.3008 -0.1180
30910ION     NA47758   8.821  10.930  13.724  0.1139  0.5221  0.0942
30911ION     NA47759   5.949   9.315   5.833 -0.3573  0.1669 -0.0044
30912ION     NA47760   2.925   0.209  10.672  0.1418  0.1424  0.1133
30913ION     NA47761  12.842  16.485  11.364 -0.2881 -0.4041  0.1578
30914ION     NA47762  16.790   9.210   5.956 -0.2493 -0.2662  0.3939
30915ION     NA47763   3.259   2.967   4.124 -0.2859  0.1389  0.0983
30916ION     NA47764  12.197  15.738   4.547 -0.2543  0.1126 -0.0703
30917ION     NA47765   8.214  16.551   0.994  0.1057  0.0039  0.1978
30918ION     NA47766   4.818   3.470   5.605  0.0746 -0.0930  0.0509
30919ION     NA47767  12.866  10.520  10.803  0.3158 -0.6848 -0.1955
30920ION     NA47768  12.731   0.534  10.772 -0.1543  0.2294  0.0845
30921ION     NA47769   4.574   6.119   5.833  0.0380 -0.2715 -0.1603
30922ION     NA47770  11.639  17.308  11.661  0.0373 -0.2980  0.1001
30923ION     NA47771  17.531   8.822   5.720  0.2525  0.0558 -0.0640
30924ION     NA47772  16.931  13.173  15.287 -0.0284 -0.2139 -0.0637
30925ION     NA47773   1.138  12.740   0.372  0.2685 -0.0100  0.1354
30926ION     NA47774  15.711  11.924  11.166 -0.1194 -0.1929 -0.2028
30927ION     NA47775  11.960  15.092   5.660  0.0762 -0.0366 -0.2897
30928ION     NA47776  11.305   3.349  16.349  0.2350  0.5144 -0.0585
30929ION     NA47777   7.699  15.883   5.998 -0.0527  0.1543 -0.0623
30930ION     NA47778   6.505   7.681   5.088  0.3895  0.1403 -0.1160
30931ION     NA47779   4.093   2.129  10.496  0.4380 -0.2741 -0.2553
30932ION     NA47780   8.742  11.481  10.811 -0.1587 -0.2835 -0.1513
30933ION     NA47781   5.911   3.025  11.121  0.5022  0.0092  0.3680
30934ION     NA47782  14.360   7.926   5.834  0.4629  0.0353  0.0237
30935ION     NA47783   3.278   6.706  10.393 -0.2369  0.2872 -0.0229
30936ION     NA47784   3.885   3.380   4.809  0.2351  0.3860 -0.0202
30937ION     NA47785   6.197   8.364   6.012  0.1770 -0.2212 -0.2757
30938ION     NA47786   5.033  13.519   6.325 -0.1522  0.0043  0.1372
30939ION     NA47787   0.149   4.081  11.243 -0.0195 -0.2374  0.1926
30940ION     NA47788   3.705   4.965  10.326 -0.0852 -0.1928  0.4207
30941ION     NA47789   6.623  17.118   5.657 -0.0739 -0.2948  0.2087
30942ION     NA47790  17.269  14.833   6.065 -0.1884 -0.1261  0.2043
30943ION     NA47791   7.280   4.170  10.760  0.0449  0.1985 -0.0463
30944ION     NA47792   2.302  17.511   0.110 -0.1145 -0.2970  0.0381
30945ION     NA47793  17.283   3.878   0.458  0.3310 -0.1632  0.3278
30946ION     NA47794   6.229   2.789   1.398 -0.2473 -0.2025 -0.0866
30947ION     NA47795  16.022   1.126  14.321  0.2739  0.0311  0.1560
30948ION     NA47796   6.971   6.640   6.021 -0.1248  0.1515 -0.0362
30949ION     NA47797  13.350  15.511  10.976 -0.1263  0.2790  0.1267
30950ION     NA47798   3.565   4.391  15.437 -0.0758  0.1584  0.2581
30951ION     NA47799   6.939  11.948   4.195  0.0335  0.0382 -0.1624
30952ION     NA47800   2.797   9.282  15.439  0.1459 -0.2890 -0.0121
30953ION     NA47801  16.466   5.738  10.565  0.0056 -0.1727 -0.0018
30954ION     NA47802  10.324   7.681   5.892  0.3405 -0.0311 -0.1860
30955ION     NA47803   3.712   1.105   5.711  0.0811 -0.1255 -0.0101
30956ION     NA47804  14.478  12.300  13.209  0.2922  0.2432  0.3615
30957ION     NA47805   2.822  17.325  10.867  0.1169  0.0348 -0.2839
30958ION     NA47806  10.607   4.519  10.536  0.2752  0.0638 -0.0650
30959ION     NA47807  16.894  15.693  10.732  0.1964  0.0271 -0.1254
30960ION     NA47808  13.598   5.906  10.456 -0.3906 -0.1003 -0.1429
30961ION     NA47809   2.120  12.037  10.671  0.0117 -0.3310 -0.0781
30962ION     NA47810   2.992   9.522  10.965 -0.1890 -0.2949 -0.1559
30963ION     NA47811  13.470  12.214   5.826  0.2393  0.0038  0.0163
30964ION     NA47812   3.071  15.385  11.168 -0.2560  0.2503  0.1896
30965ION     NA47813  13.983  12.756  14.530  0.1414  0.0324 -0.1838
30966ION     NA47814   0.975   3.023   6.038  0.0373 -0.0054  0.0625
30967ION     NA47815   3.535   7.871  14.040 -0.2114 -0.1776  0.0484
30968ION     NA47816   5.850  16.156   5.803  0.1472 -0.2104 -0.2527
30969ION     NA47817  10.663   4.128   4.651 -0.1677 -0.1265 -0.0751
30970ION     NA47818   8.304   7.215  10.552  0.0104  0.1804 -0.4136
30971ION     NA47819   9.877  11.438   2.922 -0.2298  0.0239 -0.2708
30972ION     NA47820   9.888   1.335  10.966  0.0776 -0.3206  0.2124
30973ION     NA47821   9.938  16.309  10.793 -0.5163  0.0182  0.4216
30974ION     NA47822   3.338   4.286  10.458  0.2176  0.0273  0.0716
30975ION     NA47823   8.341  11.538   2.306 -0.0567  0.0406 -0.3363
30976ION     NA47824   3.284   3.316   0.434  0.1342  0.0903 -0.2533
30977ION     NA47825  13.577  11.806   0.843 -0.1225  0.1650 -0.0263
30978ION     NA47826  17.057  10.694   4.090 -0.0923 -0.1252 -0.2196
30979ION     NA47827   9.465   6.994   1.201  0.1234 -0.2997 -0.0036
30980ION     NA47828   3.773  12.636  10.932 -0.3395 -0.2294 -0.4785
30981ION     NA47829   5.803  14.664  10.586 -0.2462  0.0955 -0.0912
30982ION     NA47830   7.326  13.075   6.266  0.2289  0.2622  0.2680
30983ION     NA47831   2.560  11.275  12.089  0.0036 -0.0633  0.0833
30984ION     NA47832   1.366   0.906  10.873 -0.1142  0.0976 -0.0509
30985ION     NA47833  14.827  16.778  13.550  0.3107 -0.1914 -0.2652
30986ION     NA47834   0.247   8.376  10.600  0.0419 -0.2340  0.0372
30987ION     NA47835   9.752   8.996   5.770  0.3192  0.0292  0.0651
30988ION     NA47836  12.927  14.510   5.868  0.1243 -0.3291 -0.1685
30989ION     NA47837   6.633   1.826   6.173 -0.0342 -0.0820 -0.2841
30990ION     NA47838   0.851   8.551   5.747 -0.0678 -0.1755 -0.1457
30991ION     NA47839   9.167  16.626   5.535 -0.0971 -0.3025  0.0038
30992ION     NA47840  16.570   1.109   6.180  0.1086 -0.1298 -0.1601
30993ION     NA47841  11.493  10.714  10.664 -0.3728  0.2165  0.0619
30994ION     NA47842   3.436  16.005   0.669  0.4573 -0.1827  0.2718
30995ION     NA47843  10.690  16.373   3.363  0.0731 -0.2824  0.0054
30996ION     NA47844  15.401  16.486  10.880  0.1632  0.0684  0.2931
30997ION     NA47845   3.710   0.903  15.080 -0.1125 -0.1059  0.0089
30998ION     NA47846  16.306   3.773  15.131 -0.0487  0.5499 -0.0688
30999ION     NA47847  10.620  11.741  10.848 -0.1080  0.0594 -0.0310
31000ION     NA47848  12.050  16.300   2.219  0.2133  0.1238 -0.1403
31001ION     NA47849  10.902  16.695  10.787  0.1935 -0.1131 -0.1332
31002ION     NA47850   1.729   9.713   5.987  0.0057  0.1866  0.0438
31003ION     NA47851   0.336   5.829   5.414  0.3782  0.1089  0.0293
31004ION     NA47852   3.460  14.030   3.707 -0.5964  0.1771 -0.2198
31005ION     NA47853   7.713   8.640  10.744  0.1866  0.0286 -0.0734
31006ION     NA47854  16.616  12.907  11.161  0.2155  0.0584 -0.0952
31007ION     NA47855   0.893  15.704   6.130 -0.0983  0.0272 -0.1194
31008ION     NA47856   4.369   7.573   5.972  0.1276  0.2023 -0.4477
31009ION     NA47857  16.981   7.497   5.722  0.0009  0.0610  0.1776
31010ION     NA47858   5.353  10.406  10.716 -0.1532  0.2497  0.1397
31011ION     NA47859   2.549   3.534   4.942  0.0788 -0.0447  0.1579
31012ION     NA47860  13.877  10.415   5.998 -0.1389  0.2594  0.0636
31013ION     NA47861   8.728   6.989  10.737  0.2431  0.0420 -0.0085
31014ION     NA47862   9.924   7.596   5.568 -0.0120  0.2304 -0.0702
31015ION     NA47863   8.151  11.519   5.966  0.0285 -0.1372  0.0995
31016ION     NA47864   1.113   8.315   4.837 -0.1554 -0.2192  0.0554
31017ION     NA47865  11.204  14.175   5.987 -0.0952  0.1050  0.1989
31018ION     NA47866   9.008   8.907   0.283 -0.2042 -0.1522 -0.2342
31019ION     NA47867  15.377   5.399  10.577 -0.0317 -0.4550 -0.0328
31020ION     NA47868   4.522   1.639  16.442  0.0779 -0.3596  0.0351
31021ION     NA47869   1.521  11.167   0.880  0.2378 -0.2093  0.0508
31022ION     NA47870   3.959  15.567   6.199 -0.0322 -0.3403 -0.3817
31023ION     NA47871   7.651   4.575   5.760 -0.0999  0.0268 -0.2121
31024ION     NA47872   0.676  12.420   3.316 -0.0582 -0.0998 -0.1272
31025ION     NA47873   9.421   2.600  10.852 -0.2178 -0.4577  0.2320
31026ION     NA47874   2.942   4.327   0.883  0.0891  0.2439 -0.0173
31027ION     NA47875  12.253  16.836   5.801 -0.0791  0.0673 -0.1088
31028ION     NA47876   5.752   8.126  11.930 -0.0391 -0.1984  0.0205
31029ION     NA47877   4.920  17.225   5.993  0.0232  0.2259  0.3607
31030ION     NA47878   9.544  15.317  11.579 -0.1486  0.2809 -0.0517
31031ION     NA47879   4.882  12.398   1.508 -0.0416  0.1028  0.2374
31032ION     NA47880  17.699  11.982   5.786  0.1241  0.4157 -0.1600
31033ION     NA47881   4.440  16.909  10.885  0.4018 -0.1133  0.2387
31034ION     NA47882   1.041  14.269   6.144 -0.2305  0.1894  0.2362
31035ION     NA47883  12.123  14.115  10.634 -0.4046  0.0046 -0.1271
31036ION     NA47884  13.108   3.965  10.731  0.2362 -0.1657 -0.1132
31037ION     NA47885   3.299  12.177   1.443  0.2468  0.0605 -0.1289
31038ION     NA47886   0.389   3.407  10.624 -0.1317 -0.2251  0.1992
31039ION     NA47887  13.521   8.298   5.520  0.0706 -0.0013  0.1385
31040ION     NA47888  13.814   9.441  10.662 -0.1457 -0.3693  0.1023
31041ION     NA47889   8.501   6.099  12.272  0.3004 -0.4738 -0.1458
31042ION     NA47890   5.011   0.269   1.918  0.1771  0.3787  0.1825
31043ION     NA47891  12.003  15.916   5.872 -0.1561 -0.0197  0.1934
31044ION     NA47892  12.902  17.162   5.417 -0.2062  0.2087  0.1445
31045ION     NA47893  15.241   4.011   6.135 -0.1006 -0.0793  0.3196
31046ION     NA47894   8.277   9.834   5.573 -0.0344 -0.2505 -0.0265
31047ION     NA47895  10.013  12.529  10.620 -0.0661  0.1495 -0.2557
31048ION     NA47896  15.072   9.069   5.804 -0.0060  0.0873  0.1438
31049ION     NA47897   8.539  11.916  10.577  0.0948 -0.0622 -0.0471
31050ION     NA47898  10.611  11.237  10.726 -0.0891 -0.1192  0.0778
31051ION     NA47899  14.979  12.117   5.315 -0.0550  0.0332 -0.0615
31052ION     NA47900  11.810  17.561   5.954 -0.1578 -0.1027  0.0509
31053ION     NA47901   8.161  16.713  10.790  0.0248 -0.3704  0.0569
31054ION     NA47902  11.359   4.312  16.012  0.1759  0.1172 -0.0996
31055ION     NA47903  13.521  16.048   5.978  0.0002  0.5193 -0.2368
31056ION     NA47904   4.599   0.871   6.036  0.1962  0.0571 -0.2055
31057ION     NA47905  16.949  10.772  13.976  0.0975  0.1331  0.0569
31058ION     NA47906   6.547   5.564  10.242  0.2277 -0.0836  0.1239
31059ION     NA47907   9.530  10.764   3.587  0.3001 -0.0514 -0.4278
31060ION     NA47908  11.081   8.378   6.078  0.0308  0.3673  0.3890
31061ION     NA47909  11.931   7.213  10.560 -0.1255 -0.1291  0.1744
31062ION     NA47910  12.397   6.507   6.175  0.1985  0.3013  0.1356
31063ION     NA47911   4.909  11.737   6.025  0.1606 -0.1800  0.1227
31064ION     NA47912   7.188  14.215  10.864  0.0037 -0.4470  0.3688
31065ION     NA47913  13.566   0.634  11.325 -0.2636 -0.2251 -0.3192
31066ION     NA47914   0.033  10.334  10.674 -0.1958  0.3964 -0.1897
31067ION     NA47915   2.926   8.696  10.647  0.0026 -0.1111 -0.0868
31068ION     NA47916  10.456   2.432  11.051 -0.0109  0.3282 -0.2564
31069ION     NA47917   3.617  12.074  15.586  0.0576 -0.1360 -0.2841
31070ION     NA47918  15.534   5.926  10.707  0.0740  0.2439  0.0265
31071ION     NA47919   1.392   9.241  10.422  0.4535  0.0383 -0.1915
31072ION     NA47920  17.720  10.579   5.901  0.2687  0.0710  0.2253
31073ION     NA47921   1.476  14.691  10.846  0.1808  0.1214 -0.0229
31074ION     NA47922  12.346  13.308  10.734  0.1640 -0.1919  0.0831
31075ION     NA47923  13.103   0.516   6.290  0.2359  0.2859 -0.0934
31076ION     NA47924   3.186   3.398   5.958 -0.0460  0.0197 -0.0590
31077ION     NA47925  12.283  17.490   1.140 -0.0830  0.2168 -0.3488
31078ION     NA47926  10.280  13.854   5.969 -0.1814 -0.3324  0.1943
31079ION     NA47927   7.494  16.791   5.867  0.1917  0.2403  0.5516
31080ION     NA47928   8.980  13.055  16.240  0.2853  0.1055 -0.0810
31081ION     NA47929  11.011  17.264   5.705  0.0001  0.2681 -0.1020
31082ION     NA47930   1.733   3.470  10.330 -0.1041 -0.0939  0.0481
31083ION     NA47931   8.922   7.903  10.668 -0.0136  0.4050 -0.1273
31084ION     NA47932  12.637   8.814   5.745  0.0113 -0.2755 -0.0527
31085ION     NA47933   8.631   1.915   5.945 -0.2003  0.1753  0.1775
31086ION     NA47934   0.313   7.849   3.580  0.1052  0.2963 -0.3661
31087ION     NA47935   4.545   8.188   2.141  0.1503 -0.2020  0.0206
31088ION     NA47936  16.562  16.564  16.270 -0.2621 -0.0633 -0.0082
31089ION     NA47937   5.478  12.794   6.399  0.0990  0.3932 -0.1356
31090ION     NA47938  12.337   2.705  13.824  0.1893 -0.2035 -0.3154
31091ION     NA47939   4.426   5.365  10.192  0.1541  0.2058  0.1422
31092ION     NA47940   8.079   2.300  14.918 -0.0836  0.0200 -0.2406
31093ION     NA47941   5.867  12.823  10.682  0.3333  0.1467 -0.0290
31094ION     NA47942   2.240  15.913   6.167  0.1381  0.3540  0.2193
31095ION     NA47943  10.507  16.912  11.077  0.1174 -0.2128  0.1349
31096ION     NA47944   1.199  13.946   4.450  0.2163  0.0964 -0.2065
31097ION     NA47945   7.436   3.559   5.838 -0.0277 -0.1231  0.0420
31098ION     NA47946  15.476   0.585  10.991 -0.0144 -0.0070 -0.0521
31099ION     NA47947  13.128   3.079  11.237  0.0806 -0.1355  0.2398
31100ION     NA47948   6.410   4.590   5.292 -0.2408  0.1776 -0.1960
31101ION     NA47949  17.127  11.608   0.863  0.2137  0.0697 -0.0942
31102ION     NA47950  15.995   8.822   5.945 -0.0952 -0.1535 -0.1243
31103ION     NA47951   3.757  12.976  16.256  0.0389 -0.4176  0.2546
31104ION     NA47952   7.543  12.937   5.681  0.1250  0.0732 -0.1889
31105ION     NA47953  15.777   1.330   6.401 -0.3400 -0.1653  0.4821
31106ION     NA47954  11.202   4.922  11.552  0.0487 -0.0629  0.0161
31107ION     NA47955  16.896  17.843   6.246 -0.0698 -0.1108  0.2626
31108ION     NA47956   2.211   8.258  10.874  0.0832 -0.0006  0.0184
31109ION     NA47957   9.777  14.544  10.881 -0.1443 -0.1120  0.0816
31110ION     NA47958   8.880   5.291  15.774  0.2129  0.0046 -0.2266
31111ION     NA47959   5.981   4.251   1.299 -0.1580  0.0200  0.1277
31112ION     NA47960  14.260   7.721  10.715 -0.0545  0.1014 -0.1332
31113ION     NA47961   9.061  11.739   5.846 -0.3193  0.4757  0.0276
31114ION     NA47962  17.761  17.509   5.895  0.0995  0.2896 -0.1225
31115ION     NA47963   2.428   4.194  10.517  0.0772 -0.1410 -0.1462
31116ION     NA47964   0.452   0.572   6.022  0.0176  0.1854  0.2621
31117ION     NA47965  17.640  12.753  10.272 -0.1318 -0.0890  0.2817
31118ION     NA47966   2.976  17.430  11.386 -0.0128  0.1148  0.2138
31119ION     NA47967   6.446  14.008   0.550  0.0942  0.3785  0.2074
31120ION     NA47968   3.888  11.555   5.930  0.3388 -0.1725 -0.2056
31121ION     NA47969   9.419   3.344   5.883 -0.0616  0.1499  0.1770
31122ION     NA47970   2.585  10.696  11.433 -0.2007 -0.2632 -0.3403
31123ION     NA47971   2.923   5.203  14.553  0.4094 -0.1506  0.5043
31124ION     NA47972  10.024   2.523  14.398  0.1784  0.1016 -0.1121
31125ION     NA47973   9.558   8.222   2.992  0.0468  0.0246 -0.1277
31126ION     NA47974   2.498  16.458   6.034 -0.1241 -0.2909 -0.0636
31127ION     NA47975  16.978  13.991   5.963  0.0630  0.0896 -0.0864
31128ION     NA47976  15.513  12.559   5.768 -0.0008 -0.2004 -0.2600
31129ION     NA47977  15.630   4.856   3.343  0.0806  0.0793  0.3624
31130ION     NA47978  16.063  14.450   3.384  0.1901 -0.1771  0.0444
31131ION     NA47979  15.896   0.897  15.596 -0.4577 -0.2369 -0.2132
31132ION     NA47980   1.705   2.507   1.798 -0.3305 -0.1268  0.0221
31133ION     NA47981  15.052  15.475  11.683  0.0716 -0.0528  0.4534
31134ION     NA47982   2.230  15.215   2.857 -0.1445 -0.2683  0.0704
31135ION     NA47983  12.289   6.253  10.673  0.0094  0.2555 -0.0192
31136ION     NA47984  13.426   6.370   5.962 -0.4672 -0.0301  0.0703
31137ION     NA47985   6.672  15.737   5.688  0.0055  0.0326 -0.1719
31138ION     NA47986  13.670   6.883   5.311  0.1253 -0.1054  0.0354
31139ION     NA47987   8.797  10.529  10.650 -0.1366 -0.2539  0.1494
31140ION     NA47988  13.894  14.829  10.940 -0.1424 -0.3507 -0.2343
31141ION     NA47989   8.876   9.309   5.850 -0.0316 -0.1150 -0.0166
31142ION     NA47990  16.565   6.520   5.957  0.3146  0.1283 -0.0891
31143ION     NA47991   2.768   6.391  10.369 -0.1077 -0.1827  0.0571
31144ION     NA47992   1.387   5.702  10.729  0.0592 -0.1313 -0.1125
31145ION     NA47993  12.312   4.586   5.915 -0.0802  0.3052  0.1243
31146ION     NA47994   0.871  10.545  10.584 -0.2944  0.0430 -0.0296
31147ION     NA47995  13.915   6.836  10.453 -0.1716 -0.1245 -0.2549
31148ION     NA47996   3.259   1.218  10.471 -0.1937  0.4217  0.1893
31149ION     NA47997   3.894   6.164   2.191  0.2315  0.4786 -0.2270
31150ION     NA47998  17.533   1.338  10.704 -0.1119  0.0459 -0.5430
31151ION     NA47999   2.720   2.815  13.653  0.0919 -0.0740 -0.1668
31152ION     NA48000  10.295  15.232  10.608 -0.0382 -0.1647 -0.1905
31153ION     NA48001   2.286   3.781   5.703 -0.1707  0.0850 -0.3554
31154ION     NA48002   5.178   8.634   4.634 -0.1000  0.1731 -0.1304
31155ION     NA48003   6.858   6.733  10.499  0.3115 -0.1333 -0.0066
31156ION     NA48004   0.960  14.661  15.895 -0.3942 -0.0208  0.0823
31157ION     NA48005   8.287  12.762  10.834  0.1691 -0.2247 -0.4611
31158ION     NA48006  13.552   2.349   6.531 -0.3238  0.0644 -0.0061
31159ION     NA48007   7.387   7.546  15.767 -0.0569  0.0056 -0.0845
31160ION     NA48008   0.035  15.721   5.952  0.0435 -0.2463 -0.1747
31161ION     NA48009   6.069   1.583  10.600 -0.2394 -0.2141 -0.0549
31162ION     NA48010   5.494   8.628   3.274  0.0066  0.2613 -0.1819
31163ION     NA48011   8.454  10.764   0.190 -0.2775  0.1905  0.0535
31164ION     NA48012   1.723   8.261   5.661  0.0307  0.4358  0.0983
31165ION     NA48013  12.223  17.741   5.580 -0.4925 -0.0269  0.0349
31166ION     NA48014   1.903  16.333  10.961  0.1893 -0.2238 -0.1902
31167ION     NA48015  17.392  13.502  10.566 -0.2963  0.3759 -0.2777
31168ION     NA48016   4.793   6.891   5.226  0.1102  0.1045  0.0094
31169ION     NA48017  11.341   6.068  10.672 -0.4524 -0.2833 -0.0432
31170ION     NA48018  12.752   5.040   6.133  0.0289  0.0062 -0.0325
31171ION     NA48019   2.996  11.724   2.067  0.0710 -0.0841 -0.1210
31172ION     NA48020   0.061  12.370  14.056 -0.0922 -0.2734  0.0069
31173ION     NA48021   8.463  13.937   5.776 -0.1016 -0.3389  0.0005
31174ION     NA48022   5.799  15.897  10.956  0.0532 -0.2291  0.0215
31175ION     NA48023   5.096   7.066  10.469  0.1847 -0.3461  0.6420
31176ION     NA48024  14.704   1.808   6.184  0.1781  0.1402  0.0388
31177ION     NA48025   5.246   3.939   5.048 -0.0416 -0.4525 -0.1476
31178ION     NA48026   2.358  14.258  11.052 -0.3036  0.1785 -0.0490
31179ION     NA48027   7.374   1.568   0.584 -0.1570 -0.2140 -0.2966
31180ION     NA48028  15.240   2.542  11.251  0.1742 -0.0742 -0.1770
31181ION     NA48029   0.958  10.100   6.008  0.1780  0.1163  0.0553
31182ION     NA48030  10.614  14.166  10.740  0.1786 -0.5186 -0.0595
31183ION     NA48031  13.793  11.024  10.963  0.0239  0.2305  0.1972
31184ION     NA48032   0.881   4.587   5.862 -0.2763 -0.0411  0.2516
31185ION     NA48033  15.074   2.645   6.557  0.0894 -0.0796  0.0194
31186ION     NA48034  14.265  12.091  10.758  0.1771  0.0438 -0.0077
31187ION     NA48035   1.160   8.550   1.033  0.0516 -0.0165 -0.1601
31188ION     NA48036   9.247   2.103  10.832  0.0275 -0.1859 -0.0920
31189ION     NA48037   3.443  14.594   6.453 -0.3552  0.0942 -0.0229
31190ION     NA48038  10.079  15.222   5.953 -0.0459 -0.0769 -0.1073
31191ION     NA48039   5.954  13.930   6.287  0.0292 -0.2475 -0.3535
31192ION     NA48040  17.158   5.412   3.489 -0.1515  0.3869 -0.0202
31193ION     NA48041   8.214   2.774   6.076  0.2894  0.1029 -0.0210
31194ION     NA48042   0.490  14.967   6.096  0.0061 -0.0340  0.6054
31195ION     NA48043  15.136  15.945  14.261 -0.0521  0.1990  0.1196
31196ION     NA48044   8.406  13.378   5.986  0.0930 -0.0185 -0.1113
31197ION     NA48045   0.591  11.025   4.715  0.3833  0.0535 -0.1698
31198ION     NA48046   6.561  10.124   5.573  0.1075  0.2004  0.1353
31199ION     NA48047  10.641   9.343   6.109 -0.0597  0.0955  0.1629
31200ION     NA48048   6.609   8.727  10.825  0.0301 -0.0636 -0.1509
31201ION     NA48049   2.804  12.244   6.067  0.0998 -0.0071  0.1484
31202ION     NA48050  16.568   9.465   0.988  0.2322  0.0568 -0.2194
31203ION     NA48051  15.145  14.400   1.809  0.0561 -0.2044  0.1245
31204ION     NA48052   6.356   8.967   4.982  0.1676  0.0283 -0.2052
31205ION     NA48053  10.798   0.702  10.608 -0.1215  0.1823  0.0289
31206ION     NA48054   3.753   7.119  10.540 -0.3204  0.2570  0.0302
31207ION     NA48055  16.067   3.245   6.332 -0.1747  0.1120 -0.3294
31208ION     NA48056  14.455   6.335   1.118 -0.0940  0.1134  0.2712
31209ION     NA48057   9.678  11.649  10.550 -0.1215  0.0153  0.1149
31210ION     NA48058   0.501  17.640   5.382 -0.1518  0.0530 -0.0849
31211ION     NA48059   2.211   1.769  15.470 -0.0723  0.1076 -0.0294
31212ION     NA48060   3.535  15.146  10.844 -0.0298  0.2127 -0.1054
31213ION     NA48061   5.982  16.915  13.408  0.0406 -0.1675 -0.3336
31214ION     NA48062   5.570  16.398   6.237  0.2317  0.0046  0.1007
31215ION     NA48063  15.128   1.690  11.153  0.0140  0.0579  0.2697
31216ION     NA48064   0.548  13.360  10.528  0.1655  0.2592 -0.1298
31217ION     NA48065   9.310  16.216  15.449 -0.1857  0.1973 -0.2281
31218ION     NA48066   0.143   7.260  10.213 -0.2592  0.0524 -0.0990
31219ION     NA48067  13.136   6.556  10.851  0.1300  0.3687  0.0680
31220ION     NA48068  12.070   7.305  12.188 -0.2093 -0.1021 -0.1686
31221ION     NA48069   6.183   7.347   6.106 -0.3739  0.2383 -0.2106
31222ION     NA48070   4.793   8.424  10.846  0.0154  0.0563 -0.0872
31223ION     NA48071  15.448  16.936   6.073 -0.2884 -0.2172 -0.0723
31224ION     NA48072  15.279   7.466   5.990  0.0558  0.0921 -0.0062
31225ION     NA48073   3.238  10.372   0.740 -0.1123  0.0637  0.4238
31226ION     NA48074  13.212   9.391   5.704  0.4131 -0.3088  0.1991
31227ION     NA48075   4.266   3.467  10.384 -0.0890  0.0674 -0.3171
31228ION     NA48076  17.086  12.837   5.848  0.4131 -0.0370 -0.3550
31229ION     NA48077  11.498   8.013   2.536  0.0878 -0.0245 -0.0394
31230ION     NA48078  10.925  15.159   5.779  0.0236  0.1395  0.0324
31231ION     NA48079  16.204   6.566  13.675  0.2047 -0.0215  0.0224
31232ION     NA48080   2.006   9.871  10.682  0.2463  0.2570  0.2589
31233ION     NA48081   8.217   3.162  10.837  0.3497 -0.0261  0.3399
31234ION     NA48082   5.466   3.864  11.949 -0.2931 -0.3365 -0.0334
31235ION     NA48083  16.503  13.860  15.969 -0.1272 -0.0060  0.2714
31236ION     NA48084  16.986  12.225   1.649  0.0935  0.0281  0.0209
31237ION     NA48085   3.641   7.148   6.042 -0.0036  0.3215 -0.0754
31238ION     NA48086  10.366   8.556   5.556 -0.2366 -0.0107  0.1999
31239ION     NA48087  12.571   3.301   6.064 -0.2641 -0.3702 -0.0441
31240ION     NA48088   4.384   7.818  10.909  0.2120  0.1197  0.1759
31241ION     NA48089   6.053   1.505   4.214 -0.0320 -0.0478 -0.0169
31242ION     NA48090  14.908   6.525   5.984  0.0446  0.2131  0.0969
31243ION     NA48091   6.555   4.609  10.306 -0.0821 -0.1347 -0.0991
31244ION     NA48092   2.603   4.947   5.598  0.0655 -0.1836 -0.0397
31245ION     NA48093  15.122  13.487   6.090  0.2265 -0.4495 -0.0612
31246ION     NA48094   9.056  12.286  10.431 -0.1955 -0.0873  0.1373
31247ION     NA48095  11.198  11.011   6.087 -0.0477  0.0550  0.3592
31248ION     NA48096   3.393   0.144   3.045  0.4207  0.0082  0.3682
31249ION     NA48097  12.834   5.198  10.697  0.1436 -0.1626 -0.2993
31250ION     NA48098   6.343   2.535   5.606  0.1721 -0.2110 -0.2595
31251ION     NA48099   5.605  13.733  10.410  0.1372  0.1000 -0.2369
31252ION     NA48100   7.809  17.466  10.845  0.0206  0.0604  0.1211
31253ION     NA48101  14.563  16.467   2.346  0.1111 -0.1652  0.2171
31254ION     NA48102   9.125   1.530   5.154  0.1041 -0.0187 -0.3786
31255ION     NA48103   8.735  15.985  13.801 -0.0202 -0.1755 -0.1260
31256ION     NA48104   6.414  16.590  10.876 -0.0343  0.2989 -0.0777
31257ION     NA48105   1.709  13.957  10.966  0.0369 -0.2429 -0.0501
31258ION     NA48106   1.018  15.993   4.227 -0.0307 -0.0064 -0.0094
31259ION     NA48107   9.670  15.360  15.924  0.0353  0.2462  0.1665
31260ION     NA48108   8.918   7.849   5.736  0.1258  0.0917 -0.2028
31261ION     NA48109  14.599  16.738  10.871  0.0684  0.3093  0.0607
31262ION     NA48110   3.475   2.118   3.913  0.1985  0.1624  0.2049
31263ION     NA48111  16.242   7.778  10.587  0.2643  0.2476 -0.0363
31264ION     NA48112   3.826   4.039   2.805  0.0915  0.0119  0.0191
31265ION     NA48113   1.919   4.569   2.363 -0.0536  0.1338 -0.0902
31266ION     NA48114   4.147   1.995   5.760 -0.3639 -0.0179 -0.0718
31267ION     NA48115   7.904   9.425   0.158 -0.1043  0.3090 -0.3849
31268ION     NA48116  14.506  15.327   5.903 -0.0958 -0.2670  0.0213
31269ION     NA48117   7.416  13.219  10.882  0.2503 -0.0551  0.0578
31270ION     NA48118  14.285  10.223  10.657  0.5047  0.2018 -0.1267
31271ION     NA48119   6.433  15.251  10.690  0.0174  0.2262  0.0442
31272ION     NA48120   3.789  16.971   5.035 -0.0232 -0.1779 -0.0624
31273ION     NA48121   7.678  14.156   6.109 -0.1880  0.0500 -0.2169
31274ION     NA48122   6.385   6.884  16.180  0.2708  0.2721  0.1177
31275ION     NA48123  13.659   4.672  11.112 -0.0724 -0.0845 -0.2313
31276ION     NA48124  14.419   3.635   6.477 -0.1774  0.0712 -0.2093
31277ION     NA48125  16.127  14.203  13.830  0.1864 -0.2433 -0.0709
31278ION     NA48126   7.346   9.694   5.714  0.0700 -0.0401  0.0183
31279ION     NA48127   4.135  10.698   5.856 -0.1508  0.1355  0.1366
31280ION     NA48128  17.456   6.014  14.086  0.1366 -0.0587  0.0041
31281ION     NA48129   1.934  17.281   6.325  0.0587  0.1501  0.1307
31282ION     NA48130   2.914   4.789   1.690 -0.1937 -0.3350 -0.2152
31283ION     NA48131  16.128  11.116  10.651  0.2078  0.0276  0.0631
31284ION     NA48132  10.105   6.628  11.029 -0.0038  0.1823 -0.1825
31285ION     NA48133  13.021  14.907   1.590 -0.3776 -0.1774 -0.0232
31286ION     NA48134  13.718   0.006   4.619 -0.2001 -0.1727  0.2435
31287ION     NA48135  10.494   3.372  10.646  0.0557  0.0552 -0.1998
31288ION     NA48136   1.593   6.484   5.630  0.3251  0.1047  0.1972
31289ION     NA48137  12.942  16.175  10.659 -0.1161 -0.2474 -0.1908
31290ION     NA48138   8.021   1.381   2.965 -0.1514  0.0225  0.2563
31291ION     NA48139   2.954  12.291  10.925  0.1842 -0.1332 -0.0052
31292ION     NA48140   8.503  15.523  10.658 -0.1677  0.1175 -0.3629
31293ION     NA48141  17.051  11.426  12.505 -0.1867 -0.2447  0.2017
31294ION     NA48142   3.713   3.030   2.310 -0.0607  0.1069 -0.2423
31295ION     NA48143  17.456   9.614   6.002 -0.1650 -0.0653 -0.0625
31296ION     NA48144  13.518  12.805  10.963  0.3207 -0.2376 -0.2346
31297ION     NA48145   5.582   3.967   5.486 -0.1958  0.0589  0.1569
31298ION     NA48146  16.042  17.285  14.080 -0.0482 -0.0787 -0.0282
31299ION     NA48147   9.446   8.567   5.676 -0.0718  0.1657  0.1785
31300ION     NA48148  17.787   4.357   1.236 -0.0438 -0.1570 -0.2843
31301ION     NA48149   8.322  17.113   5.756  0.0631 -0.0141 -0.1264
31302ION     NA48150   4.280   9.113   5.898  0.2797  0.0769  0.1211
31303ION     NA48151   9.072  14.743  10.645  0.0425 -0.3137 -0.1473
31304ION     NA48152  13.922   2.889  11.343 -0.1215 -0.0704 -0.0317
31305ION     NA48153   1.236   9.312  12.325  0.1045  0.3440 -0.0553
31306ION     NA48154   4.564   9.410   5.632  0.0065 -0.1352 -0.1243
31307ION     NA48155   4.653  14.831  15.266 -0.0513  0.1687 -0.0395
31308ION     NA48156   1.919  14.269   6.217 -0.1734 -0.0474 -0.1624
31309ION     NA48157  12.054  14.337   3.266  0.0903 -0.1217 -0.0190
31310ION     NA48158  17.423  11.928  10.640 -0.0506  0.0988 -0.2825
31311ION     NA48159  10.110  13.684  10.745 -0.0598 -0.0639  0.1183
31312ION     NA48160   2.259   0.259   6.192 -0.0564  0.0997 -0.0875
31313ION     NA48161  14.404   2.480  14.910 -0.3123  0.0196  0.2106
31314ION     NA48162   0.554  17.220  13.397  0.1797  0.2440 -0.0310
31315ION     NA48163  11.331  14.429  10.513 -0.3253  0.1874 -0.2198
31316ION     NA48164  14.916  11.519  10.739  0.1330  0.1426 -0.1618
31317ION     NA48165   2.803   1.087   6.214 -0.0669  0.2690 -0.2497
31318ION     NA48166   8.019  14.607  11.255  0.2595  0.1772  0.1694
31319ION     NA48167  14.934   4.707  10.837  0.0122 -0.1039 -0.0158
31320ION     NA48168   3.264  12.969   6.184  0.3221  0.0252 -0.1961
31321ION     NA48169   9.969   9.000  10.898  0.0582 -0.3029  0.2314
31322ION     NA48170   8.232  16.620  12.306 -0.1922  0.1404  0.1156
31323ION     NA48171   1.514  10.744  16.341 -0.0365  0.0761  0.1492
31324ION     NA48172  16.855   4.409   6.093 -0.0186 -0.2378 -0.0247
31325ION     NA48173  15.920   2.300   6.614  0.1856 -0.3026  0.0766
31326ION     NA48174   6.258  10.287  10.436  0.3866  0.3990  0.0013
31327ION     NA48175   0.031   0.285  10.794 -0.0302  0.0702  0.1809
31328ION     NA48176   4.558  12.027  10.877 -0.2120 -0.2955 -0.1127
31329ION     NA48177  14.750  10.564  10.771  0.1548  0.1234  0.1496
31330ION     NA48178  10.931   9.268  10.866  0.1076  0.1970 -0.1335
31331ION     NA48179   7.410  10.337  10.737 -0.3684  0.1550  0.0462
31332ION     NA48180  11.039  11.845   5.688  0.2663  0.0894  0.1765
31333ION     NA48181   1.409  13.218   1.642 -0.0801 -0.2938  0.3120
31334ION     NA48182  10.557  13.046   6.121 -0.1403 -0.0996  0.2807
31335ION     NA48183  15.629   7.042   5.962 -0.4031 -0.3897  0.1499
31336ION     NA48184   4.975   1.659   5.880  0.0787 -0.0827 -0.1850
31337ION     NA48185  10.399   5.139  11.919  0.0798 -0.2788 -0.0510
31338ION     NA48186  16.714  10.037  11.035 -0.0233  0.1490  0.1078
31339ION     NA48187   4.047   1.880  15.105  0.2124 -0.1243 -0.1092
31340ION     NA48188   5.312   0.294  13.591 -0.3799  0.1952  0.0486
31341ION     NA48189   1.380  16.137  10.876 -0.0479  0.3567 -0.1002
31342ION     NA48190   3.354  10.853  10.617  0.2631 -0.0055  0.1041
31343ION     NA48191  17.681  12.769  15.096 -0.2904  0.3373  0.2075
31344ION     NA48192  14.943   8.914  10.624 -0.0894  0.2202 -0.1102
31345ION     NA48193   7.480   8.216   5.742  0.0713  0.3225 -0.0980
31346ION     NA48194   7.398   5.115  10.382  0.0462  0.2444 -0.1067
31347ION     NA48195   0.306   9.431   5.678 -0.2217  0.2244 -0.0843
31348ION     NA48196  13.701  16.359  11.014  0.0898  0.0517 -0.0392
31349ION     NA48197   0.974  11.464   3.672 -0.1009  0.0691  0.2090
31350ION     NA48198   9.756  17.596  10.757  0.1143  0.3670  0.1163
31351ION     NA48199  16.261  16.819   6.023  0.3929  0.1740 -0.1416
31352ION     NA48200   7.614   2.322  10.706 -0.0770  0.0423  0.1912
31353ION     NA48201  14.484   0.768   6.144  0.0413  0.3454  0.0658
31354ION     NA48202   2.613  15.099   6.130  0.1221 -0.3035  0.1612
31355ION     NA48203   9.503   1.579   6.065  0.1247 -0.0103  0.2747
31356ION     NA48204  12.406  12.256   0.282 -0.1531 -0.0650  0.0574
31357ION     NA48205   3.614   8.542   5.905 -0.1772 -0.1527  0.0510
31358ION     NA48206  17.715  12.144   2.453  0.0272 -0.2267 -0.1565
31359ION     NA48207  10.621   8.307  10.746  0.1492  0.0292  0.0188
31360ION     NA48208   1.306   1.504   6.299  0.1629 -0.1241  0.0534
31361ION     NA48209  16.971  11.457   5.252 -0.1050 -0.0848 -0.0601
31362ION     NA48210   0.747   1.679  10.544 -0.0086 -0.2562 -0.2903
31363ION     NA48211   0.346   8.916  14.291 -0.2224  0.1061 -0.0001
31364ION     NA48212  16.649  13.013   4.813 -0.0305 -0.1723  0.0712
31365ION     NA48213   6.868   2.174  10.513 -0.2429  0.1186  0.1713
31366ION     NA48214  13.642  16.865   6.055  0.0713  0.1719 -0.0981
31367ION     NA48215  14.742   7.067  10.587  0.0358  0.0805 -0.0041
31368ION     NA48216   6.907   5.373   5.355 -0.2913 -0.0448 -0.0701
31369ION     NA48217   4.036  11.654   5.447 -0.0450  0.0099  0.3950
31370ION     NA48218   0.508   4.770  10.593 -0.1437  0.1116  0.4431
31371ION     NA48219   5.470  11.431  10.840  0.1115 -0.1788 -0.2309
31372ION     NA48220   8.408   1.342   1.232  0.0069 -0.1565 -0.0327
31373ION     NA48221   2.912   7.971   4.639  0.1517 -0.2218 -0.1132
31374ION     NA48222   9.709   3.884  16.533 -0.3110 -0.3157  0.1903
31375ION     NA48223  16.824  11.771   6.021  0.0072 -0.0042 -0.2099
31376ION     NA48224  15.929   2.509   4.726 -0.0495 -0.0403  0.1677
31377ION     NA48225  10.922  14.110  15.178  0.1677  0.1917 -0.1232
31378ION     NA48226   4.542  14.887   6.622 -0.0427 -0.0827 -0.0286
31379ION     NA48227  10.702   7.028   1.845 -0.3648 -0.3002  0.3521
31380ION     NA48228  17.243  11.450   2.000 -0.0148 -0.2127  0.0054
31381ION     NA48229   9.363  14.591   5.852  0.0320 -0.1555 -0.0011
31382ION     NA48230   5.865   6.912  10.611  0.0423 -0.1945  0.0145
31383ION     NA48231  10.599   7.525   3.496  0.1933  0.2145  0.0653
31384ION     NA48232   3.101   7.996   3.161  0.2211  0.1413 -0.3988
31385ION     NA48233   3.812   6.142  10.176 -0.1228 -0.2811  0.0227
31386ION     NA48234   0.800   6.661  10.630 -0.0558  0.3560 -0.0130
31387ION     NA48235  12.823   7.511  10.761 -0.0912  0.3843  0.0747
31388ION     NA48236  10.882   1.533  10.885  0.1704 -0.0509  0.1817
31389ION     NA48237  13.808   3.255   6.147  0.1253 -0.1263 -0.1713
31390ION     NA48238   9.882   4.201   5.798  0.1724 -0.3512 -0.2029
31391ION     NA48239   3.195  13.808   6.140 -0.1335 -0.3898 -0.3836
31392ION     NA48240   2.416  17.395   6.207  0.1867 -0.1324 -0.0331
31393ION     NA48241   1.719  11.409   5.934  0.0593  0.2028  0.1676
31394ION     NA48242   8.777  12.498   6.005 -0.1974  0.0714 -0.1268
31395ION     NA48243   9.966   5.776   5.795 -0.1840  0.0901  0.0751
31396ION     NA48244   1.277   2.195  15.391  0.0014 -0.1814  0.0529
31397ION     NA48245   0.166   7.900   5.734 -0.0135  0.1120 -0.3580
31398ION     NA48246   4.051  16.195   3.312  0.3008  0.0639 -0.1029
31399ION     NA48247  12.643   2.431   6.420  0.2465  0.0172  0.1241
31400ION     NA48248   1.285  12.143  10.625  0.0553  0.2691  0.0879
31401ION     NA48249  16.236   4.909  10.599 -0.0049  0.2899  0.1011
31402ION     NA48250  11.831   6.574   6.284 -0.4446  0.0968  0.1395
31403ION     NA48251   4.089   0.842  10.761 -0.3912  0.1079  0.0903
31404ION     NA48252   0.465   5.506   1.552  0.2735  0.2027 -0.0820
31405ION     NA48253   3.715  15.733  11.757  0.0599 -0.2410  0.1689
31406ION     NA48254  12.898  15.657   4.694 -0.3760 -0.3179  0.0528
31407ION     NA48255   8.788  17.787  12.292 -0.1673 -0.2025  0.1661
31408ION     NA48256   4.623   7.858   5.726 -0.1287  0.0353 -0.1285
31409ION     NA48257   5.715   2.152   5.616  0.0416  0.0890 -0.1364
31410ION     NA48258  11.321  12.739   6.186  0.3712  0.1766  0.4320
31411ION     NA48259  15.404  11.373   5.843 -0.1356 -0.1350  0.0109
31412ION     NA48260  12.882   4.162   6.403 -0.0524 -0.0575  0.1507
31413ION     NA48261   8.176   3.632  10.765  0.2294  0.0532 -0.2800
31414ION     NA48262   4.884   6.122  10.469  0.2212 -0.3550 -0.0404
31415ION     NA48263   4.786   4.101  10.339  0.0478 -0.0232 -0.2850
31416ION     NA48264  14.797  16.963  14.894 -0.1235  0.1023 -0.1243
31417ION     NA48265  17.075   4.346  10.665 -0.2634  0.0590  0.3151
31418ION     NA48266   8.575  16.415  11.039  0.0979 -0.2833 -0.0130
31419ION     NA48267   6.359  10.536   5.706  0.2109 -0.0953  0.3888
31420ION     NA48268   4.539  13.655  10.526 -0.0146  0.1943 -0.0317
31421ION     NA48269  13.222   8.094   0.974  0.0848  0.4221  0.1876
31422ION     NA48270  17.236   8.953   3.380  0.2944  0.0820  0.3000
31423ION     NA48271   7.207   2.715  16.042  0.1918 -0.0420 -0.0045
31424ION     NA48272   5.347  12.147   6.100 -0.1511  0.2258  0.2446
31425ION     NA48273   5.045  15.129  13.734 -0.0307  0.2103 -0.1512
31426ION     NA48274   2.762  11.837  10.853  0.0449 -0.0473  0.0346
31427ION     NA48275  16.651   1.095  10.892 -0.1891 -0.0314 -0.1714
31428ION     NA48276   5.048   1.132   5.945  0.1509 -0.2455 -0.4049
31429ION     NA48277  15.147  12.630  10.968 -0.0059 -0.1178 -0.0312
31430ION     NA48278  15.658   5.765   2.751  0.2187  0.4048 -0.0420
31431ION     NA48279  12.513  14.977  10.995  0.0469  0.0091  0.0969
31432ION     NA48280   2.096  15.475  11.068 -0.1538  0.5741  0.1207
31433ION     NA48281  15.131  15.568  11.161 -0.0621  0.3286 -0.3197
31434ION     NA48282  11.004  13.486  10.501  0.0064 -0.1164  0.2035
31435ION     NA48283  17.697  16.306  10.479 -0.1616 -0.1057 -0.0737
31436ION     NA48284   9.790   9.767   6.015 -0.1577  0.0083  0.2055
31437ION     NA48285  11.806   5.403   6.063  0.2245  0.2424 -0.1370
31438ION     NA48286   7.031   8.054   2.846  0.1426 -0.1558 -0.1489
31439ION     NA48287   9.942   9.886  14.662 -0.0873  0.1237 -0.1983
31440ION     NA48288   4.330  16.874   6.404 -0.3379 -0.0457 -0.0543
31441ION     NA48289   0.822  15.731  12.834  0.2131  0.0117  0.0649
31442ION     NA48290   9.525   3.571  10.724  0.1919 -0.1118 -0.1929
31443ION     NA48291   2.667  13.907   6.100 -0.0417 -0.0488 -0.0005
31444ION     NA48292   4.398  10.653  10.679 -0.2425 -0.1052 -0.0751
31445ION     NA48293   9.541  15.756   5.222  0.2089 -0.0746  0.0880
31446ION     NA48294   9.271   5.995   5.815 -0.0676  0.0295  0.0052
31447ION     NA48295  17.744  13.371   6.057  0.0124  0.0359  0.0612
31448ION     NA48296   8.990  16.224   3.004  0.0083  0.2621 -0.1127
31449ION     NA48297   0.497  13.102   2.373  0.0231  0.2073  0.0945
31450ION     NA48298   2.845   9.176   5.844 -0.0329 -0.0599  0.0029
31451ION     NA48299  12.636  10.335  12.804 -0.0096  0.2333 -0.1388
31452ION     NA48300  10.598  17.173  15.898 -0.3368  0.1714 -0.0348
31453ION     NA48301   1.769   2.382   6.092 -0.1499  0.4129  0.1177
31454ION     NA48302   1.750   0.868   6.116  0.1655 -0.0519 -0.2591
31455ION     NA48303   1.695  12.924  10.875 -0.0587 -0.0543  0.0004
31456ION     NA48304   5.713  17.235   6.032 -0.0624 -0.0011  0.1451
31457ION     NA48305   8.943   5.212   5.802 -0.3079 -0.1039  0.1607
31458ION     NA48306  11.841   8.862  10.784 -0.3056 -0.2637  0.3540
31459ION     NA48307   5.722   7.199  13.008 -0.0804  0.0702 -0.1369
31460ION     NA48308   4.974   9.832  10.738  0.0285  0.0167 -0.1966
31461ION     NA48309  14.400   7.098   4.789 -0.0079 -0.1707 -0.2211
31462ION     NA48310  13.935  17.687  10.972  0.0573 -0.1295  0.0422
31463ION     NA48311  14.268   8.678   5.956  0.1575 -0.1170  0.0164
31464ION     NA48312   0.215  14.514  11.128 -0.0202 -0.2217 -0.2416
31465ION     NA48313   6.812  17.335  10.778 -0.1082 -0.2530 -0.1268
31466ION     NA48314  17.257   2.663   6.013  0.0966  0.1060 -0.1574
31467ION     NA48315   2.647   6.991   5.800  0.1534  0.0325 -0.0719
31468ION     NA48316   2.529  10.177   6.112  0.1627  0.0039 -0.1212
31469ION     NA48317   3.691  14.249  10.492 -0.1345  0.1222 -0.0766
31470ION     NA48318   3.864   9.995  10.698  0.1362 -0.4169 -0.0936
31471ION     NA48319   4.882   5.441  10.282  0.0712  0.0145 -0.1306
31472ION     NA48320   0.575  16.292  10.706  0.1776  0.1024 -0.2097
31473ION     NA48321   7.229   1.261   5.547 -0.2225  0.0769 -0.0054
31474ION     NA48322   2.688  13.214   5.385 -0.0103 -0.1424 -0.1925
31475ION     NA48323   3.187   3.463   1.397 -0.1530 -0.1327  0.2962
31476ION     NA48324  15.924  17.658  10.674 -0.0515  0.1753 -0.0030
31477ION     NA48325  15.304  11.126  10.868  0.1769  0.0929 -0.2658
31478ION     NA48326  13.995   2.076   6.417  0.1785  0.1464 -0.1827
31479ION     NA48327   1.976   7.299  11.138  0.1672  0.2247  0.1871
31480ION     NA48328   0.807  10.900   5.774  0.0368  0.0201 -0.0233
31481ION     NA48329  11.126  11.351   1.824  0.4181  0.2463  0.1030
31482ION     NA48330  16.876  17.204  10.717  0.0389 -0.1814  0.1033
31483ION     NA48331   5.230   8.736   6.069  0.0077  0.0775 -0.1358
31484ION     NA48332  12.146   1.624   6.252  0.0696 -0.0841 -0.2378
31485ION     NA48333   2.724   7.406  10.671 -0.1483  0.1263  0.0008
31486ION     NA48334   4.504  12.017  11.834  0.1237  0.2852  0.0582
31487ION     NA48335  16.245   1.907   6.443 -0.2484  0.3098  0.0680
31488ION     NA48336   9.283   1.149  13.050  0.2944  0.1698  0.0886
31489ION     NA48337  13.174   7.858   5.871  0.1806  0.0666 -0.2824
31490ION     NA48338   9.492  14.116   5.918  0.0167 -0.3611  0.0703
31491ION     NA48339   8.515   8.649  10.501  0.3209 -0.2455  0.2842
31492ION     NA48340   6.141   8.695   0.846 -0.2428  0.0192  0.0792
31493ION     NA48341  12.101  13.990   5.833 -0.0190  0.1567 -0.0008
31494ION     NA48342   3.703  17.083   6.236 -0.0547 -0.1493 -0.1700
31495ION     NA48343   6.730  16.223  10.695 -0.1998 -0.1485 -0.0716
31496ION     NA48344   4.740   6.827  16.565 -0.0616  0.2120 -0.1953
31497ION     NA48345  11.161  15.283  10.748  0.0757  0.0048  0.0178
31498ION     NA48346   8.665  15.848   1.044 -0.0481  0.1410  0.2781
31499ION     NA48347   7.331   8.957  16.304  0.1391  0.0209  0.0689
31500ION     NA48348   3.485   9.896   5.114  0.1321  0.3618  0.2889
31501ION     NA48349   1.353   3.116  10.432 -0.4074  0.1060  0.0897
31502ION     NA48350  12.114   0.643   6.191 -0.2280  0.1135 -0.0945
31503ION     NA48351   8.431   0.273  11.014  0.3150 -0.1640  0.2808
31504ION     NA48352   6.733  14.266   6.089  0.1786 -0.0748 -0.1915
31505ION     NA48353   3.095  10.278   2.092  0.2776 -0.0020  0.1906
31506ION     NA48354  15.867  11.610   6.034  0.0594 -0.2401  0.1500
31507ION     NA48355   0.605   8.783  10.580 -0.0586  0.0186  0.1180
31508ION     NA48356   7.342   4.532  15.657  0.4012  0.1314 -0.2406
31509ION     NA48357   7.588   0.668  13.642 -0.3484 -0.0638  0.1240
31510ION     NA48358   2.424  13.713  13.689 -0.3411  0.2511 -0.1069
31511ION     NA48359   9.474   6.499  11.047 -0.0084 -0.0434  0.0760
31512ION     NA48360  16.986   2.513  10.707  0.1178 -0.2269  0.0354
31513ION     NA48361  16.130   9.029   0.348  0.0639 -0.1158  0.2554
31514ION     NA48362  14.317  15.788  10.951  0.1158  0.2087  0.1404
31515ION     NA48363   7.528   0.573  11.055 -0.1444  0.0361 -0.2375
31516ION     NA48364   9.625  16.803   5.775  0.1128  0.0802  0.2007
31517ION     NA48365  13.094   0.173   1.435  0.0776  0.0172 -0.1936
31518ION     NA48366  10.862   0.775   1.677 -0.2047 -0.1716  0.1818
31519ION     NA48367  13.644   5.560  16.019  0.2870  0.1154  0.1735
31520ION     NA48368  12.581   6.459  16.019  0.0872  0.2748  0.3186
31521ION     NA48369   9.320   0.554  11.069  0.0014  0.0335  0.3668
31522ION     NA48370  16.905  17.515   5.869 -0.3615  0.0485  0.1123
31523ION     NA48371  16.946   7.733   1.884  0.1502 -0.0847 -0.0747
31524ION     NA48372  15.009  15.442  10.665 -0.0424 -0.3983 -0.3432
31525ION     NA48373  13.979  17.830   6.253 -0.2044  0.0496 -0.1735
31526ION     NA48374   2.575   5.898   5.590  0.0394 -0.0994  0.0526
31527ION     NA48375  14.641   5.478   5.049  0.0759 -0.0628 -0.3002
31528ION     NA48376   7.099   7.587   5.785  0.0387  0.1514  0.1483
31529ION     NA48377  15.321   8.097   6.037  0.1346 -0.2755 -0.2202
31530ION     NA48378   0.734  13.046   5.911 -0.0722  0.1910 -0.0790
31531ION     NA48379  12.066   7.916   6.047  0.0945  0.0098 -0.3034
31532ION     NA48380  17.704  13.977  10.587 -0.0058  0.0578  0.0729
31533ION     NA48381   6.067  14.308  10.766 -0.0964 -0.1306  0.2840
31534ION     NA48382  11.227  14.961   3.299 -0.1260 -0.3623  0.0547
31535ION     NA48383   2.851  16.600  11.030 -0.1829  0.0828  0.0248
31536ION     NA48384  11.511   1.009  10.906 -0.1566 -0.1800 -0.0739
31537ION     NA48385   5.517   0.338   5.863  0.3355  0.0465 -0.1413
31538ION     NA48386   8.346  14.165  10.603 -0.3813 -0.1265 -0.1583
31539ION     NA48387   9.927  12.367   6.261  0.2323 -0.0009  0.1051
31540ION     NA48388  11.318  16.155  14.647  0.0539 -0.2668 -0.3033
31541ION     NA48389   1.823  17.306  11.144 -0.0584  0.0848 -0.2907
31542ION     NA48390   7.052  11.146   5.764 -0.0384  0.4398  0.2731
31543ION     NA48391  14.210   1.162  10.996  0.3017 -0.1399  0.1179
31544ION     NA48392  16.194  10.060   4.558 -0.0018  0.0662  0.0589
31545ION     NA48393   9.550  11.031   5.943 -0.3100  0.1461 -0.0559
31546ION     NA48394   9.722  10.774  10.875 -0.0093 -0.0718  0.2574
31547ION     NA48395  10.006  17.738   5.805  0.1733  0.1138  0.0793
31548ION     NA48396  14.304  14.465   5.912 -0.0835 -0.1823 -0.0860
31549ION     NA48397   1.951   2.280  10.388  0.1255 -0.0462 -0.1461
31550ION     NA48398  16.297  12.794   5.994  0.1675 -0.0249  0.3671
31551ION     NA48399  11.807  11.601  10.765 -0.2429  0.0891  0.0727
31552ION     NA48400  14.561   5.665  10.417  0.1182  0.2585 -0.1262
31553ION     NA48401   6.968   7.307  14.459 -0.0843 -0.0455 -0.1764
31554ION     NA48402   4.642  12.687   6.139 -0.1029  0.0330  0.0078
31555ION     NA48403  10.720  10.129  11.032  0.1103  0.0532 -0.0722
31556ION     NA48404  16.009  10.439  10.613  0.2237 -0.2142 -0.0939
31557ION     NA48405  14.067  16.911  14.624 -0.1316 -0.2856 -0.1236
31558ION     NA48406   2.252   1.877   5.989 -0.2563  0.0168  0.0056
31559ION     NA48407   4.149  13.436   6.138  0.2772  0.1568 -0.0190
31560ION     NA48408  17.017  16.127  12.663 -0.0693  0.2210  0.0538
31561ION     NA48409  10.039  10.287  11.716  0.2711 -0.2420  0.0335
31562ION     NA48410  13.319   1.090  10.663 -0.3516 -0.0964 -0.1949
31563ION     NA48411   4.634  17.756  10.679 -0.1339 -0.1352 -0.0780
31564ION     NA48412   9.057  12.873  10.575  0.2156 -0.1623  0.1342
31565ION     NA48413   6.706  14.400  10.709 -0.1529 -0.0308  0.3007
31566ION     NA48414  11.070  17.553  10.881  0.1235  0.0799  0.2231
31567ION     NA48415  12.453   3.287  10.573 -0.0571 -0.3829  0.2922
31568ION     NA48416  14.845   6.477  10.433 -0.0242  0.1534 -0.1939
31569ION     NA48417   2.216   5.661  10.436 -0.0599 -0.0112  0.1565
31570ION     NA48418  11.845   9.497   6.115 -0.0421  0.0748  0.0906
31571ION     NA48419  12.867  17.574  10.823  0.0219  0.0574  0.1062
31572ION     NA48420   8.108   7.706  10.659  0.1987  0.0112  0.0768
31573ION     NA48421  12.875   9.498  10.919 -0.0388 -0.0948 -0.0168
31574ION     NA48422   0.678   6.580   5.795 -0.1792 -0.2700  0.0172
31575ION     NA48423   7.742   9.553  10.772  0.2732  0.3208  0.1068
31576ION     NA48424  16.372   1.915  10.968  0.4195 -0.1917 -0.0332
31577ION     NA48425  12.831  15.510   5.872  0.1380  0.2389  0.2205
31578ION     NA48426  11.187   3.806  10.452  0.3357  0.1391  0.0191
31579ION     NA48427   8.629  10.494   5.866  0.0522 -0.0750  0.2114
31580ION     NA48428   0.183  16.999   3.302  0.0441  0.1769  0.0910
31581ION     NA48429  15.442   3.203  10.853  0.1593 -0.1278 -0.1048
31582ION     NA48430  16.320   0.049   5.232  0.0849  0.3367 -0.1603
31583ION     NA48431  12.686  14.203  10.810  0.0631  0.5065 -0.3133
31584ION     NA48432  10.831   3.044  13.271  0.0341 -0.0321 -0.1557
31585ION     NA48433  17.106   6.547   5.636  0.1246 -0.0212 -0.0620
31586ION     NA48434  16.401   1.402   4.987  0.1489  0.2814  0.0688
31587ION     NA48435   3.907  14.389  13.772  0.0270 -0.1144  0.2637
31588ION     NA48436  13.471   7.122   2.249  0.0142 -0.0892 -0.0945
31589ION     NA48437   6.553   4.283   5.700 -0.0767  0.3989  0.0047
31590ION     NA48438  16.786   9.328  10.422 -0.1876 -0.0113  0.3149
31591ION     NA48439   6.321   7.755  10.925  0.3258 -0.2918  0.0187
31592ION     NA48440  12.948   1.805  11.077 -0.2350  0.0272  0.0329
31593ION     NA48441   9.545  14.931  12.249  0.2618  0.0945 -0.2778
31594ION     NA48442  13.003  13.083  11.182 -0.0074 -0.1268  0.1880
31595ION     NA48443  10.096  12.247   2.440  0.2039  0.1100 -0.2181
31596ION     NA48444   1.570   4.548   1.264  0.0593 -0.2016  0.1379
31597ION     NA48445   7.991   7.530   5.882  0.2359  0.1710  0.0858
31598ION     NA48446  11.929   1.701  10.889 -0.1096 -0.0591  0.0907
31599ION     NA48447  12.710  16.407   5.866  0.0071 -0.0778 -0.1864
31600ION     NA48448  14.084  12.161   1.826  0.0212 -0.0437  0.1637
31601ION     NA48449   8.043   1.130   5.926 -0.1744  0.1012 -0.2218
31602ION     NA48450   4.111   4.482  12.439 -0.0436 -0.1945  0.3397
31603ION     NA48451  10.422  17.195   5.977  0.0824  0.0882  0.2182
31604ION     NA48452  12.600   1.107  11.312  0.2361 -0.0117 -0.0695
31605ION     NA48453   2.166   0.443  10.563  0.1125  0.3936 -0.2794
31606ION     NA48454   8.616  11.800   4.395  0.0872 -0.2609  0.2298
31607ION     NA48455   0.193   2.956  11.436 -0.0666 -0.1419  0.0731
31608ION     NA48456  11.527  10.213  10.774 -0.0681  0.3088  0.0069
31609ION     NA48457  15.684  13.387  10.878  0.1690 -0.1825 -0.1493
31610ION     NA48458  17.547   6.263  12.018  0.0079  0.1327  0.1751
31611ION     NA48459   1.968   2.869   5.883  0.1439  0.2023 -0.0630
31612ION     NA48460   0.974  16.601   6.185 -0.0269  0.6832 -0.3359
31613ION     NA48461  10.806  16.220   5.628 -0.1565 -0.0173  0.1529
31614ION     NA48462   5.445  16.622  10.752 -0.1075  0.1100  0.0130
31615ION     NA48463   2.944  10.421  10.684 -0.0676  0.0573  0.1686
31616ION     NA48464  16.636   0.289  10.695  0.2577  0.2834  0.2055
31617ION     NA48465  10.930   1.452   5.741  0.1845  0.0670  0.2685
31618ION     NA48466  15.050  14.001   6.035  0.1860 -0.0339 -0.2640
31619ION     NA48467   6.218  13.258  15.379 -0.0427 -0.0972 -0.1126
31620ION     NA48468  15.113   0.351  10.655 -0.1638  0.1740  0.2018
31621ION     NA48469   2.714   2.046   5.613  0.0830  0.0005 -0.1137
31622ION     NA48470  12.354  12.044   5.045 -0.0323  0.1525  0.4379
31623ION     NA48471  11.087  14.048   2.456  0.0774 -0.1290 -0.0287
31624ION     NA48472   4.867   2.260  10.900  0.0500  0.1623 -0.1352
31625ION     NA48473  13.710   5.230   6.127 -0.0808  0.3153 -0.1259
31626ION     NA48474  17.191   8.728  11.118  0.0269 -0.3119 -0.1080
31627ION     NA48475   4.753  12.837   2.260  0.2936  0.1038  0.0773
31628ION     NA48476   7.854  16.392   4.813  0.1022 -0.2192 -0.0227
31629ION     NA48477   7.020   2.605   6.215  0.3138 -0.1409 -0.0232
31630ION     NA48478   8.972   8.972  13.370 -0.1627  0.0075  0.2128
31631ION     NA48479   0.846   7.576   5.657  0.1653  0.0656  0.2795
31632ION     NA48480  16.505  10.056   5.972  0.1466  0.3123 -0.2020
31633ION     NA48481   5.215  13.043  10.503  0.0111  0.3034 -0.1210
31634ION     NA48482   9.325   4.949   5.548  0.2239  0.0072 -0.2719
31635ION     NA48483   0.118  14.482  10.557 -0.0345 -0.2891 -0.2156
31636ION     NA48484  11.542  16.142  10.870 -0.0896  0.2494 -0.2622
31637ION     NA48485  15.031  13.456  10.972  0.0462 -0.2301 -0.0098
31638ION     NA48486  14.568   2.630   6.529  0.0075 -0.4359  0.1728
31639ION     NA48487   5.216  17.417  10.665  0.0610 -0.2457  0.1616
31640ION     NA48488  15.678   4.815   6.161  0.3145  0.2698  0.2337
31641ION     NA48489  16.987   7.825  10.646 -0.2089  0.1602  0.1059
31642ION     NA48490   9.865   3.973  10.801 -0.2937 -0.1485 -0.4684
31643ION     NA48491   6.347  11.664   5.082  0.1870  0.1505  0.2022
31644ION     NA48492  11.720  12.386   6.045  0.0821 -0.0055  0.0508
31645ION     NA48493   8.458  11.349  10.440  0.2064  0.0195 -0.1036
31646ION     NA48494  11.226   7.135   6.148  0.2916 -0.1037 -0.1934
31647ION     NA48495   4.850  16.230  10.694  0.0448  0.2159 -0.1152
31648ION     NA48496  16.161  10.808   5.981 -0.1092  0.0312  0.1412
31649ION     NA48497   5.143   3.307  10.681 -0.0044 -0.2414  0.0394
31650ION     NA48498  15.680   6.954  10.727 -0.0046 -0.2745  0.1497
31651ION     NA48499  12.280   4.496  10.591  0.1283 -0.0289 -0.0792
31652ION     NA48500   3.790  12.512   6.432  0.1503  0.0998  0.1033
31653ION     NA48501   5.422   7.827  10.883  0.0994 -0.0749 -0.0561
31654ION     NA48502   3.716   3.658  12.006  0.1507 -0.0526 -0.1674
31655ION     NA48503   9.615  10.261   5.894 -0.0291 -0.0458  0.1607
31656ION     NA48504  15.937  15.491   6.100 -0.2490  0.2608 -0.0881
31657ION     NA48505   5.563   0.944  10.892 -0.2071  0.1055 -0.1037
31658ION     NA48506   3.974   3.282  16.011  0.3822  0.0812 -0.0682
31659ION     NA48507   2.041   7.387   4.934 -0.3641  0.4889 -0.2929
31660ION     NA48508   8.315   1.851  11.106  0.1692  0.1080  0.0335
31661ION     NA48509   3.446   6.453   5.624  0.2388 -0.2037  0.0265
31662ION     NA48510   3.166   5.741  10.294  0.0836  0.0154  0.1009
31663ION     NA48511   8.598   3.623  15.765  0.1289 -0.0192 -0.0890
31664ION     NA48512  12.385  10.313   5.924  0.1146 -0.2405  0.0494
31665ION     NA48513  12.721  16.927  15.216 -0.1104  0.0127  0.0858
31666ION     NA48514  11.677   4.888   5.282 -0.2534  0.3771 -0.1456
31667ION     NA48515   8.052   3.797   5.942  0.2404 -0.0340  0.0517
31668ION     NA48516   0.330  12.372  10.435 -0.1390  0.0270  0.2462
31669ION     NA48517   3.123  14.484  10.796  0.0059 -0.0607  0.0020
31670ION     NA48518  14.145  13.511   5.945  0.1971 -0.3265 -0.2190
31671ION     NA48519   8.809   9.978   1.625 -0.0293 -0.1783 -0.2955
31672ION     NA48520  11.908   4.083   0.228 -0.2301  0.2244 -0.0652
31673ION     NA48521  12.915   3.188   1.233  0.0314  0.1516  0.0039
31674ION     NA48522  10.758   3.050  12.419  0.2535  0.0953  0.0782
31675ION     NA48523  14.892   7.942  10.547  0.0523 -0.0665  0.2864
31676ION     NA48524   3.324  10.481   5.853  0.1807 -0.0033 -0.0176
31677ION     NA48525  16.059  11.268  16.629  0.2604  0.0511 -0.0411
31678ION     NA48526   0.320  17.695   4.519  0.1825 -0.1699  0.0872
31679ION     NA48527  13.384  11.271  11.007  0.1182 -0.0354  0.1216
31680ION     NA48528  13.787   8.096   0.010 -0.2288  0.1341 -0.0612
31681ION     NA48529  14.957   3.686  10.857  0.2553  0.1682 -0.1968
31682ION     NA48530   6.618  10.678  10.632 -0.1191 -0.1069 -0.1876
31683ION     NA48531  17.304   1.734   6.169 -0.2547  0.0261  0.2357
31684ION     NA48532  16.964   3.506   5.687 -0.0963 -0.3732  0.4262
31685ION     NA48533   1.372  11.028  10.741  0.0286  0.3359 -0.0119
31686ION     NA48534   6.640   3.504  10.547 -0.0356  0.0672  0.1590
31687ION     NA48535   3.571   1.865  10.524 -0.0645  0.0073  0.1313
31688ION     NA48536   3.487   4.781   5.607 -0.2966 -0.0211 -0.0622
31689ION     NA48537  14.512   5.352  12.015  0.0630  0.1534  0.3539
31690ION     NA48538  16.148   7.903   5.869 -0.1348 -0.0694 -0.0271
31691ION     NA48539  12.285   9.053   6.051 -0.4058  0.1265 -0.2184
31692ION     NA48540  10.090   0.863   5.836  0.4601 -0.1113  0.0572
31693ION     NA48541  11.472   7.978  10.745  0.2119  0.0352 -0.1696
31694ION     NA48542   2.151   7.641  10.598  0.1427 -0.0772 -0.1097
31695ION     NA48543   4.683   1.064  10.616 -0.0148  0.0740  0.2619
31696ION     NA48544  11.344   4.557   6.176 -0.2851  0.2190  0.4264
31697ION     NA48545   2.125  16.017   3.302  0.2194 -0.0440  0.0466
31698ION     NA48546   7.602  12.098   6.088  0.3573  0.0655  0.3591
31699ION     NA48547  14.473  16.508  11.332  0.1435  0.1904 -0.0544
31700ION     NA48548   6.698   9.621   0.974 -0.1926  0.2448  0.2478
31701ION     NA48549  16.079  16.832  10.454 -0.3560  0.3039 -0.2937
31702ION     NA48550  17.535   9.930   5.074 -0.1322  0.0026  0.2613
31703ION     NA48551   2.301   1.409  10.436 -0.1122  0.1372  0.1644
31704ION     NA48552  13.456   8.739  10.662  0.0165 -0.0171  0.0732
31705ION     NA48553   5.857  11.425   5.915  0.1134  0.2240  0.1708
31706ION     NA48554  14.686  17.411  11.553  0.0442 -0.1191  0.0391
31707ION     NA48555   4.154   0.153  11.344  0.1107 -0.1818  0.0581
31708ION     NA48556  16.882  10.806   5.829  0.0546 -0.2000 -0.1269
31709ION     NA48557   2.544  15.955   0.808  0.0654  0.0224 -0.1731
31710ION     NA48558   8.550   9.037   3.404 -0.0314 -0.0300  0.3105
31711ION     NA48559   5.491   8.430  12.629  0.1008 -0.2102  0.0737
31712ION     NA48560   1.845   6.461  10.707 -0.1279  0.2706 -0.1147
31713ION     NA48561  12.225   5.514   2.086 -0.1212 -0.0038 -0.0263
31714ION     NA48562  11.803   3.139   6.005 -0.2575 -0.0322  0.0869
31715ION     NA48563  17.179   5.337  10.687 -0.0190 -0.1199 -0.0726
31716ION     NA48564   4.797   5.643   5.225  0.2868 -0.3107  0.1565
31717ION     NA48565  15.994  15.896  10.489 -0.0171 -0.1554 -0.0848
31718ION     NA48566  14.735   1.194  14.187  0.1999 -0.0812  0.4968
  17.85850  17.85850  16.63174
