INSANE! Membrane UpperLeaflet>loPI:POPI:DPPI:PYPI:ERGO=20.0:5.0:3.0:2.0:10.0 LowerLeaflet>loPI:POPI:DPPI:PYPI:ERGO=20.0:5.0:3.0:2.0:10.0
48566
    1loPI    C1    1  15.290   3.660  11.081 -0.2515  0.0776  0.0580
    1loPI    C2    2  14.977   3.525  11.292 -0.0712 -0.3631  0.0538
    1loPI    C3    3  15.349   3.480  11.434  0.0155 -0.1673 -0.1069
    1loPI   PO4    4  15.235   3.576  10.747  0.1634  0.1013 -0.0221
    1loPI   GL1    5  15.085   3.899  10.437 -0.1620  0.2578 -0.0972
    1loPI   GL2    6  14.924   4.097  10.449  0.0012  0.4972 -0.1425
    1loPI   C1A    7  15.079   3.555  10.157 -0.3374  0.1722 -0.1523
    1loPI   C2A    8  15.012   3.494   9.682 -0.1100  0.1179  0.2706
    1loPI   C3A    9  14.886   3.436   9.306 -0.3598 -0.1154 -0.1999
    1loPI   C4A   10  14.719   3.519   8.928 -0.1871 -0.2243 -0.1586
    1loPI   C5A   11  14.473   3.585   8.631 -0.0398 -0.1714  0.0047
    1loPI   C6A   12  14.436   3.342   8.261  0.0131 -0.2342 -0.0786
    1loPI   C1B   13  14.914   3.974   9.992  0.0697 -0.2513 -0.1228
    1loPI   C2B   14  14.782   3.990   9.632 -0.0296 -0.0244  0.0766
    1loPI   C3B   15  14.924   3.920   9.225  0.0428  0.1439 -0.2235
    1loPI   C4B   16  14.960   3.926   8.771 -0.0592  0.0769  0.0250
    2loPI    C1   17  15.559  15.633  10.783  0.0407 -0.0964  0.0932
    2loPI    C2   18  15.256  15.867  10.668  0.0237 -0.0785  0.1733
    2loPI    C3   19  15.363  15.855  11.053  0.0311 -0.1948  0.1676
    2loPI   PO4   20  15.424  15.419  10.591 -0.0718 -0.0806 -0.1729
    2loPI   GL1   21  15.493  15.108  10.264 -0.2070 -0.1503 -0.2683
    2loPI   GL2   22  15.072  15.124  10.389 -0.0632  0.1609 -0.3635
    2loPI   C1A   23  15.571  15.047   9.877 -0.0207 -0.1639 -0.0978
    2loPI   C2A   24  15.541  15.043   9.483 -0.0355 -0.4661  0.1807
    2loPI   C3A   25  15.566  15.072   9.069  0.0488 -0.5762  0.0109
    2loPI   C4A   26  15.841  15.156   8.794 -0.2652  0.1484 -0.0480
    2loPI   C5A   27  16.054  15.348   8.548  0.0643 -0.0753 -0.2010
    2loPI   C6A   28  15.987  15.628   8.246 -0.1027 -0.1157  0.0368
    2loPI   C1B   29  15.041  14.986   9.957 -0.0614 -0.3837  0.2367
    2loPI   C2B   30  15.063  15.076   9.580 -0.1354 -0.1745 -0.2927
    2loPI   C3B   31  15.035  15.091   9.173 -0.1632 -0.2828 -0.1222
    2loPI   C4B   32  14.843  15.249   8.841  0.0371 -0.1677 -0.1186
    3loPI    C1   33   5.238   2.976  11.236 -0.0472 -0.0480  0.0071
    3loPI    C2   34   5.267   3.297  11.474  0.0909  0.1109 -0.2201
    3loPI    C3   35   5.593   3.082  11.387  0.0280  0.0093 -0.2070
    3loPI   PO4   36   5.190   3.068  11.043 -0.2585  0.0062  0.0032
    3loPI   GL1   37   5.385   3.175  10.672 -0.2011  0.2527 -0.1148
    3loPI   GL2   38   5.368   2.803  10.642  0.3280  0.1886  0.4966
    3loPI   C1A   39   5.559   3.169  10.262 -0.1406 -0.0382  0.3177
    3loPI   C2A   40   5.620   3.259   9.904  0.0085  0.0961  0.0038
    3loPI   C3A   41   5.691   3.574   9.535  0.2356 -0.0510  0.1885
    3loPI   C4A   42   5.738   3.723   9.033 -0.6189 -0.1395  0.0553
    3loPI   C5A   43   5.760   3.860   8.646 -0.1338 -0.1629  0.1712
    3loPI   C6A   44   6.135   4.064   8.408 -0.3071  0.0947  0.0497
    3loPI   C1B   45   5.146   2.892  10.261 -0.1919  0.0581  0.0183
    3loPI   C2B   46   5.182   2.985   9.807  0.0073 -0.0111 -0.1262
    3loPI   C3B   47   5.350   3.121   9.396 -0.1093  0.1566 -0.3704
    3loPI   C4B   48   5.449   3.347   9.035 -0.0229 -0.3394 -0.2004
    4loPI    C1   49   7.164   5.490  10.970  0.4879  0.2200 -0.0964
    4loPI    C2   50   7.319   5.209  11.209 -0.1624 -0.0427  0.0395
    4loPI    C3   51   7.287   5.587  11.338  0.1217 -0.0374  0.1009
    4loPI   PO4   52   7.169   5.412  10.712  0.1415 -0.1733  0.0503
    4loPI   GL1   53   7.351   5.433  10.320  0.0365  0.0539 -0.0309
    4loPI   GL2   54   6.893   5.480  10.319 -0.1366  0.0339  0.3853
    4loPI   C1A   55   7.167   5.117  10.049  0.0965 -0.2281 -0.0411
    4loPI   C2A   56   7.151   5.208   9.595 -0.1539 -0.0144 -0.1655
    4loPI   C3A   57   7.140   5.235   9.151 -0.2577 -0.0681  0.1714
    4loPI   C4A   58   7.105   5.035   8.776 -0.3402 -0.1260 -0.1113
    4loPI   C5A   59   6.799   4.923   8.451  0.0596  0.1674 -0.0667
    4loPI   C6A   60   6.541   4.648   8.193  0.1606  0.1561 -0.2671
    4loPI   C1B   61   6.931   5.619   9.941  0.0217  0.0190  0.0632
    4loPI   C2B   62   7.003   5.653   9.503  0.0256  0.0140  0.0236
    4loPI   C3B   63   6.977   5.697   9.197  0.1974  0.0219  0.0079
    4loPI   C4B   64   7.072   5.617   8.752  0.0646  0.1242  0.0331
    5loPI    C1   65  16.065   0.425  11.065 -0.0560  0.0535 -0.0310
    5loPI    C2   66  16.129   0.072  11.241 -0.0060  0.0981  0.0405
    5loPI    C3   67  15.781   0.261  11.293  0.0454  0.1578  0.1724
    5loPI   PO4   68  16.169   0.344  10.839  0.1690  0.1232 -0.0731
    5loPI   GL1   69  16.064   0.638  10.481  0.0940  0.1103  0.2434
    5loPI   GL2   70  16.303   0.724  10.321  0.0140 -0.3169  0.2936
    5loPI   C1A   71  15.879   0.732  10.058  0.0866 -0.2224  0.0181
    5loPI   C2A   72  15.924   0.751   9.643  0.1215 -0.1690 -0.1909
    5loPI   C3A   73  15.886   0.588   9.192 -0.1266  0.0250 -0.3473
    5loPI   C4A   74  15.816   0.503   8.724  0.0311  0.0931  0.2713
    5loPI   C5A   75  15.444   0.507   8.356 -0.0712  0.0235  0.1403
    5loPI   C6A   76  15.048   0.612   8.205 -0.0260 -0.1232  0.1923
    5loPI   C1B   77  16.323   0.796   9.863  0.1560 -0.2380 -0.0431
    5loPI   C2B   78  16.380   0.782   9.484 -0.0667 -0.0176 -0.0289
    5loPI   C3B   79  16.394   0.813   9.111  0.2662 -0.3118  0.0863
    5loPI   C4B   80  16.478   1.056   8.624  0.2265 -0.1008 -0.1221
    6loPI    C1   81   3.765   9.352  10.615 -0.1268 -0.0339  0.0509
    6loPI    C2   82   3.922   9.512  10.947 -0.1533  0.1424 -0.0202
    6loPI    C3   83   3.679   9.195  10.973  0.2145 -0.1377  0.0906
    6loPI   PO4   84   4.026   9.340  10.459  0.0538  0.0576 -0.1427
    6loPI   GL1   85   4.220   9.495  10.266  0.0549 -0.0502  0.1918
    6loPI   GL2   86   4.535   9.457  10.262  0.0127  0.1072 -0.0223
    6loPI   C1A   87   4.029   9.647   9.855  0.2428 -0.2187  0.2282
    6loPI   C2A   88   3.937   9.576   9.408 -0.0982 -0.0285 -0.0883
    6loPI   C3A   89   3.803   9.551   9.003 -0.1115  0.0785 -0.0498
    6loPI   C4A   90   3.856   9.542   8.557  0.0561  0.0623  0.2959
    6loPI   C5A   91   4.256   9.550   8.256 -0.2512  0.0098  0.0335
    6loPI   C6A   92   4.263   9.218   7.963 -0.1647  0.0708 -0.3025
    6loPI   C1B   93   4.452   9.422   9.796  0.0222 -0.0369 -0.2308
    6loPI   C2B   94   4.329   9.321   9.318  0.0573 -0.1247 -0.1560
    6loPI   C3B   95   4.160   9.236   8.903  0.1031 -0.2282  0.0474
    6loPI   C4B   96   4.150   9.092   8.516  0.1669 -0.0155  0.1314
    7loPI    C1   97  14.144  12.125  10.327 -0.0876  0.1157 -0.0025
    7loPI    C2   98  14.310  12.488  10.310  0.0075  0.0698 -0.0643
    7loPI    C3   99  14.416  12.234  10.600  0.1324 -0.0017 -0.1716
    7loPI   PO4  100  13.876  12.096  10.344  0.2223  0.0761  0.2214
    7loPI   GL1  101  13.498  12.099  10.318 -0.1368 -0.2546 -0.1952
    7loPI   GL2  102  13.588  12.382  10.090  0.1393 -0.0141 -0.0160
    7loPI   C1A  103  13.321  11.871  10.069 -0.0409  0.0935  0.0420
    7loPI   C2A  104  13.209  11.961   9.540 -0.1369 -0.0298 -0.2177
    7loPI   C3A  105  13.223  12.099   9.113  0.1485 -0.1151  0.2434
    7loPI   C4A  106  13.273  12.407   8.801 -0.0684 -0.0232 -0.1244
    7loPI   C5A  107  13.212  12.735   8.463  0.4293  0.1177  0.1350
    7loPI   C6A  108  13.359  12.894   8.058 -0.0012 -0.1212 -0.1376
    7loPI   C1B  109  13.634  12.108   9.700  0.3014  0.2703 -0.2753
    7loPI   C2B  110  13.958  11.851   9.583  0.0170  0.2981 -0.1686
    7loPI   C3B  111  14.200  11.723   9.203 -0.1582  0.1061 -0.3287
    7loPI   C4B  112  14.342  11.930   8.773  0.0650 -0.1072  0.3496
    8loPI    C1  113  15.738   9.628  10.622 -0.0988 -0.0731  0.0816
    8loPI    C2  114  15.990   9.581  10.929  0.0845  0.0319 -0.0510
    8loPI    C3  115  15.694   9.318  10.871 -0.0097  0.0632  0.2693
    8loPI   PO4  116  15.912   9.712  10.442 -0.0836  0.2577  0.0810
    8loPI   GL1  117  15.762   9.962  10.221 -0.0011  0.0428 -0.2574
    8loPI   GL2  118  15.619   9.651   9.984 -0.0901  0.0879 -0.0827
    8loPI   C1A  119  15.967  10.077   9.862 -0.0702  0.0622  0.2297
    8loPI   C2A  120  16.012  10.111   9.416 -0.0394 -0.2300  0.1947
    8loPI   C3A  121  15.954  10.281   8.972  0.1048 -0.0894  0.0156
    8loPI   C4A  122  15.842  10.299   8.605  0.2153 -0.1068 -0.2741
    8loPI   C5A  123  15.598  10.265   8.295 -0.3035  0.0208  0.3638
    8loPI   C6A  124  15.579  10.585   7.977 -0.0645 -0.0796  0.0875
    8loPI   C1B  125  15.647   9.716   9.627  0.1469 -0.2929  0.2291
    8loPI   C2B  126  15.824   9.737   9.177  0.0186 -0.0223  0.1207
    8loPI   C3B  127  15.761   9.858   8.759  0.1430 -0.0440 -0.4578
    8loPI   C4B  128  16.093   9.848   8.433 -0.0816  0.2028 -0.1839
    9loPI    C1  129  13.140  11.906  10.614 -0.1287 -0.3187 -0.2010
    9loPI    C2  130  13.256  11.581  10.816 -0.1539 -0.1171  0.1462
    9loPI    C3  131  13.496  11.901  10.796 -0.2809 -0.0231  0.1154
    9loPI   PO4  132  12.908  11.854  10.635 -0.1130 -0.1989  0.1241
    9loPI   GL1  133  12.638  11.849  10.295 -0.0373  0.2471 -0.5393
    9loPI   GL2  134  12.380  11.726  10.379 -0.0607 -0.0340  0.1445
    9loPI   C1A  135  12.753  12.035   9.850 -0.0270 -0.1163  0.1473
    9loPI   C2A  136  12.640  12.163   9.378 -0.1064 -0.0205  0.0960
    9loPI   C3A  137  12.688  12.241   9.018 -0.3155  0.1151  0.2030
    9loPI   C4A  138  12.856  12.182   8.627  0.1805 -0.0665  0.4143
    9loPI   C5A  139  13.031  12.298   8.272 -0.4252  0.1017  0.0873
    9loPI   C6A  140  13.038  12.610   7.906  0.1577 -0.1376  0.2232
    9loPI   C1B  141  12.381  11.660   9.871 -0.0868  0.0100  0.1698
    9loPI   C2B  142  12.348  11.782   9.462  0.0829  0.2743  0.2754
    9loPI   C3B  143  12.360  11.757   9.001  0.2717  0.0939  0.0206
    9loPI   C4B  144  12.361  11.943   8.599  0.0980 -0.3217  0.0501
   10loPI    C1  145  12.772  16.136  11.067 -0.1839  0.1236  0.0874
   10loPI    C2  146  12.988  16.264  11.378  0.2117  0.0511 -0.1498
   10loPI    C3  147  13.003  15.879  11.269 -0.1854  0.0050 -0.0599
   10loPI   PO4  148  12.809  16.312  10.902  0.0041 -0.2147 -0.4169
   10loPI   GL1  149  12.869  16.375  10.564 -0.0863 -0.1331 -0.0853
   10loPI   GL2  150  13.083  16.676  10.552 -0.0664  0.0783 -0.1509
   10loPI   C1A  151  12.650  16.390  10.174  0.0233  0.2448 -0.0830
   10loPI   C2A  152  12.636  16.310   9.735  0.1697 -0.0404  0.2372
   10loPI   C3A  153  12.581  16.272   9.305 -0.0148 -0.3293 -0.2025
   10loPI   C4A  154  12.660  16.319   8.855 -0.0383  0.1393  0.0844
   10loPI   C5A  155  12.650  16.536   8.479 -0.0245  0.1393 -0.0342
   10loPI   C6A  156  12.953  16.550   8.122  0.2383  0.0266 -0.0009
   10loPI   C1B  157  13.025  16.715  10.109 -0.1355  0.1848  0.0081
   10loPI   C2B  158  13.032  16.775   9.672 -0.1675  0.3727  0.0688
   10loPI   C3B  159  12.889  16.706   9.291 -0.1282  0.0072 -0.2602
   10loPI   C4B  160  12.808  16.859   8.915  0.0581 -0.0818  0.0259
   11loPI    C1  161  17.587   2.717  11.070  0.2100  0.1075 -0.1363
   11loPI    C2  162  17.693   3.072  11.219 -0.0815  0.1054  0.0857
   11loPI    C3  163  17.632   2.763  11.464 -0.1569 -0.0102 -0.0772
   11loPI   PO4  164  17.834   2.753  10.826 -0.0883 -0.0500  0.1135
   11loPI   GL1  165  17.892   3.069  10.581  0.2498 -0.1240 -0.1042
   11loPI   GL2  166  17.547   3.052  10.430 -0.1106  0.1234 -0.2125
   11loPI   C1A  167  17.870   3.072  10.085  0.1769 -0.5673 -0.2659
   11loPI   C2A  168  17.742   2.860   9.741  0.0942 -0.1151 -0.0296
   11loPI   C3A  169  17.715   2.730   9.356  0.1098 -0.3154  0.2296
   11loPI   C4A  170  17.360   2.935   9.243 -0.0333  0.0822  0.2014
   11loPI   C5A  171  17.148   2.963   9.554  0.1095  0.0136 -0.0043
   11loPI   C6A  172  17.219   3.115   9.940 -0.1936  0.2018 -0.1373
   11loPI   C1B  173  17.494   2.661  10.206 -0.1212  0.0649 -0.0121
   11loPI   C2B  174  17.347   2.548   9.728  0.0187 -0.2394  0.2798
   11loPI   C3B  175  17.302   2.468   9.289 -0.1410 -0.0319 -0.3305
   11loPI   C4B  176  17.316   2.521   8.800  0.0404  0.0781 -0.0839
   12loPI    C1  177  15.750  17.433  11.100  0.1477  0.0959 -0.0415
   12loPI    C2  178  15.742  17.069  11.265 -0.0937  0.1053 -0.0286
   12loPI    C3  179  16.092  17.248  11.193  0.0248 -0.1032  0.0208
   12loPI   PO4  180  15.601  17.389  10.814 -0.0796 -0.2087 -0.0703
   12loPI   GL1  181  15.808  17.386  10.419  0.2170  0.0717 -0.2074
   12loPI   GL2  182  15.781  17.101  10.291  0.2648 -0.1193 -0.0277
   12loPI   C1A  183  15.913  17.498  10.047 -0.2861  0.0111  0.1442
   12loPI   C2A  184  16.111  17.386   9.589  0.1838  0.2363 -0.0804
   12loPI   C3A  185  16.054  17.271   9.187  0.2347  0.2477 -0.1482
   12loPI   C4A  186  16.333  17.173   8.920  0.0090 -0.1306  0.0423
   12loPI   C5A  187  16.329  16.960   8.620  0.1151 -0.0373 -0.3502
   12loPI   C6A  188  16.282  17.112   8.209 -0.0222  0.2287  0.2247
   12loPI   C1B  189  15.754  17.058   9.783 -0.0470 -0.2192  0.0991
   12loPI   C2B  190  15.725  16.961   9.315  0.1400 -0.3261  0.1876
   12loPI   C3B  191  15.910  16.899   8.893 -0.0916  0.1437 -0.2873
   12loPI   C4B  192  15.865  16.524   8.549  0.0737 -0.3814 -0.0054
   13loPI    C1  193   0.977  15.088  11.104  0.0779 -0.1017 -0.0879
   13loPI    C2  194   0.591  15.085  11.210  0.0450 -0.3577 -0.2060
   13loPI    C3  195   0.860  15.278  11.435 -0.0810 -0.5720  0.1344
   13loPI   PO4  196   0.969  15.189  10.861  0.3252 -0.0742 -0.0442
   13loPI   GL1  197   0.839  15.304  10.443 -0.0958 -0.0311 -0.1567
   13loPI   GL2  198   1.106  15.039  10.359 -0.1545  0.0183  0.1520
   13loPI   C1A  199   0.660  15.585  10.040 -0.1438 -0.0481  0.0650
   13loPI   C2A  200   0.766  15.652   9.545 -0.0215  0.0477 -0.0220
   13loPI   C3A  201   0.783  15.532   9.142  0.0172  0.0087  0.1194
   13loPI   C4A  202   1.015  15.247   8.749 -0.0326  0.0785  0.1111
   13loPI   C5A  203   1.391  15.013   8.493  0.0257  0.1531  0.2611
   13loPI   C6A  204   1.572  15.222   8.173 -0.3323  0.0057 -0.3333
   13loPI   C1B  205   1.207  15.206   9.911  0.2086 -0.1484 -0.1782
   13loPI   C2B  206   1.227  15.367   9.566  0.1713 -0.2144 -0.1920
   13loPI   C3B  207   1.311  15.235   9.141 -0.0165  0.0862 -0.2122
   13loPI   C4B  208   1.402  14.896   9.012  0.1074 -0.0767  0.1883
   14loPI    C1  209   8.312  17.606  10.656  0.0882 -0.0918  0.0095
   14loPI    C2  210   8.373  17.565  11.049  0.0249  0.1863  0.0505
   14loPI    C3  211   8.140  17.304  10.855  0.2226 -0.0730  0.1557
   14loPI   PO4  212   8.213  17.919  10.590 -0.3709 -0.1972  0.0013
   14loPI   GL1  213   7.932  18.148  10.316  0.1149 -0.3670  0.1260
   14loPI   GL2  214   7.725  18.045  10.237  0.3286  0.2027 -0.0430
   14loPI   C1A  215   8.161  18.270   9.978 -0.1329  0.0299  0.0348
   14loPI   C2A  216   8.313  18.189   9.645 -0.2193  0.1883  0.0974
   14loPI   C3A  217   8.511  18.193   9.199 -0.0639  0.1596  0.1919
   14loPI   C4A  218   8.404  17.960   8.903  0.0284  0.0167 -0.2070
   14loPI   C5A  219   8.460  17.645   8.761 -0.0983  0.2071  0.3249
   14loPI   C6A  220   8.683  17.508   8.347  0.1746 -0.0634  0.0776
   14loPI   C1B  221   7.727  18.046   9.861 -0.2058  0.0371  0.1148
   14loPI   C2B  222   7.782  18.203   9.420  0.1149  0.3303 -0.0754
   14loPI   C3B  223   7.934  18.243   9.001  0.1110  0.1027  0.0659
   14loPI   C4B  224   8.117  18.162   8.567 -0.1856  0.1068 -0.3182
   15loPI    C1  225  10.524   7.855  10.763 -0.0968 -0.0242 -0.0158
   15loPI    C2  226  10.777   7.767  11.059 -0.0312 -0.0360 -0.0753
   15loPI    C3  227  10.415   7.598  11.049  0.0023 -0.1096 -0.0542
   15loPI   PO4  228  10.696   7.913  10.427  0.0614 -0.0037  0.0409
   15loPI   GL1  229  10.965   7.668  10.142 -0.1472  0.0868  0.3673
   15loPI   GL2  230  11.121   7.474  10.241  0.0121 -0.0539  0.1033
   15loPI   C1A  231  10.954   7.772   9.579 -0.2714 -0.0425  0.1375
   15loPI   C2A  232  11.001   7.715   9.163 -0.2736 -0.2590  0.2101
   15loPI   C3A  233  10.819   7.421   8.785 -0.0331  0.0144  0.1480
   15loPI   C4A  234  10.711   7.474   8.309 -0.1732 -0.2461 -0.0305
   15loPI   C5A  235  10.444   7.286   8.025 -0.3256 -0.0137  0.1123
   15loPI   C6A  236  10.029   7.377   7.951  0.1281 -0.0781  0.2334
   15loPI   C1B  237  11.390   7.538   9.839  0.2730  0.0872 -0.3600
   15loPI   C2B  238  11.393   7.498   9.404  0.0878  0.0896 -0.1151
   15loPI   C3B  239  11.335   7.315   8.921 -0.1663 -0.0563  0.0209
   15loPI   C4B  240  11.316   7.476   8.490 -0.1298 -0.1727 -0.3004
   16loPI    C1  241   5.232  10.741  11.002 -0.0632  0.0256 -0.1354
   16loPI    C2  242   5.189  10.401  11.208  0.0637  0.1020  0.0198
   16loPI    C3  243   5.551  10.513  11.080  0.0095  0.1373 -0.1037
   16loPI   PO4  244   5.027  10.702  10.771 -0.1693  0.1645 -0.4077
   16loPI   GL1  245   5.057  10.474  10.322  0.0790  0.2637  0.1379
   16loPI   GL2  246   5.407  10.436  10.161  0.0911  0.1517  0.2576
   16loPI   C1A  247   4.862  10.668   9.938  0.1315 -0.0577  0.0035
   16loPI   C2A  248   4.813  10.612   9.518 -0.0532  0.0205  0.1282
   16loPI   C3A  249   4.718  10.666   9.096  0.0687 -0.0564 -0.0374
   16loPI   C4A  250   4.790  10.518   8.724  0.1584  0.1048  0.3324
   16loPI   C5A  251   4.773  10.299   8.328  0.0414  0.1221  0.1018
   16loPI   C6A  252   4.374  10.043   8.296 -0.0995  0.0445  0.0295
   16loPI   C1B  253   5.383  10.338   9.692 -0.2907 -0.2219 -0.0482
   16loPI   C2B  254   5.205  10.400   9.194  0.1558 -0.2161  0.1574
   16loPI   C3B  255   5.234  10.630   8.873 -0.2316 -0.1538 -0.3275
   16loPI   C4B  256   5.364  10.987   8.624  0.0245  0.1801  0.0409
   17loPI    C1  257  15.204   8.786  10.668  0.1523 -0.0555  0.1194
   17loPI    C2  258  15.243   9.150  10.830  0.1523  0.0002 -0.0047
   17loPI    C3  259  15.412   8.833  11.006  0.2338  0.0749  0.0520
   17loPI   PO4  260  15.245   8.808  10.440  0.0245 -0.2365  0.1319
   17loPI   GL1  261  15.157   8.725  10.039 -0.4141  0.0272 -0.0785
   17loPI   GL2  262  15.247   9.009   9.891 -0.3066 -0.1297 -0.0498
   17loPI   C1A  263  15.122   8.530   9.638  0.0161 -0.3084 -0.1420
   17loPI   C2A  264  14.978   8.696   9.206 -0.0613 -0.1105 -0.1024
   17loPI   C3A  265  14.797   8.882   8.807  0.1494  0.2202  0.1026
   17loPI   C4A  266  14.795   8.968   8.425 -0.2496 -0.0660  0.1248
   17loPI   C5A  267  14.811   9.283   8.255  0.2132 -0.0622 -0.0235
   17loPI   C6A  268  14.828   9.580   8.610 -0.2719 -0.0822  0.0728
   17loPI   C1B  269  15.294   9.333   9.526 -0.0993 -0.4547 -0.0722
   17loPI   C2B  270  15.333   9.564   9.176 -0.1500 -0.0306  0.1670
   17loPI   C3B  271  15.250   9.830   8.846 -0.2419  0.1669 -0.0076
   17loPI   C4B  272  15.311   9.797   8.382 -0.0985 -0.1682  0.2189
   18loPI    C1  273   9.621  10.285  10.888  0.0029 -0.1035  0.0498
   18loPI    C2  274   9.739  10.361  11.262  0.0235 -0.1520  0.0533
   18loPI    C3  275   9.842  10.017  11.086  0.3517  0.0399 -0.1376
   18loPI   PO4  276   9.624  10.518  10.729 -0.2539  0.0074  0.0977
   18loPI   GL1  277   9.526  10.613  10.393 -0.1273 -0.0446  0.0220
   18loPI   GL2  278   9.291  10.888  10.299  0.2870 -0.0783 -0.2143
   18loPI   C1A  279   9.630  10.569  10.024  0.1854  0.0935  0.1820
   18loPI   C2A  280   9.526  10.551   9.546 -0.0905  0.1439  0.0737
   18loPI   C3A  281   9.513  10.570   9.104 -0.1760 -0.0695  0.0444
   18loPI   C4A  282   9.444  10.388   8.744 -0.0550 -0.1407 -0.1412
   18loPI   C5A  283   9.457  10.234   8.365  0.0585 -0.0768 -0.0285
   18loPI   C6A  284   9.842  10.110   8.140 -0.0476 -0.0128 -0.2041
   18loPI   C1B  285   9.176  10.804   9.854  0.1279  0.1818 -0.1941
   18loPI   C2B  286   9.145  10.880   9.312  0.3132  0.0975 -0.0828
   18loPI   C3B  287   9.109  10.859   8.833 -0.0013  0.2539  0.0665
   18loPI   C4B  288   8.920  10.904   8.470  0.1817 -0.0307  0.1440
   19loPI    C1  289   7.774  15.145  11.109  0.2146  0.3141 -0.1041
   19loPI    C2  290   7.861  15.403  11.403 -0.0226  0.1415  0.1227
   19loPI    C3  291   7.562  15.142  11.448  0.1248 -0.0831 -0.1597
   19loPI   PO4  292   7.836  15.302  10.916  0.0316 -0.4174 -0.0027
   19loPI   GL1  293   8.004  15.477  10.512 -0.0756  0.0957  0.3278
   19loPI   GL2  294   8.237  15.621  10.487  0.2584  0.3377 -0.0996
   19loPI   C1A  295   7.979  15.301  10.139 -0.1912 -0.0229  0.1324
   19loPI   C2A  296   8.086  15.366   9.742 -0.0128  0.1129  0.0834
   19loPI   C3A  297   8.121  15.254   9.275 -0.0423 -0.1903  0.3570
   19loPI   C4A  298   8.179  15.202   8.825  0.1192  0.2781  0.2350
   19loPI   C5A  299   8.346  15.288   8.424  0.0405  0.0272 -0.0224
   19loPI   C6A  300   8.331  15.257   7.967  0.3143 -0.2318  0.0512
   19loPI   C1B  301   8.300  16.005  10.187  0.4855 -0.0082  0.3645
   19loPI   C2B  302   8.291  15.988   9.786 -0.1844  0.1187  0.0062
   19loPI   C3B  303   8.396  16.229   9.355  0.0428  0.2341 -0.2687
   19loPI   C4B  304   8.272  16.229   8.886  0.3085  0.2198  0.2960
   20loPI    C1  305   2.310  17.489  11.093 -0.1338 -0.0922 -0.1707
   20loPI    C2  306   2.594  17.462  11.374 -0.0729  0.0928 -0.2132
   20loPI    C3  307   2.208  17.474  11.479 -0.0580 -0.0044 -0.1469
   20loPI   PO4  308   2.437  17.663  10.883 -0.0590 -0.2425  0.0056
   20loPI   GL1  309   2.850  17.819  10.689 -0.2216 -0.2399  0.0614
   20loPI   GL2  310   3.137  17.849  10.536  0.3518  0.0369 -0.1096
   20loPI   C1A  311   2.806  17.602  10.197  0.0207  0.2660  0.2472
   20loPI   C2A  312   2.795  17.551   9.863  0.3953  0.1300  0.1529
   20loPI   C3A  313   2.929  17.741   9.491  0.1428  0.0627  0.1552
   20loPI   C4A  314   2.913  17.980   9.161 -0.0643 -0.0458 -0.1051
   20loPI   C5A  315   3.155  18.111   8.822 -0.1511 -0.1418  0.3403
   20loPI   C6A  316   3.200  17.914   8.412 -0.3600 -0.1631  0.3522
   20loPI   C1B  317   2.963  18.053  10.098 -0.0924 -0.2332 -0.0386
   20loPI   C2B  318   3.010  18.226   9.679  0.2352 -0.0007  0.1058
   20loPI   C3B  319   3.107  18.416   9.397 -0.1308  0.1050 -0.0654
   20loPI   C4B  320   3.270  18.580   8.986  0.2205  0.1231 -0.0250
   21loPI    C1  321  12.290  10.509  10.786 -0.0184  0.2885  0.2144
   21loPI    C2  322  12.337  10.122  10.872 -0.1293  0.2132 -0.0548
   21loPI    C3  323  12.067  10.339  11.072 -0.0049  0.1746  0.1577
   21loPI   PO4  324  12.282  10.462  10.440 -0.0741 -0.0710  0.1900
   21loPI   GL1  325  12.596  10.442  10.074  0.1680  0.0921  0.0873
   21loPI   GL2  326  12.447  10.822  10.072 -0.0765  0.1620 -0.0635
   21loPI   C1A  327  12.612  10.492   9.661 -0.1391  0.2619 -0.0200
   21loPI   C2A  328  12.690  10.510   9.144 -0.2548  0.0203  0.0973
   21loPI   C3A  329  12.834  10.572   8.693 -0.3648 -0.1986 -0.1255
   21loPI   C4A  330  13.107  10.520   8.350 -0.1828 -0.2185  0.1538
   21loPI   C5A  331  13.576  10.601   8.197 -0.1808 -0.1422  0.1602
   21loPI   C6A  332  14.039  10.772   8.062  0.2535  0.1871  0.2648
   21loPI   C1B  333  12.210  10.802   9.723 -0.5830 -0.0330 -0.1599
   21loPI   C2B  334  12.352  10.849   9.340 -0.4361 -0.0243 -0.3476
   21loPI   C3B  335  12.329  10.985   8.954  0.0705  0.0238 -0.1424
   21loPI   C4B  336  12.612  10.972   8.495  0.2989 -0.0979 -0.2653
   22loPI    C1  337  12.210  15.915  11.077 -0.0980  0.0271 -0.0502
   22loPI    C2  338  12.041  15.606  11.267  0.0987 -0.0259  0.0413
   22loPI    C3  339  11.812  15.876  11.080 -0.0749 -0.2235 -0.0349
   22loPI   PO4  340  12.435  15.767  10.849  0.0563 -0.2160 -0.2481
   22loPI   GL1  341  12.425  15.990  10.423 -0.1675 -0.0548  0.0322
   22loPI   GL2  342  12.211  16.251  10.308 -0.0065  0.0873 -0.0200
   22loPI   C1A  343  12.401  15.902  10.064 -0.0221  0.0784 -0.1145
   22loPI   C2A  344  12.327  15.910   9.659 -0.0145 -0.1294  0.1537
   22loPI   C3A  345  12.274  15.886   9.202 -0.0262 -0.0537 -0.0806
   22loPI   C4A  346  12.249  15.962   8.785  0.0341 -0.0783  0.0408
   22loPI   C5A  347  12.524  16.009   8.413 -0.2129  0.0275 -0.0289
   22loPI   C6A  348  12.589  16.065   8.040 -0.0499  0.1473 -0.0347
   22loPI   C1B  349  12.141  16.350   9.894 -0.2020 -0.1705  0.0634
   22loPI   C2B  350  12.105  16.296   9.437  0.4303 -0.0457 -0.1437
   22loPI   C3B  351  12.031  16.340   9.064 -0.2945  0.0950 -0.2426
   22loPI   C4B  352  12.171  16.468   8.683  0.1047 -0.1249  0.0303
   23loPI    C1  353   4.391   4.927  11.338  0.2365  0.0860  0.1797
   23loPI    C2  354   4.173   4.596  11.392 -0.0876  0.2609 -0.0205
   23loPI    C3  355   4.323   4.790  11.708  0.1560 -0.1053  0.0960
   23loPI   PO4  356   4.230   5.034  11.016 -0.1056  0.3157  0.1337
   23loPI   GL1  357   4.186   4.968  10.526  0.2531  0.0930  0.0863
   23loPI   GL2  358   4.195   4.755  10.612  0.2783 -0.0500  0.1671
   23loPI   C1A  359   3.992   5.361  10.207  0.0616 -0.3055 -0.1174
   23loPI   C2A  360   3.979   5.337   9.807 -0.0150  0.0352 -0.0972
   23loPI   C3A  361   3.860   5.330   9.374  0.1037 -0.0759 -0.0808
   23loPI   C4A  362   3.863   5.289   8.981  0.2448  0.0833 -0.1309
   23loPI   C5A  363   3.674   5.504   8.773 -0.0204  0.0878 -0.1166
   23loPI   C6A  364   3.224   5.699   8.719 -0.3531 -0.1382 -0.0886
   23loPI   C1B  365   4.302   4.630  10.211  0.1544  0.0814  0.0489
   23loPI   C2B  366   4.287   4.616   9.779 -0.0056  0.3411  0.3744
   23loPI   C3B  367   4.161   4.474   9.354  0.2081 -0.0658 -0.0313
   23loPI   C4B  368   4.351   4.151   8.956  0.1948 -0.2844  0.0022
   24loPI    C1  369   7.164  14.481  11.035 -0.1132 -0.0205 -0.0308
   24loPI    C2  370   7.369  14.191  11.220  0.0084  0.1608  0.1227
   24loPI    C3  371   6.999  14.283  11.341 -0.0778 -0.0109 -0.0055
   24loPI   PO4  372   7.211  14.402  10.759 -0.1549 -0.1252  0.1633
   24loPI   GL1  373   7.392  14.439  10.497 -0.3325 -0.4019  0.0288
   24loPI   GL2  374   7.592  14.616  10.310 -0.2645  0.2479 -0.0328
   24loPI   C1A  375   7.530  14.099  10.270  0.1368  0.0812  0.0000
   24loPI   C2A  376   7.556  13.908   9.918 -0.0319 -0.0878 -0.1451
   24loPI   C3A  377   7.649  13.957   9.491 -0.2761  0.0471  0.0891
   24loPI   C4A  378   7.744  13.816   9.112 -0.1471 -0.0868  0.2783
   24loPI   C5A  379   7.873  13.757   8.636  0.2954 -0.2309 -0.1130
   24loPI   C6A  380   8.320  13.700   8.526 -0.1415  0.1553 -0.1779
   24loPI   C1B  381   7.953  14.798   9.986 -0.0383 -0.2970  0.1509
   24loPI   C2B  382   8.051  14.878   9.587 -0.3758  0.1452  0.2849
   24loPI   C3B  383   8.155  14.786   9.154  0.0122  0.0351 -0.2411
   24loPI   C4B  384   8.113  14.684   8.728 -0.2718 -0.0036  0.0288
   25loPI    C1  385   5.042  15.425  11.204 -0.0446  0.1588  0.1222
   25loPI    C2  386   5.352  15.438  11.456 -0.0396 -0.3826  0.1543
   25loPI    C3  387   4.992  15.326  11.588 -0.1668 -0.1184  0.0375
   25loPI   PO4  388   5.139  15.459  10.999  0.2347 -0.0789 -0.0201
   25loPI   GL1  389   5.128  15.833  10.685 -0.0649  0.1655 -0.2562
   25loPI   GL2  390   5.123  16.056  10.520 -0.0886 -0.0074 -0.0105
   25loPI   C1A  391   5.085  15.543  10.312  0.0427 -0.1594  0.3176
   25loPI   C2A  392   5.099  15.344   9.950  0.1919 -0.1928  0.0775
   25loPI   C3A  393   5.030  15.442   9.598  0.0544 -0.0625  0.1269
   25loPI   C4A  394   5.168  15.432   9.216  0.0694 -0.1786 -0.0194
   25loPI   C5A  395   5.018  15.480   8.917 -0.1938  0.0463 -0.0574
   25loPI   C6A  396   4.716  15.539   8.587  0.0604  0.0048 -0.4112
   25loPI   C1B  397   5.081  16.166  10.100 -0.1340  0.0702 -0.1173
   25loPI   C2B  398   5.234  16.260   9.795 -0.2586  0.0414 -0.1913
   25loPI   C3B  399   5.279  16.280   9.398  0.1370 -0.0035  0.0750
   25loPI   C4B  400   5.166  16.404   8.900  0.0980 -0.1291 -0.2393
   26loPI    C1  401   2.357  12.050  10.939 -0.1246  0.3205 -0.1294
   26loPI    C2  402   2.222  11.745  10.719  0.0174  0.1289  0.0457
   26loPI    C3  403   2.076  11.806  11.087  0.0378  0.2319  0.0369
   26loPI   PO4  404   2.445  12.259  10.794 -0.0036  0.0008  0.1212
   26loPI   GL1  405   2.528  12.638  10.551  0.1021  0.1865  0.1144
   26loPI   GL2  406   2.310  12.497  10.282  0.1260  0.0027  0.0968
   26loPI   C1A  407   2.660  12.808  10.065  0.2264  0.2022 -0.1805
   26loPI   C2A  408   2.650  12.816   9.612 -0.1600  0.0404  0.0258
   26loPI   C3A  409   2.676  12.833   9.242 -0.1764  0.1054  0.3838
   26loPI   C4A  410   2.524  12.843   8.956  0.2624 -0.2067  0.0588
   26loPI   C5A  411   2.293  12.779   8.605 -0.3552  0.0529 -0.1810
   26loPI   C6A  412   2.151  12.546   8.235  0.0819 -0.0995 -0.0115
   26loPI   C1B  413   2.268  12.478   9.794 -0.1041 -0.0539 -0.1833
   26loPI   C2B  414   2.234  12.586   9.270 -0.1665  0.0166 -0.0310
   26loPI   C3B  415   2.279  12.394   8.893 -0.0951 -0.0173  0.0823
   26loPI   C4B  416   2.101  12.160   8.548  0.1427 -0.3546 -0.0203
   27loPI    C1  417   6.739   3.426  11.044  0.2887 -0.2152 -0.0425
   27loPI    C2  418   6.459   3.294  11.297 -0.1595 -0.0359 -0.4291
   27loPI    C3  419   6.793   3.463  11.438 -0.2108 -0.3111  0.0415
   27loPI   PO4  420   6.679   3.568  10.852  0.0279  0.0616 -0.2812
   27loPI   GL1  421   6.972   3.698  10.504  0.4339  0.0277  0.3169
   27loPI   GL2  422   7.272   3.742  10.454 -0.0378 -0.2656 -0.0164
   27loPI   C1A  423   7.191   3.327  10.254  0.0834  0.2303 -0.3971
   27loPI   C2A  424   7.164   3.070   9.937  0.0689 -0.3102  0.0479
   27loPI   C3A  425   7.154   2.967   9.568  0.0979  0.2259  0.1434
   27loPI   C4A  426   7.028   2.658   9.289 -0.1241  0.2615 -0.0125
   27loPI   C5A  427   6.865   2.395   9.021 -0.1611  0.1518  0.1482
   27loPI   C6A  428   6.553   2.560   8.807  0.2075  0.0554  0.0490
   27loPI   C1B  429   7.241   3.780  10.056  0.1732 -0.2237  0.1703
   27loPI   C2B  430   7.262   3.563   9.632  0.0223  0.0239  0.1517
   27loPI   C3B  431   7.359   3.343   9.242  0.0016 -0.2031 -0.3456
   27loPI   C4B  432   7.408   3.050   9.020 -0.1139 -0.1858 -0.2589
   28loPI    C1  433   2.213   5.583  10.945 -0.0262 -0.0841 -0.1697
   28loPI    C2  434   2.265   5.773  11.293 -0.1220  0.0348 -0.2194
   28loPI    C3  435   2.052   5.434  11.279  0.0738 -0.0942 -0.1257
   28loPI   PO4  436   2.206   5.806  10.756 -0.2165  0.1908  0.2477
   28loPI   GL1  437   2.182   5.758  10.329 -0.0571 -0.2351  0.2012
   28loPI   GL2  438   2.449   5.549  10.341  0.1167  0.0747  0.0756
   28loPI   C1A  439   1.940   5.762   9.976 -0.0218 -0.2591  0.0704
   28loPI   C2A  440   1.999   5.770   9.529 -0.0818  0.1809 -0.1288
   28loPI   C3A  441   2.004   5.579   9.070 -0.2781  0.1687 -0.2939
   28loPI   C4A  442   2.066   5.293   8.736  0.1673 -0.3732 -0.0180
   28loPI   C5A  443   1.959   4.808   8.759 -0.2577  0.1561  0.3721
   28loPI   C6A  444   2.165   4.429   8.675 -0.2314 -0.1813  0.1086
   28loPI   C1B  445   2.431   5.700   9.862  0.0630  0.0577 -0.0058
   28loPI   C2B  446   2.534   5.761   9.420 -0.0773  0.1281  0.2852
   28loPI   C3B  447   2.392   5.866   9.003 -0.2005  0.0412 -0.0753
   28loPI   C4B  448   2.487   5.673   8.629  0.1004 -0.0461  0.2015
   29loPI    C1  449   8.697   6.066  10.931 -0.1111 -0.0024 -0.0106
   29loPI    C2  450   8.956   6.365  10.987 -0.0743 -0.0091 -0.1415
   29loPI    C3  451   8.735   6.232  11.292  0.0121  0.0561 -0.0500
   29loPI   PO4  452   8.822   5.869  10.795 -0.0179 -0.2429  0.1389
   29loPI   GL1  453   9.103   5.951  10.503  0.0650  0.2284  0.2224
   29loPI   GL2  454   8.827   6.249  10.451  0.0902  0.0817 -0.2258
   29loPI   C1A  455   9.205   6.118   9.964  0.0437  0.0995 -0.0266
   29loPI   C2A  456   9.172   6.100   9.508 -0.1368 -0.2031  0.1313
   29loPI   C3A  457   9.258   5.931   9.074  0.0215  0.0293  0.1007
   29loPI   C4A  458   9.177   6.000   8.695 -0.1300 -0.0496 -0.0354
   29loPI   C5A  459   9.233   6.373   8.305  0.1600 -0.2244 -0.1539
   29loPI   C6A  460   9.287   6.831   8.136 -0.1706 -0.1516 -0.0912
   29loPI   C1B  461   8.681   6.139  10.030 -0.0873 -0.4532 -0.1475
   29loPI   C2B  462   8.623   6.129   9.601  0.1226 -0.1411  0.2201
   29loPI   C3B  463   8.845   6.097   9.165  0.0188 -0.0496 -0.2576
   29loPI   C4B  464   8.640   6.201   8.792  0.0292  0.2214 -0.0613
   30loPI    C1  465  13.800  12.976  10.885 -0.0620  0.0509  0.1500
   30loPI    C2  466  14.103  13.213  10.995  0.1378 -0.1232 -0.0149
   30loPI    C3  467  13.861  13.056  11.272  0.0642  0.1891  0.1027
   30loPI   PO4  468  13.705  13.177  10.707 -0.0778  0.3654 -0.4962
   30loPI   GL1  469  13.591  12.996  10.339  0.0536 -0.0071 -0.1416
   30loPI   GL2  470  13.809  13.186  10.207  0.0429  0.2469  0.1661
   30loPI   C1A  471  13.426  12.789   9.908 -0.0023 -0.2495  0.1261
   30loPI   C2A  472  13.439  12.904   9.390 -0.2231  0.0324 -0.0886
   30loPI   C3A  473  13.251  12.918   8.920 -0.0065 -0.0536 -0.1129
   30loPI   C4A  474  12.968  13.192   8.721 -0.0211  0.0355  0.2148
   30loPI   C5A  475  12.857  13.547   8.483  0.3574 -0.0195 -0.2319
   30loPI   C6A  476  13.036  13.831   8.176 -0.2569 -0.1042 -0.0702
   30loPI   C1B  477  13.792  13.125   9.714 -0.2521 -0.0640 -0.0897
   30loPI   C2B  478  13.836  13.353   9.321  0.0347  0.3344 -0.3191
   30loPI   C3B  479  13.727  13.107   8.993 -0.0528 -0.0021 -0.0392
   30loPI   C4B  480  13.696  12.722   8.876  0.0159 -0.0934  0.0478
   31loPI    C1  481  14.989  13.314  10.762  0.0685  0.0144 -0.0422
   31loPI    C2  482  14.932  13.016  11.023  0.1532  0.0117 -0.0266
   31loPI    C3  483  14.634  13.270  10.942  0.0610 -0.1144 -0.0869
   31loPI   PO4  484  15.011  13.137  10.556  0.1393  0.1453  0.2690
   31loPI   GL1  485  14.973  13.140  10.137  0.2016 -0.2152 -0.1202
   31loPI   GL2  486  14.654  12.956  10.211  0.0889 -0.3370 -0.0706
   31loPI   C1A  487  14.903  13.241   9.735 -0.2429  0.0124  0.0393
   31loPI   C2A  488  14.928  13.325   9.233  0.0032 -0.0769  0.2425
   31loPI   C3A  489  14.943  13.341   8.787 -0.2218 -0.1367 -0.2460
   31loPI   C4A  490  14.864  13.131   8.490  0.1257 -0.1578  0.1023
   31loPI   C5A  491  14.474  13.145   8.243  0.0658  0.0908 -0.0539
   31loPI   C6A  492  14.018  13.240   8.260 -0.2122  0.1337 -0.1973
   31loPI   C1B  493  14.714  12.654   9.859 -0.2223 -0.2220 -0.2425
   31loPI   C2B  494  14.632  12.456   9.474  0.0154  0.2203  0.1330
   31loPI   C3B  495  14.466  12.501   9.057 -0.1619 -0.1208 -0.1242
   31loPI   C4B  496  14.086  12.473   8.756  0.2093 -0.0851  0.3716
   32loPI    C1  497  15.304   4.613  10.935 -0.0568  0.1835 -0.0114
   32loPI    C2  498  15.685   4.523  10.853 -0.0389  0.3978 -0.1724
   32loPI    C3  499  15.543   4.472  11.223  0.0953  0.1484 -0.1527
   32loPI   PO4  500  15.266   4.807  10.771  0.1001 -0.1760 -0.1640
   32loPI   GL1  501  15.516   4.949  10.560 -0.0368  0.1583  0.0401
   32loPI   GL2  502  15.478   5.307  10.372 -0.1752 -0.0555  0.1017
   32loPI   C1A  503  15.630   4.873  10.162  0.0541  0.0817  0.0827
   32loPI   C2A  504  15.685   4.830   9.733  0.1259 -0.1167  0.0087
   32loPI   C3A  505  15.847   4.833   9.403  0.4704 -0.0959  0.0119
   32loPI   C4A  506  15.921   4.873   8.963 -0.0690 -0.2273  0.2030
   32loPI   C5A  507  16.069   4.978   8.494 -0.1675 -0.1871  0.0449
   32loPI   C6A  508  16.393   4.996   8.312 -0.0511 -0.2030 -0.0351
   32loPI   C1B  509  15.292   5.557  10.130  0.1433 -0.1144  0.1098
   32loPI   C2B  510  15.167   5.490   9.729  0.2774 -0.0303  0.0485
   32loPI   C3B  511  15.110   5.342   9.304 -0.1376 -0.2008 -0.0621
   32loPI   C4B  512  15.148   5.245   8.944  0.0397 -0.0160  0.2393
   33loPI    C1  513  15.025   6.267  11.399  0.0335 -0.0548  0.0521
   33loPI    C2  514  15.106   5.938  11.612  0.0751  0.0413  0.1856
   33loPI    C3  515  15.017   6.281  11.799 -0.0751  0.0795  0.0460
   33loPI   PO4  516  14.917   6.135  11.141  0.1710  0.1549 -0.0121
   33loPI   GL1  517  15.149   5.999  10.758  0.0634 -0.1168 -0.2249
   33loPI   GL2  518  15.445   6.100  10.735  0.1770 -0.0856 -0.0247
   33loPI   C1A  519  14.993   6.042  10.359 -0.0252  0.0514  0.0010
   33loPI   C2A  520  15.138   6.047   9.974  0.1624  0.0747 -0.0049
   33loPI   C3A  521  15.149   5.927   9.561  0.0714 -0.2916 -0.0498
   33loPI   C4A  522  15.183   5.748   9.161 -0.0663 -0.2160  0.1287
   33loPI   C5A  523  15.341   5.649   8.728 -0.0476 -0.1010  0.1030
   33loPI   C6A  524  15.432   5.417   8.344  0.0560 -0.3505  0.4734
   33loPI   C1B  525  15.457   6.200  10.310 -0.1883  0.0428 -0.1969
   33loPI   C2B  526  15.541   6.407   9.879  0.3010 -0.0839  0.0447
   33loPI   C3B  527  15.547   6.453   9.499 -0.0833 -0.2904  0.2108
   33loPI   C4B  528  15.618   6.630   9.086  0.1205 -0.0075 -0.2548
   34loPI    C1  529   5.626  16.822  11.307  0.0029  0.1751  0.2324
   34loPI    C2  530   5.551  16.693  11.678 -0.1288  0.3219  0.2578
   34loPI    C3  531   5.908  16.624  11.511 -0.1289  0.1017  0.3447
   34loPI   PO4  532   5.426  16.717  11.141 -0.3480  0.1166 -0.2123
   34loPI   GL1  533   5.341  16.859  10.724 -0.1996  0.0324  0.1904
   34loPI   GL2  534   5.209  16.574  10.464  0.2051  0.0789 -0.2949
   34loPI   C1A  535   5.493  16.954  10.270  0.0013 -0.1252  0.1596
   34loPI   C2A  536   5.473  17.103   9.806  0.0444  0.0685 -0.0265
   34loPI   C3A  537   5.412  17.193   9.429 -0.0341  0.2117  0.1071
   34loPI   C4A  538   5.275  17.287   8.999  0.0889  0.0316  0.0938
   34loPI   C5A  539   4.936  17.421   8.767 -0.1376  0.0402 -0.1039
   34loPI   C6A  540   4.826  17.342   8.386  0.0974 -0.2100 -0.0624
   34loPI   C1B  541   5.090  16.676   9.985 -0.0376  0.2951  0.2061
   34loPI   C2B  542   5.098  16.755   9.571 -0.1846  0.0756  0.3880
   34loPI   C3B  543   5.200  16.832   9.159 -0.2945 -0.1255 -0.0235
   34loPI   C4B  544   5.047  16.900   8.674  0.2119  0.1438 -0.1134
   35loPI    C1  545  13.141   8.919  10.924 -0.0622  0.0742 -0.0788
   35loPI    C2  546  13.232   9.217  11.174  0.0394  0.0740 -0.1147
   35loPI    C3  547  13.437   8.874  11.189 -0.0518  0.0198 -0.0993
   35loPI   PO4  548  13.111   9.042  10.635 -0.0404 -0.0210 -0.0431
   35loPI   GL1  549  12.963   9.245  10.340 -0.0398 -0.0589  0.1527
   35loPI   GL2  550  12.836   9.436  10.347 -0.0496 -0.0325 -0.1925
   35loPI   C1A  551  13.092   9.120   9.932  0.1433  0.2026  0.0343
   35loPI   C2A  552  12.981   9.236   9.591  0.1117  0.0400 -0.0671
   35loPI   C3A  553  12.825   9.177   9.205 -0.2719 -0.1440 -0.0192
   35loPI   C4A  554  12.789   9.107   8.776 -0.0232  0.6974  0.0384
   35loPI   C5A  555  13.021   9.002   8.371  0.0234  0.0664 -0.2169
   35loPI   C6A  556  13.235   9.214   7.997  0.2090 -0.2737 -0.1358
   35loPI   C1B  557  12.709   9.444   9.903  0.1553 -0.0637 -0.2836
   35loPI   C2B  558  12.545   9.580   9.481  0.0051 -0.1499 -0.3079
   35loPI   C3B  559  12.476   9.598   9.055  0.0505  0.1220 -0.1559
   35loPI   C4B  560  12.508   9.499   8.651  0.0671 -0.2153  0.1288
   36loPI    C1  561   5.962   9.308  10.826 -0.0128 -0.1951  0.0060
   36loPI    C2  562   5.575   9.349  10.918  0.0272  0.0180  0.0839
   36loPI    C3  563   5.819   9.154  11.167 -0.0561 -0.2389 -0.0318
   36loPI   PO4  564   5.901   9.318  10.547 -0.0975 -0.2283 -0.1062
   36loPI   GL1  565   5.589   9.139  10.258 -0.2613 -0.0591 -0.1668
   36loPI   GL2  566   5.506   9.420  10.070  0.1589  0.2257  0.0217
   36loPI   C1A  567   5.659   9.018   9.829  0.0122 -0.2071 -0.1108
   36loPI   C2A  568   5.656   8.887   9.376  0.0726 -0.0180 -0.1309
   36loPI   C3A  569   5.561   9.021   8.958  0.0041  0.0100 -0.0569
   36loPI   C4A  570   5.500   8.929   8.510  0.0753  0.1762  0.0702
   36loPI   C5A  571   5.478   8.553   8.284 -0.0508  0.0926 -0.1515
   36loPI   C6A  572   5.229   8.313   8.109 -0.0719 -0.0145  0.1845
   36loPI   C1B  573   5.512   9.438   9.566 -0.0530  0.0693 -0.2747
   36loPI   C2B  574   5.406   9.477   9.118 -0.3350 -0.0720  0.0790
   36loPI   C3B  575   5.547   9.471   8.709  0.2113  0.2008 -0.1240
   36loPI   C4B  576   5.533   9.743   8.386  0.0097 -0.1630 -0.3037
   37loPI    C1  577   6.745  15.131  10.813  0.3258 -0.1033  0.2636
   37loPI    C2  578   6.425  15.020  11.027  0.2292  0.0841  0.2190
   37loPI    C3  579   6.785  14.864  11.108  0.0944 -0.2769  0.1410
   37loPI   PO4  580   6.673  15.108  10.515  0.0089  0.2002  0.2747
   37loPI   GL1  581   6.553  14.881  10.149 -0.1305  0.1704  0.2176
   37loPI   GL2  582   6.259  15.115  10.187 -0.2187  0.2662  0.0866
   37loPI   C1A  583   6.422  14.711   9.810  0.0892  0.3387  0.1499
   37loPI   C2A  584   6.424  14.564   9.343  0.0189  0.1064 -0.0658
   37loPI   C3A  585   6.184  14.589   9.052  0.0840  0.0243 -0.0273
   37loPI   C4A  586   6.046  14.294   8.754 -0.1512 -0.4085 -0.0557
   37loPI   C5A  587   6.305  14.169   8.502  0.1245 -0.3530  0.1823
   37loPI   C6A  588   6.686  13.969   8.576 -0.1521 -0.1142 -0.1021
   37loPI   C1B  589   6.175  15.265   9.967  0.1397 -0.1825  0.3382
   37loPI   C2B  590   6.122  15.108   9.623 -0.2523  0.1291 -0.0536
   37loPI   C3B  591   6.062  15.178   9.248  0.1657 -0.2360  0.1384
   37loPI   C4B  592   5.819  15.507   9.093  0.1240 -0.2336 -0.0925
   38loPI    C1  593   0.913  14.590  11.244 -0.1749  0.0457 -0.1110
   38loPI    C2  594   0.784  14.259  11.428 -0.1448  0.0482 -0.0851
   38loPI    C3  595   1.171  14.359  11.444 -0.1838  0.1813  0.0593
   38loPI   PO4  596   0.672  14.654  11.060 -0.1369  0.4020 -0.0108
   38loPI   GL1  597   0.571  14.924  10.687  0.1089  0.2198 -0.2582
   38loPI   GL2  598   0.278  14.819  10.589  0.0860 -0.2581 -0.1508
   38loPI   C1A  599   0.777  14.738  10.267  0.0473  0.0931  0.0071
   38loPI   C2A  600   0.796  14.872   9.821  0.2660  0.1775 -0.0231
   38loPI   C3A  601   0.668  15.189   9.652  0.1652  0.0354 -0.2063
   38loPI   C4A  602   0.393  15.332   9.334 -0.2608 -0.1957  0.0879
   38loPI   C5A  603   0.361  15.532   8.843  0.0688 -0.0177  0.0166
   38loPI   C6A  604   0.790  15.687   8.561 -0.2853 -0.0169  0.1394
   38loPI   C1B  605  -0.019  15.139  10.393 -0.1389 -0.3484 -0.0006
   38loPI   C2B  606  -0.405  15.203  10.119 -0.0418 -0.3245  0.0545
   38loPI   C3B  607  -0.362  15.192   9.691  0.5110 -0.1342  0.2901
   38loPI   C4B  608  -0.546  15.385   9.336  0.1526 -0.2025  0.3691
   39loPI    C1  609  12.343  13.258  11.074 -0.3750  0.0848  0.0106
   39loPI    C2  610  12.093  12.980  11.216  0.0247 -0.2374  0.1029
   39loPI    C3  611  12.419  12.870  11.012 -0.0555  0.1866 -0.2702
   39loPI   PO4  612  12.155  13.381  10.927  0.1625 -0.1006  0.1264
   39loPI   GL1  613  11.779  13.252  10.596  0.2426  0.1599  0.1576
   39loPI   GL2  614  11.972  13.029  10.650  0.3692  0.3152 -0.1817
   39loPI   C1A  615  11.772  13.195  10.162  0.0130  0.1602  0.3259
   39loPI   C2A  616  11.801  13.203   9.741 -0.1021  0.0829 -0.0120
   39loPI   C3A  617  11.825  13.202   9.303  0.3157  0.0260  0.1776
   39loPI   C4A  618  11.910  13.080   8.855 -0.0590 -0.1863 -0.0395
   39loPI   C5A  619  11.807  12.844   8.496  0.2249 -0.2991 -0.0580
   39loPI   C6A  620  11.575  12.758   8.103  0.1185 -0.2446 -0.0006
   39loPI   C1B  621  11.891  12.762  10.405  0.2150  0.0627  0.2818
   39loPI   C2B  622  11.895  12.770   9.947 -0.2205  0.1822 -0.0645
   39loPI   C3B  623  11.967  12.733   9.502 -0.1542 -0.2905 -0.1547
   39loPI   C4B  624  11.894  12.635   9.070 -0.0593 -0.3565 -0.2412
   40loPI    C1  625   3.839   7.746  11.220 -0.0145 -0.1873 -0.0352
   40loPI    C2  626   3.733   7.500  11.517 -0.1294  0.0599  0.1320
   40loPI    C3  627   4.019   7.773  11.576 -0.0163 -0.0183 -0.0466
   40loPI   PO4  628   3.871   7.555  10.983 -0.2854  0.1899  0.0759
   40loPI   GL1  629   4.038   7.485  10.654  0.2426  0.3936  0.0758
   40loPI   GL2  630   4.023   7.671  10.444 -0.0986  0.2086 -0.2348
   40loPI   C1A  631   4.014   7.112  10.326 -0.3390 -0.5239 -0.0386
   40loPI   C2A  632   4.161   6.859  10.082  0.0450 -0.1293 -0.2348
   40loPI   C3A  633   4.175   6.678   9.639 -0.1581 -0.3722  0.2414
   40loPI   C4A  634   4.065   6.741   9.196  0.5840 -0.1090 -0.1314
   40loPI   C5A  635   4.180   6.750   8.722 -0.3398  0.1349  0.0677
   40loPI   C6A  636   4.547   6.886   8.499  0.3678  0.0406 -0.0723
   40loPI   C1B  637   4.308   7.523  10.172  0.3595  0.2235  0.1079
   40loPI   C2B  638   4.236   7.566   9.731 -0.1947  0.1782 -0.0804
   40loPI   C3B  639   4.030   7.777   9.368  0.1321  0.1224  0.1580
   40loPI   C4B  640   4.095   7.777   8.930  0.2785  0.2838 -0.1036
   41loPI    C1  641   0.918   9.978  10.687 -0.2024 -0.2660 -0.1611
   41loPI    C2  642   0.980  10.154  11.041  0.1121 -0.1222 -0.2838
   41loPI    C3  643   0.710   9.860  11.008  0.1893 -0.2433  0.1085
   41loPI   PO4  644   0.803  10.148  10.444 -0.0577  0.2575 -0.5343
   41loPI   GL1  645   0.928  10.039  10.028 -0.0103 -0.2497  0.0118
   41loPI   GL2  646   0.786  10.091   9.723 -0.3643  0.1837 -0.0350
   41loPI   C1A  647   0.771   9.613   9.797 -0.0325  0.1577 -0.2728
   41loPI   C2A  648   0.732   9.565   9.375 -0.0818  0.0562 -0.2097
   41loPI   C3A  649   0.701   9.523   8.992  0.3820 -0.1428 -0.2249
   41loPI   C4A  650   0.610   9.352   8.562 -0.2279 -0.0892 -0.0074
   41loPI   C5A  651   0.250   9.343   8.361  0.1072  0.2634 -0.3059
   41loPI   C6A  652  -0.104   9.012   8.327  0.0883  0.1748 -0.0228
   41loPI   C1B  653   0.753  10.058   9.283  0.5360  0.4680 -0.3656
   41loPI   C2B  654   0.729  10.059   8.883  0.1296  0.3002 -0.1865
   41loPI   C3B  655   0.527  10.281   8.425 -0.0635  0.2895 -0.0608
   41loPI   C4B  656   0.276  10.485   8.356 -0.1058 -0.1602 -0.0502
   42loPI    C1  657   7.096   6.613  10.998 -0.2363  0.1766  0.1094
   42loPI    C2  658   6.817   6.365  10.856 -0.1394  0.0633  0.1155
   42loPI    C3  659   6.720   6.639  11.130 -0.3016  0.2020 -0.0780
   42loPI   PO4  660   7.169   6.792  10.762  0.1469 -0.1080 -0.1546
   42loPI   GL1  661   7.077   6.911  10.338  0.0770  0.2776 -0.1527
   42loPI   GL2  662   6.873   7.096  10.268  0.2521  0.0198  0.2126
   42loPI   C1A  663   7.047   6.583  10.061 -0.1209 -0.3728 -0.2437
   42loPI   C2A  664   7.044   6.521   9.646 -0.1416 -0.1711 -0.1989
   42loPI   C3A  665   7.124   6.533   9.184 -0.1082  0.0900  0.0773
   42loPI   C4A  666   7.311   6.502   8.732 -0.2344 -0.1245 -0.2692
   42loPI   C5A  667   7.128   6.523   8.360 -0.0073 -0.0697 -0.1150
   42loPI   C6A  668   6.824   6.487   8.115 -0.1887 -0.2296 -0.4031
   42loPI   C1B  669   6.897   6.995   9.790 -0.2123 -0.1734 -0.3357
   42loPI   C2B  670   6.887   6.971   9.335 -0.0326  0.2392  0.0334
   42loPI   C3B  671   7.031   6.944   8.921 -0.3088 -0.0827 -0.1299
   42loPI   C4B  672   7.333   7.041   8.637 -0.0563  0.3024  0.0224
   43loPI    C1  673  13.157   4.146  11.006  0.0691 -0.2013  0.1124
   43loPI    C2  674  12.913   4.239  11.309 -0.0204 -0.1752  0.0326
   43loPI    C3  675  13.308   4.295  11.345 -0.0121 -0.3397  0.2104
   43loPI   PO4  676  13.006   3.918  10.863  0.1605  0.0644 -0.0870
   43loPI   GL1  677  12.826   3.994  10.435  0.1779  0.1271  0.1594
   43loPI   GL2  678  12.683   3.781  10.278  0.1361  0.1215 -0.0041
   43loPI   C1A  679  12.985   4.143  10.018  0.4681 -0.0018 -0.0111
   43loPI   C2A  680  12.992   4.166   9.591 -0.3470 -0.2544  0.0080
   43loPI   C3A  681  12.971   4.229   9.135 -0.1468 -0.0003  0.0684
   43loPI   C4A  682  12.863   3.931   8.774 -0.0470 -0.0271  0.3283
   43loPI   C5A  683  12.614   3.667   8.442 -0.1521  0.0481  0.5766
   43loPI   C6A  684  12.323   3.418   8.102  0.0384  0.0795  0.0563
   43loPI   C1B  685  12.596   3.864   9.801 -0.2713  0.0149 -0.0399
   43loPI   C2B  686  12.616   3.940   9.399 -0.1615  0.0972  0.1495
   43loPI   C3B  687  12.409   4.021   9.009 -0.2118  0.0382  0.1730
   43loPI   C4B  688  12.036   4.272   8.780 -0.1739 -0.0681  0.1510
   44loPI    C1  689  11.205  15.307  10.877 -0.0658  0.0055 -0.1732
   44loPI    C2  690  10.834  15.451  10.834 -0.0113  0.2258  0.0744
   44loPI    C3  691  11.004  15.440  11.196  0.1450 -0.0752 -0.0047
   44loPI   PO4  692  11.228  15.094  10.855 -0.2957  0.2437  0.3401
   44loPI   GL1  693  11.082  14.878  10.535  0.0929 -0.2442  0.0764
   44loPI   GL2  694  10.844  14.651  10.487 -0.0203 -0.1372  0.3985
   44loPI   C1A  695  11.374  14.675  10.313 -0.1077  0.0396  0.1158
   44loPI   C2A  696  11.335  14.613   9.873  0.0435  0.0544  0.2448
   44loPI   C3A  697  11.312  14.640   9.416 -0.2962  0.1619  0.1633
   44loPI   C4A  698  11.154  14.626   9.118  0.3320 -0.1483 -0.1046
   44loPI   C5A  699  11.284  14.517   8.719 -0.3463 -0.2643  0.1558
   44loPI   C6A  700  11.655  14.604   8.523 -0.1720  0.0625  0.1272
   44loPI   C1B  701  10.861  14.788  10.061 -0.4594 -0.0556  0.1165
   44loPI   C2B  702  10.806  14.853   9.534  0.1324  0.1976 -0.1378
   44loPI   C3B  703  10.759  14.974   9.128  0.2738 -0.2533  0.0721
   44loPI   C4B  704  10.573  14.811   8.797  0.0425 -0.1528  0.2521
   45loPI    C1  705  14.877   1.874  11.128  0.1402  0.0869  0.0966
   45loPI    C2  706  15.255   1.751  11.081  0.1051 -0.0378  0.1369
   45loPI    C3  707  15.159   1.990  11.387  0.2115  0.2555 -0.0543
   45loPI   PO4  708  14.825   1.901  10.883 -0.0453 -0.1811  0.0254
   45loPI   GL1  709  14.574   1.982  10.410  0.2407  0.0858 -0.0974
   45loPI   GL2  710  14.783   1.775  10.382 -0.1165 -0.1741  0.1148
   45loPI   C1A  711  14.499   2.194  10.090  0.0551 -0.0584  0.1547
   45loPI   C2A  712  14.362   2.176   9.629  0.0040  0.0067 -0.4441
   45loPI   C3A  713  13.968   2.158   9.513 -0.0885 -0.0002  0.2005
   45loPI   C4A  714  13.891   2.432   9.271  0.2637  0.3178  0.0753
   45loPI   C5A  715  14.077   2.506   8.827  0.4141 -0.0119 -0.0947
   45loPI   C6A  716  14.356   2.762   8.566 -0.1063  0.2256 -0.1183
   45loPI   C1B  717  14.784   1.695   9.996  0.1630  0.1245 -0.0222
   45loPI   C2B  718  15.029   1.623   9.582  0.0656  0.1496  0.0175
   45loPI   C3B  719  15.154   1.500   9.193  0.0066 -0.1354  0.0911
   45loPI   C4B  720  15.350   1.888   9.048 -0.1926  0.0866  0.1895
   46loPI    C1  721  12.754   9.330  10.924  0.0704  0.1478 -0.1022
   46loPI    C2  722  12.650   9.693  11.057  0.1443  0.1360 -0.0108
   46loPI    C3  723  12.805   9.424  11.310 -0.2892 -0.1028  0.0125
   46loPI   PO4  724  12.507   9.281  10.728  0.0361  0.1296  0.2989
   46loPI   GL1  725  12.383   9.177  10.283 -0.4706 -0.0483 -0.0825
   46loPI   GL2  726  12.041   9.175  10.228  0.0406 -0.0501  0.2899
   46loPI   C1A  727  12.399   8.980   9.949 -0.1598 -0.0904  0.1507
   46loPI   C2A  728  12.489   9.023   9.541 -0.1597 -0.0443 -0.1442
   46loPI   C3A  729  12.339   9.077   9.118  0.2203 -0.1436  0.0670
   46loPI   C4A  730  12.306   9.083   8.746 -0.0595 -0.2891  0.0744
   46loPI   C5A  731  12.087   9.061   8.294  0.3012 -0.1895 -0.1921
   46loPI   C6A  732  11.766   9.275   8.083  0.1720 -0.2813 -0.2267
   46loPI   C1B  733  11.935   9.333   9.789  0.0963 -0.0179  0.1518
   46loPI   C2B  734  11.928   9.352   9.351  0.0317 -0.1737  0.0616
   46loPI   C3B  735  11.987   9.475   8.961  0.3343 -0.0294  0.0816
   46loPI   C4B  736  11.963   9.577   8.498 -0.1341 -0.0788 -0.1863
   47loPI    C1  737  12.970   0.234  11.337  0.0864  0.0052  0.0376
   47loPI    C2  738  12.974  -0.018  11.647  0.1364 -0.0536 -0.0106
   47loPI    C3  739  13.166   0.332  11.671  0.0961 -0.0350  0.0438
   47loPI   PO4  740  13.035   0.038  11.154 -0.2179  0.0698  0.2036
   47loPI   GL1  741  13.056   0.044  10.698 -0.3396 -0.2174  0.4065
   47loPI   GL2  742  12.784   0.154  10.499  0.1803  0.0273 -0.3025
   47loPI   C1A  743  13.076  -0.152  10.256  0.0080  0.0560  0.0788
   47loPI   C2A  744  13.173  -0.063   9.942  0.3983  0.0072  0.3783
   47loPI   C3A  745  13.067  -0.200   9.553 -0.0284  0.2170 -0.3723
   47loPI   C4A  746  13.085  -0.009   9.120 -0.2160  0.1319  0.1734
   47loPI   C5A  747  13.198   0.116   8.675 -0.0970  0.0762  0.3490
   47loPI   C6A  748  13.210   0.277   8.202 -0.0318 -0.0423  0.0089
   47loPI   C1B  749  12.640   0.008  10.142 -0.0921  0.0427  0.2971
   47loPI   C2B  750  12.597  -0.035   9.712  0.2007  0.0643 -0.3488
   47loPI   C3B  751  12.536   0.153   9.376 -0.1590 -0.2186  0.0852
   47loPI   C4B  752  12.614   0.300   8.997  0.1115 -0.2818 -0.1488
   48loPI    C1  753  11.738   6.358  11.080 -0.0399  0.1940 -0.0714
   48loPI    C2  754  11.393   6.498  11.227 -0.0760 -0.0373  0.0699
   48loPI    C3  755  11.671   6.352  11.474  0.1124  0.1201 -0.0459
   48loPI   PO4  756  11.654   6.198  10.894  0.2550  0.2032 -0.1560
   48loPI   GL1  757  11.572   6.022  10.509 -0.2665  0.0154 -0.0041
   48loPI   GL2  758  11.915   5.922  10.472 -0.2121  0.0300  0.2430
   48loPI   C1A  759  11.609   5.988  10.047  0.2777  0.0350 -0.2566
   48loPI   C2A  760  11.888   6.018   9.682 -0.1488 -0.1643  0.0636
   48loPI   C3A  761  12.157   6.284   9.393  0.0488 -0.0146  0.0405
   48loPI   C4A  762  12.090   6.164   8.924  0.3659 -0.1572 -0.2457
   48loPI   C5A  763  11.863   6.103   8.522 -0.4830 -0.1720  0.0129
   48loPI   C6A  764  12.078   6.164   8.056 -0.0342 -0.0943  0.0411
   48loPI   C1B  765  12.221   5.890  10.067  0.0252  0.2936  0.3229
   48loPI   C2B  766  12.392   5.996   9.720  0.1992 -0.0667 -0.2925
   48loPI   C3B  767  12.663   6.243   9.424  0.0793 -0.0898  0.2658
   48loPI   C4B  768  12.878   6.375   9.042  0.1052  0.1660  0.1565
   49loPI    C1  769   0.408   4.824  11.011  0.0629  0.1693 -0.1008
   49loPI    C2  770   0.210   4.730  11.346  0.2566 -0.0081 -0.0338
   49loPI    C3  771   0.482   5.023  11.350  0.1323  0.1092 -0.0803
   49loPI   PO4  772   0.582   4.661  10.936 -0.0159 -0.1931  0.1941
   49loPI   GL1  773   0.823   4.745  10.583 -0.1025  0.0463 -0.3648
   49loPI   GL2  774   1.048   4.798  10.370  0.4342  0.2816  0.0530
   49loPI   C1A  775   0.593   4.586  10.276  0.0327 -0.0283 -0.0100
   49loPI   C2A  776   0.523   4.627   9.806  0.0566  0.0914 -0.2260
   49loPI   C3A  777   0.530   4.405   9.454 -0.0232  0.0586  0.0367
   49loPI   C4A  778   0.454   4.390   9.007  0.0552 -0.0534 -0.2853
   49loPI   C5A  779   0.516   4.701   8.641 -0.1583 -0.0236  0.3478
   49loPI   C6A  780   0.710   5.102   8.569  0.0069 -0.0602 -0.1573
   49loPI   C1B  781   0.980   4.744  10.007 -0.1752 -0.0670 -0.1628
   49loPI   C2B  782   0.971   4.758   9.583  0.1908  0.0829 -0.2556
   49loPI   C3B  783   0.981   4.618   9.189  0.2438 -0.0133  0.2672
   49loPI   C4B  784   0.986   4.696   8.741 -0.0715 -0.2422 -0.1038
   50loPI    C1  785   1.709  13.295  10.581 -0.2211  0.1211  0.1377
   50loPI    C2  786   1.433  13.198  10.853  0.0070  0.0266  0.3386
   50loPI    C3  787   1.786  13.010  10.850  0.0555  0.1177  0.0580
   50loPI   PO4  788   1.605  13.505  10.500  0.1650 -0.3384  0.3576
   50loPI   GL1  789   1.540  13.639  10.088 -0.3150 -0.0712  0.1392
   50loPI   GL2  790   1.626  13.905  10.159 -0.0453  0.2668  0.3404
   50loPI   C1A  791   1.288  13.761   9.704  0.3049 -0.0713  0.0626
   50loPI   C2A  792   1.384  13.788   9.255  0.3179 -0.3339  0.2385
   50loPI   C3A  793   1.304  13.962   8.900  0.2462  0.2953 -0.0250
   50loPI   C4A  794   1.190  13.979   8.514 -0.0385  0.1097  0.0044
   50loPI   C5A  795   1.469  14.027   8.124  0.2836  0.1008  0.0083
   50loPI   C6A  796   1.854  13.906   8.106 -0.3069  0.1810 -0.0901
   50loPI   C1B  797   2.120  13.999  10.021 -0.0565 -0.2136  0.0416
   50loPI   C2B  798   2.286  14.214   9.675  0.0987 -0.3420  0.1502
   50loPI   C3B  799   2.405  14.383   9.203 -0.1915 -0.2173 -0.0370
   50loPI   C4B  800   2.776  14.272   8.863 -0.0936 -0.0990  0.1822
   51loPI    C1  801   2.642   2.983  11.003  0.2052 -0.1750 -0.3411
   51loPI    C2  802   2.573   2.673  11.245  0.1032  0.0197 -0.1165
   51loPI    C3  803   2.890   2.907  11.307  0.0647  0.0832 -0.1580
   51loPI   PO4  804   2.602   2.939  10.706 -0.0492  0.1883  0.1132
   51loPI   GL1  805   2.392   3.018  10.429 -0.1059 -0.1486  0.0007
   51loPI   GL2  806   2.102   2.983  10.412  0.1361  0.3528 -0.1871
   51loPI   C1A  807   2.663   2.947  10.063 -0.0330 -0.1629  0.1807
   51loPI   C2A  808   2.584   2.881   9.677  0.1089 -0.0156  0.2058
   51loPI   C3A  809   2.498   2.822   9.241  0.1959  0.0702 -0.0640
   51loPI   C4A  810   2.390   2.832   8.805  0.0710 -0.0443  0.1753
   51loPI   C5A  811   2.312   2.459   8.610  0.1566  0.0656  0.0657
   51loPI   C6A  812   2.476   2.286   8.264  0.0563  0.0719 -0.1554
   51loPI   C1B  813   2.114   2.889   9.991 -0.2278  0.0705 -0.0939
   51loPI   C2B  814   2.072   2.820   9.531 -0.0356 -0.1118 -0.1406
   51loPI   C3B  815   1.863   2.977   9.177  0.1139  0.0687  0.1047
   51loPI   C4B  816   1.704   3.145   8.785  0.0108  0.0144 -0.1187
   52loPI    C1  817   8.253   8.876  10.888 -0.1748 -0.0762  0.1883
   52loPI    C2  818   8.048   9.159  11.081 -0.3567 -0.1656  0.1293
   52loPI    C3  819   8.237   8.873  11.287  0.1722  0.2257  0.2095
   52loPI   PO4  820   8.043   8.784  10.648  0.2113 -0.0789 -0.0251
   52loPI   GL1  821   7.889   8.598  10.250 -0.0147 -0.0216  0.2401
   52loPI   GL2  822   7.860   8.895  10.082 -0.1039  0.0787  0.0762
   52loPI   C1A  823   7.984   8.305  10.007  0.0255 -0.2018  0.2274
   52loPI   C2A  824   7.998   8.293   9.595 -0.2448 -0.1595 -0.3507
   52loPI   C3A  825   8.158   8.546   9.230  0.0792  0.0992  0.0500
   52loPI   C4A  826   8.037   8.632   8.823 -0.3070  0.2088 -0.1107
   52loPI   C5A  827   8.087   8.479   8.421  0.1412  0.3157  0.1472
   52loPI   C6A  828   8.038   8.211   8.150 -0.2006  0.0557  0.1141
   52loPI   C1B  829   7.765   8.754   9.697 -0.1534  0.1264 -0.0271
   52loPI   C2B  830   7.710   8.748   9.222  0.0275 -0.0217  0.3300
   52loPI   C3B  831   7.611   8.654   8.703  0.0529 -0.2339  0.0889
   52loPI   C4B  832   7.717   8.735   8.260  0.0106 -0.0330 -0.1242
   53loPI    C1  833   1.574   8.388  10.904 -0.2752  0.1521 -0.0370
   53loPI    C2  834   1.615   8.354  11.301 -0.2414 -0.0910 -0.0594
   53loPI    C3  835   1.268   8.479  11.145 -0.1950  0.1848  0.0529
   53loPI   PO4  836   1.799   8.478  10.800  0.1948 -0.1597 -0.3226
   53loPI   GL1  837   1.848   8.446  10.400  0.1038 -0.2648 -0.0132
   53loPI   GL2  838   1.673   8.278  10.304  0.1452  0.1586 -0.1368
   53loPI   C1A  839   2.048   8.737  10.204 -0.2566  0.0763 -0.0488
   53loPI   C2A  840   2.370   8.722   9.959 -0.1144 -0.2188  0.0410
   53loPI   C3A  841   2.433   8.591   9.552  0.0200  0.1333 -0.0041
   53loPI   C4A  842   2.262   8.756   9.233  0.0608  0.2074 -0.1384
   53loPI   C5A  843   1.871   8.959   9.114  0.0024 -0.1835 -0.0294
   53loPI   C6A  844   1.683   8.812   8.753  0.2223 -0.0321 -0.2331
   53loPI   C1B  845   1.602   8.251   9.951  0.2419  0.0413  0.0039
   53loPI   C2B  846   1.689   8.292   9.531  0.1539 -0.2756  0.2037
   53loPI   C3B  847   1.847   8.569   9.473 -0.1072 -0.0188  0.1172
   53loPI   C4B  848   1.996   8.931   9.675 -0.0548  0.0233  0.2211
   54loPI    C1  849   6.312   5.140  11.051  0.0216 -0.0338 -0.0612
   54loPI    C2  850   5.929   5.175  11.160 -0.0590 -0.1286 -0.3067
   54loPI    C3  851   6.180   4.951  11.377 -0.1324 -0.0341 -0.1232
   54loPI   PO4  852   6.230   5.129  10.750  0.0708 -0.0231 -0.0917
   54loPI   GL1  853   6.198   4.843  10.481  0.1257  0.0478 -0.1018
   54loPI   GL2  854   6.089   5.046  10.288  0.1100  0.0188  0.0486
   54loPI   C1A  855   6.081   4.559  10.220 -0.1082  0.2884 -0.0710
   54loPI   C2A  856   5.655   4.635   9.977 -0.0568 -0.3096  0.2859
   54loPI   C3A  857   5.529   4.672   9.552  0.2625 -0.0532 -0.0292
   54loPI   C4A  858   5.442   4.736   9.064  0.0254 -0.3997 -0.0729
   54loPI   C5A  859   5.604   4.817   8.539 -0.2282  0.0699 -0.2270
   54loPI   C6A  860   5.627   4.981   8.166 -0.0082  0.1698  0.1626
   54loPI   C1B  861   6.085   4.962   9.839  0.4527  0.1568 -0.1591
   54loPI   C2B  862   6.118   5.042   9.523  0.1600  0.0846  0.0240
   54loPI   C3B  863   6.160   5.389   9.166 -0.0983 -0.2057 -0.0646
   54loPI   C4B  864   6.232   5.465   8.763 -0.0315  0.1106 -0.0872
   55loPI    C1  865   0.782  16.399  10.916 -0.0028 -0.0851 -0.0176
   55loPI    C2  866   0.681  16.708  10.683 -0.0780 -0.1292 -0.0442
   55loPI    C3  867   0.814  16.773  11.054 -0.4010 -0.0769  0.0659
   55loPI   PO4  868   0.908  16.208  10.673 -0.0403  0.3518  0.0669
   55loPI   GL1  869   0.983  16.324  10.344 -0.0047 -0.0738 -0.0031
   55loPI   GL2  870   0.846  16.053  10.203 -0.1115  0.4344 -0.1116
   55loPI   C1A  871   1.239  16.222   9.976 -0.0630 -0.2179 -0.3709
   55loPI   C2A  872   1.142  16.326   9.623 -0.2445 -0.0692 -0.1827
   55loPI   C3A  873   1.156  16.404   9.167  0.1334 -0.1416  0.3908
   55loPI   C4A  874   1.361  16.192   8.907 -0.1158 -0.0097 -0.2350
   55loPI   C5A  875   1.499  16.103   8.570  0.0768 -0.0348 -0.1344
   55loPI   C6A  876   1.268  15.985   8.236 -0.2375  0.0211 -0.1017
   55loPI   C1B  877   0.774  16.052   9.830  0.0654 -0.0354  0.2331
   55loPI   C2B  878   0.697  16.148   9.439 -0.1174  0.0284  0.0104
   55loPI   C3B  879   0.768  16.022   9.002 -0.1845 -0.1593 -0.1454
   55loPI   C4B  880   0.917  16.207   8.632 -0.0751  0.1838 -0.1458
   56loPI    C1  881  14.426   2.950  10.980 -0.1690  0.1544 -0.1427
   56loPI    C2  882  14.593   3.112  11.305 -0.0441 -0.0850 -0.0852
   56loPI    C3  883  14.259   2.894  11.339 -0.0884 -0.0248 -0.1322
   56loPI   PO4  884  14.598   2.816  10.870 -0.3613 -0.1951 -0.0260
   56loPI   GL1  885  14.885   2.895  10.505 -0.1126  0.0487 -0.1437
   56loPI   GL2  886  15.159   3.119  10.522 -0.1564 -0.1527  0.5455
   56loPI   C1A  887  14.656   2.655  10.176  0.2880 -0.2657  0.2234
   56loPI   C2A  888  14.669   2.567   9.788  0.0661  0.0648 -0.0175
   56loPI   C3A  889  14.817   2.550   9.449 -0.2830 -0.0667  0.1485
   56loPI   C4A  890  14.758   2.757   9.019  0.3283  0.0437  0.0949
   56loPI   C5A  891  14.629   3.072   8.764  0.0019  0.1739 -0.2427
   56loPI   C6A  892  14.921   3.351   8.502 -0.0259 -0.0520 -0.3566
   56loPI   C1B  893  15.177   2.832  10.143 -0.2070 -0.1386  0.1586
   56loPI   C2B  894  15.152   2.876   9.750 -0.0793  0.1500 -0.1492
   56loPI   C3B  895  15.139   3.005   9.334 -0.0101  0.1625 -0.1135
   56loPI   C4B  896  15.152   3.168   8.986  0.1788 -0.1227 -0.0929
   57loPI    C1  897   0.135  13.962  10.692 -0.0668  0.3733  0.0226
   57loPI    C2  898  -0.138  13.684  10.783  0.2938 -0.0132 -0.0448
   57loPI    C3  899  -0.019  13.946  11.061 -0.0495  0.0794  0.0197
   57loPI   PO4  900   0.116  14.070  10.442 -0.2772  0.1741 -0.3733
   57loPI   GL1  901   0.219  13.995  10.041 -0.2473 -0.0164 -0.1219
   57loPI   GL2  902   0.300  13.744   9.825  0.3502 -0.0313  0.0382
   57loPI   C1A  903   0.193  14.306   9.722  0.2103  0.1888  0.1429
   57loPI   C2A  904   0.392  14.238   9.329 -0.1991 -0.2726  0.0585
   57loPI   C3A  905   0.513  14.223   8.861 -0.0165 -0.0491  0.2160
   57loPI   C4A  906   0.867  14.347   8.651  0.1370  0.1228 -0.0571
   57loPI   C5A  907   1.129  14.562   8.283  0.1027 -0.1132  0.0745
   57loPI   C6A  908   1.256  14.504   7.856  0.0863  0.0418  0.0669
   57loPI   C1B  909   0.433  13.576   9.471  0.2042  0.0623 -0.0809
   57loPI   C2B  910   0.267  13.785   9.053 -0.2043 -0.1732  0.1674
   57loPI   C3B  911   0.265  13.875   8.576 -0.0550 -0.0169 -0.2482
   57loPI   C4B  912   0.177  14.187   8.250  0.0012 -0.0790  0.1202
   58loPI    C1  913  10.322   3.669  10.640  0.0597  0.1149 -0.3114
   58loPI    C2  914  10.009   3.867  10.790  0.1553  0.0395 -0.0046
   58loPI    C3  915  10.237   4.037  10.508 -0.1310  0.1130 -0.1968
   58loPI   PO4  916  10.266   3.404  10.467  0.1113 -0.0212 -0.0078
   58loPI   GL1  917  10.025   3.292  10.109 -0.4600 -0.0504 -0.1746
   58loPI   GL2  918   9.992   3.692  10.174  0.1760 -0.0543  0.1190
   58loPI   C1A  919  10.048   3.484   9.608  0.0224 -0.0537 -0.2119
   58loPI   C2A  920  10.042   3.371   9.191  0.0937 -0.1578  0.0957
   58loPI   C3A  921  10.011   3.203   8.854 -0.2640 -0.2482  0.0760
   58loPI   C4A  922  10.022   2.847   8.598  0.1383 -0.1131 -0.1709
   58loPI   C5A  923   9.963   2.417   8.529  0.1234  0.0984  0.2602
   58loPI   C6A  924   9.826   1.944   8.505 -0.0400  0.5644 -0.1445
   58loPI   C1B  925   9.584   3.547  10.018 -0.1718  0.1463  0.3900
   58loPI   C2B  926   9.512   3.515   9.616  0.1383 -0.3793 -0.0716
   58loPI   C3B  927   9.459   3.511   9.242  0.1739  0.2051  0.1823
   58loPI   C4B  928   9.313   3.673   8.775 -0.1061  0.0135 -0.1222
   59loPI    C1  929   5.935  12.346  10.891  0.0531  0.2658  0.1311
   59loPI    C2  930   5.932  11.964  11.012  0.0503  0.2237 -0.0008
   59loPI    C3  931   5.867  12.258  11.276 -0.0398  0.1286  0.0841
   59loPI   PO4  932   5.801  12.289  10.615 -0.1106 -0.0883  0.1201
   59loPI   GL1  933   5.918  12.554  10.278 -0.2964  0.0064 -0.0542
   59loPI   GL2  934   5.589  12.695  10.389  0.2576  0.0074 -0.1377
   59loPI   C1A  935   5.998  12.454   9.905  0.1142 -0.2054  0.0128
   59loPI   C2A  936   5.938  12.481   9.418 -0.2105 -0.1711 -0.0248
   59loPI   C3A  937   5.824  12.342   9.016 -0.0054 -0.0432 -0.0094
   59loPI   C4A  938   5.796  12.371   8.618 -0.0851 -0.0540 -0.0546
   59loPI   C5A  939   6.046  12.603   8.292  0.1819  0.0426 -0.0112
   59loPI   C6A  940   6.192  12.488   7.794 -0.1354  0.0796  0.4264
   59loPI   C1B  941   5.429  12.539  10.025 -0.0557 -0.2073  0.1356
   59loPI   C2B  942   5.541  12.563   9.720  0.1072  0.2531 -0.2732
   59loPI   C3B  943   5.435  12.513   9.337  0.0805 -0.1152  0.2939
   59loPI   C4B  944   5.325  12.320   8.897 -0.0302  0.2795 -0.1942
   60loPI    C1  945   1.598   6.715  11.161  0.2118 -0.0183 -0.0283
   60loPI    C2  946   1.855   6.498  10.945  0.1470 -0.0173 -0.1070
   60loPI    C3  947   1.844   6.457  11.343  0.1978 -0.0917 -0.1130
   60loPI   PO4  948   1.634   6.991  11.083 -0.1578  0.6978 -0.1944
   60loPI   GL1  949   1.540   7.137  10.741  0.2413  0.1557 -0.3941
   60loPI   GL2  950   1.666   7.336  10.486  0.2180 -0.3804 -0.1624
   60loPI   C1A  951   1.400   6.675  10.588  0.2836 -0.1456 -0.1345
   60loPI   C2A  952   1.192   6.454  10.177 -0.0722 -0.1111  0.0502
   60loPI   C3A  953   1.228   6.395   9.708 -0.1918  0.1110  0.2142
   60loPI   C4A  954   1.247   6.297   9.177 -0.1770  0.0126 -0.2590
   60loPI   C5A  955   1.483   6.195   8.900 -0.0686 -0.0393 -0.1002
   60loPI   C6A  956   1.784   6.272   8.500 -0.2038 -0.0373 -0.1217
   60loPI   C1B  957   1.709   7.215  10.112  0.0690  0.2898 -0.0868
   60loPI   C2B  958   1.721   7.090   9.729 -0.1893 -0.2459 -0.3043
   60loPI   C3B  959   1.731   6.989   9.347  0.0504  0.1084  0.2574
   60loPI   C4B  960   1.867   6.921   8.916  0.3936  0.2333  0.4061
   61loPI    C1  961  17.562  10.014  10.875 -0.0306 -0.2218 -0.2130
   61loPI    C2  962  17.231   9.976  11.097  0.0803  0.0345  0.0011
   61loPI    C3  963  17.575  10.088  11.268  0.2612 -0.1524 -0.2338
   61loPI   PO4  964  17.520   9.852  10.713 -0.1995 -0.0686  0.1909
   61loPI   GL1  965  17.737   9.609  10.350 -0.0733  0.0699  0.0164
   61loPI   GL2  966  17.660   9.930  10.162  0.0546  0.1998  0.1757
   61loPI   C1A  967  18.003   9.606   9.966 -0.1720  0.2471 -0.0444
   61loPI   C2A  968  17.960   9.826   9.625 -0.0197  0.3353 -0.0349
   61loPI   C3A  969  17.979   9.852   9.139 -0.2198 -0.0961  0.1000
   61loPI   C4A  970  18.032   9.752   8.684  0.2023 -0.2534 -0.1897
   61loPI   C5A  971  17.813   9.991   8.221 -0.2486  0.0071 -0.1250
   61loPI   C6A  972  17.771   9.889   7.786 -0.0790 -0.3705  0.0284
   61loPI   C1B  973  17.460   9.891   9.696 -0.2467 -0.0091 -0.0112
   61loPI   C2B  974  17.522   9.859   9.303 -0.0133 -0.2334  0.1845
   61loPI   C3B  975  17.517   9.860   8.822 -0.4681  0.1058 -0.3278
   61loPI   C4B  976  17.532   9.613   8.376  0.0582  0.3954  0.1850
   62loPI    C1  977  13.767   3.716  11.152  0.0214  0.0037  0.1327
   62loPI    C2  978  13.683   4.028  11.388 -0.1881  0.0544 -0.0060
   62loPI    C3  979  13.632   3.655  11.523 -0.0151  0.0790  0.1320
   62loPI   PO4  980  13.618   3.787  10.944 -0.0995 -0.3704 -0.0711
   62loPI   GL1  981  13.439   3.850  10.581 -0.3392  0.1817  0.2994
   62loPI   GL2  982  13.171   3.612  10.475 -0.2734 -0.3611  0.1578
   62loPI   C1A  983  13.442   3.952  10.113 -0.0380 -0.1407  0.1242
   62loPI   C2A  984  13.417   3.997   9.698  0.0557 -0.0965  0.1949
   62loPI   C3A  985  13.445   4.034   9.311  0.0429  0.1419  0.1812
   62loPI   C4A  986  13.471   4.202   8.931  0.0043 -0.1801  0.0562
   62loPI   C5A  987  13.398   4.138   8.448  0.0717  0.0991 -0.1910
   62loPI   C6A  988  13.302   4.071   8.022  0.0350 -0.0228  0.0929
   62loPI   C1B  989  13.062   3.572   9.986 -0.2410  0.2415 -0.1730
   62loPI   C2B  990  13.064   3.640   9.616  0.2094 -0.2231 -0.3695
   62loPI   C3B  991  13.116   3.672   9.127 -0.0753  0.1811 -0.2671
   62loPI   C4B  992  13.333   3.738   8.792 -0.0461  0.0807 -0.0169
   63loPI    C1  993  13.599   9.992  10.915 -0.1338  0.0497  0.0638
   63loPI    C2  994  13.695  10.312  10.696 -0.1238 -0.0450 -0.0712
   63loPI    C3  995  13.888  10.239  11.038 -0.2127  0.1619  0.0249
   63loPI   PO4  996  13.573   9.812  10.676 -0.2647  0.1059  0.0977
   63loPI   GL1  997  13.504   9.873  10.298  0.1225 -0.1982 -0.0615
   63loPI   GL2  998  13.239   9.721  10.176  0.1166  0.4676  0.3086
   63loPI   C1A  999  13.409  10.041   9.897  0.0088  0.0808  0.1693
   63loPI   C2A 1000  13.433   9.966   9.396 -0.0096  0.0348  0.1984
   63loPI   C3A 1001  13.484   9.809   8.903 -0.1010 -0.0102  0.1577
   63loPI   C4A 1002  13.508   9.882   8.506 -0.0501  0.2178 -0.0560
   63loPI   C5A 1003  13.424  10.061   8.219 -0.3561 -0.1958 -0.2548
   63loPI   C6A 1004  13.206  10.241   7.932 -0.3112  0.0336  0.0921
   63loPI   C1B 1005  13.072   9.757   9.700 -0.0874  0.0977 -0.4509
   63loPI   C2B 1006  12.980   9.802   9.224 -0.1441 -0.3774 -0.1499
   63loPI   C3B 1007  12.933   9.624   8.866  0.0666  0.0555  0.1476
   63loPI   C4B 1008  13.010   9.486   8.382  0.0931 -0.0270  0.0597
   64loPI    C1 1009  15.180   7.827  11.128  0.4261  0.0336  0.1649
   64loPI    C2 1010  14.964   7.490  11.148  0.0577  0.2336 -0.2654
   64loPI    C3 1011  15.360   7.478  11.207  0.0295 -0.2480 -0.1337
   64loPI   PO4 1012  15.142   7.849  10.783  0.0474 -0.1216 -0.2722
   64loPI   GL1 1013  15.305   7.821  10.375 -0.2393  0.1047  0.0506
   64loPI   GL2 1014  15.591   7.749  10.385  0.4131  0.2078 -0.4032
   64loPI   C1A 1015  15.006   7.780   9.989 -0.0155 -0.1032  0.2719
   64loPI   C2A 1016  14.971   7.878   9.552 -0.1952  0.0539 -0.0546
   64loPI   C3A 1017  14.787   7.685   9.162 -0.2059  0.0945  0.1431
   64loPI   C4A 1018  14.819   7.298   8.839  0.0564  0.0373  0.1188
   64loPI   C5A 1019  14.778   6.950   8.501  0.2819  0.0991  0.0587
   64loPI   C6A 1020  14.660   6.976   8.035  0.0503 -0.2220  0.3290
   64loPI   C1B 1021  15.504   7.419  10.033  0.1799 -0.0216  0.2338
   64loPI   C2B 1022  15.603   7.283   9.582  0.1785 -0.0464 -0.0419
   64loPI   C3B 1023  15.813   7.531   9.260  0.0274 -0.2379  0.2081
   64loPI   C4B 1024  15.782   7.589   8.830  0.1587 -0.1402  0.0279
   65loPI    C1 1025   0.577   6.354  11.119 -0.2409 -0.0299  0.0311
   65loPI    C2 1026   0.843   6.460  11.398 -0.1752 -0.2943  0.0710
   65loPI    C3 1027   0.500   6.662  11.363  0.0571  0.0947 -0.0270
   65loPI   PO4 1028   0.741   6.388  10.916  0.1959 -0.1836  0.0166
   65loPI   GL1 1029   0.955   6.324  10.619  0.0886 -0.0402  0.0166
   65loPI   GL2 1030   0.928   6.727  10.580 -0.0068 -0.0077  0.0114
   65loPI   C1A 1031   0.791   6.149  10.174  0.1938  0.2760 -0.0027
   65loPI   C2A 1032   0.725   6.068   9.710  0.0301 -0.1187 -0.0862
   65loPI   C3A 1033   0.814   6.074   9.224  0.1866 -0.2361 -0.0608
   65loPI   C4A 1034   1.014   6.136   8.796 -0.0788 -0.1148  0.2002
   65loPI   C5A 1035   1.243   6.446   8.560  0.1698 -0.0337 -0.0226
   65loPI   C6A 1036   1.548   6.778   8.480 -0.0157  0.0898  0.0489
   65loPI   C1B 1037   0.671   6.636  10.308 -0.3443  0.0463  0.0326
   65loPI   C2B 1038   0.758   6.554   9.885 -0.1245 -0.0026 -0.0402
   65loPI   C3B 1039   0.824   6.570   9.450  0.0559 -0.0360  0.2469
   65loPI   C4B 1040   0.860   6.563   9.049 -0.0801 -0.1227 -0.2912
   66loPI    C1 1041   8.061  10.648  10.939 -0.1323 -0.1258  0.1145
   66loPI    C2 1042   8.276  10.417  10.693 -0.2379 -0.0028 -0.0968
   66loPI    C3 1043   8.390  10.794  10.764 -0.3107  0.0209 -0.1050
   66loPI   PO4 1044   7.852  10.669  10.768 -0.1565 -0.1293  0.1323
   66loPI   GL1 1045   8.046  10.843  10.401 -0.2784 -0.0823  0.1112
   66loPI   GL2 1046   7.862  11.046  10.330 -0.1368 -0.0644 -0.1153
   66loPI   C1A 1047   8.164  10.706   9.883 -0.1851 -0.3466 -0.2229
   66loPI   C2A 1048   8.180  10.741   9.424 -0.0320 -0.1583  0.2309
   66loPI   C3A 1049   7.908  10.675   9.067  0.2429  0.1024  0.1745
   66loPI   C4A 1050   7.723  10.429   8.648 -0.0236 -0.0388  0.0229
   66loPI   C5A 1051   7.629  10.215   8.265 -0.0228 -0.2503  0.0937
   66loPI   C6A 1052   7.419   9.914   8.003  0.1746  0.0880  0.1293
   66loPI   C1B 1053   7.852  11.093   9.881  0.5233 -0.1454 -0.0707
   66loPI   C2B 1054   7.789  11.106   9.480  0.0764 -0.0515 -0.1264
   66loPI   C3B 1055   7.751  11.134   8.980 -0.1244  0.0080  0.1098
   66loPI   C4B 1056   8.027  10.836   8.592  0.0355  0.1311 -0.5015
   67loPI    C1 1057   8.312   7.748  10.902 -0.0949  0.0193 -0.0615
   67loPI    C2 1058   8.541   7.560  11.170 -0.1046  0.1109  0.0118
   67loPI    C3 1059   8.142   7.552  11.206 -0.1111  0.0145 -0.0737
   67loPI   PO4 1060   8.373   7.647  10.685 -0.0486 -0.3395 -0.1629
   67loPI   GL1 1061   8.265   7.948  10.268 -0.1608 -0.1256  0.2493
   67loPI   GL2 1062   8.522   8.179  10.204  0.0431  0.0128  0.1499
   67loPI   C1A 1063   8.288   7.886   9.792  0.2518  0.1688 -0.2723
   67loPI   C2A 1064   8.245   7.915   9.367 -0.0154 -0.1825  0.1040
   67loPI   C3A 1065   7.931   8.126   9.148 -0.3314  0.2944 -0.3071
   67loPI   C4A 1066   7.813   8.202   8.847  0.2813  0.1474  0.1526
   67loPI   C5A 1067   7.598   8.217   8.502  0.0876 -0.0484 -0.2142
   67loPI   C6A 1068   7.577   8.283   8.044  0.0838  0.1247  0.0640
   67loPI   C1B 1069   8.477   8.317   9.759  0.0258  0.2109  0.0234
   67loPI   C2B 1070   8.617   8.281   9.337  0.0837  0.1793 -0.2873
   67loPI   C3B 1071   8.379   8.221   8.946  0.1072  0.2429  0.3982
   67loPI   C4B 1072   8.334   8.073   8.556  0.1224 -0.0827 -0.0085
   68loPI    C1 1073   6.037   3.941  11.328 -0.1772  0.0104 -0.0814
   68loPI    C2 1074   6.410   3.919  11.187 -0.1548 -0.0023 -0.0204
   68loPI    C3 1075   6.307   3.712  11.513 -0.1657  0.1441  0.0698
   68loPI   PO4 1076   5.883   3.949  11.087  0.0379  0.1220  0.0441
   68loPI   GL1 1077   5.790   4.080  10.678  0.2008  0.0118  0.5281
   68loPI   GL2 1078   5.578   3.814  10.714 -0.2692 -0.0099  0.1194
   68loPI   C1A 1079   5.845   4.119  10.170 -0.1715  0.1104  0.0237
   68loPI   C2A 1080   6.040   3.938   9.752  0.1812  0.3899  0.0932
   68loPI   C3A 1081   6.096   3.834   9.330  0.1513 -0.0595  0.0668
   68loPI   C4A 1082   6.117   4.085   9.021  0.1235  0.1884 -0.3004
   68loPI   C5A 1083   6.294   4.503   8.712  0.1248  0.0970  0.0456
   68loPI   C6A 1084   6.035   4.653   8.396 -0.1335 -0.1152  0.0183
   68loPI   C1B 1085   5.440   3.825  10.315 -0.1945  0.1496  0.3042
   68loPI   C2B 1086   5.479   3.882   9.867  0.0687 -0.1069 -0.0374
   68loPI   C3B 1087   5.565   4.059   9.434 -0.1612 -0.0389 -0.0142
   68loPI   C4B 1088   5.641   4.250   9.061 -0.0859  0.1027  0.0331
   69loPI    C1 1089  12.862  12.260  10.952  0.0816  0.0386 -0.0796
   69loPI    C2 1090  13.035  12.298  11.311 -0.0624 -0.0943  0.0055
   69loPI    C3 1091  13.082  11.961  11.101 -0.1360 -0.0918 -0.0153
   69loPI   PO4 1092  12.864  12.517  10.808  0.0952  0.0162 -0.0234
   69loPI   GL1 1093  12.688  12.754  10.557  0.2814 -0.0629  0.2029
   69loPI   GL2 1094  12.351  12.706  10.590  0.4529  0.1755 -0.1416
   69loPI   C1A 1095  12.549  12.529  10.105 -0.1467  0.2233 -0.0586
   69loPI   C2A 1096  12.640  12.570   9.699  0.3334  0.0055 -0.2701
   69loPI   C3A 1097  12.455  12.645   9.287  0.0821 -0.0599  0.0511
   69loPI   C4A 1098  12.338  12.676   8.797  0.2016  0.2567  0.0318
   69loPI   C5A 1099  12.308  13.014   8.475  0.3057  0.3582 -0.2344
   69loPI   C6A 1100  12.361  13.395   8.561  0.2142  0.2112  0.0961
   69loPI   C1B 1101  12.318  13.005  10.271 -0.0796  0.2113 -0.0584
   69loPI   C2B 1102  12.312  12.959   9.793  0.0639 -0.0524  0.1743
   69loPI   C3B 1103  12.318  13.158   9.395 -0.1135 -0.0417  0.3423
   69loPI   C4B 1104  12.401  13.118   8.974 -0.1099  0.0477 -0.1089
   70loPI    C1 1105   2.369   8.204  10.924  0.0117  0.1442 -0.1516
   70loPI    C2 1106   2.192   8.411  11.217 -0.1130  0.0145 -0.1345
   70loPI    C3 1107   2.472   8.140  11.306 -0.0544  0.0710 -0.1460
   70loPI   PO4 1108   2.183   8.187  10.761 -0.2856 -0.0109  0.2045
   70loPI   GL1 1109   2.116   8.039  10.364 -0.3130  0.0391  0.0675
   70loPI   GL2 1110   2.267   8.253  10.237  0.0143 -0.0624  0.0726
   70loPI   C1A 1111   2.234   7.789   9.972 -0.3804 -0.0199  0.3726
   70loPI   C2A 1112   2.329   7.685   9.516 -0.2273  0.0356  0.0407
   70loPI   C3A 1113   2.428   7.542   9.102 -0.0158 -0.4126 -0.2390
   70loPI   C4A 1114   2.810   7.376   8.852 -0.1834  0.1723  0.1709
   70loPI   C5A 1115   3.287   7.425   8.771 -0.0219  0.2237  0.1520
   70loPI   C6A 1116   3.407   7.819   9.055  0.1669 -0.0038 -0.1571
   70loPI   C1B 1117   2.133   8.277   9.770  0.0358 -0.1939  0.3736
   70loPI   C2B 1118   2.131   8.144   9.348  0.0806  0.0078 -0.2216
   70loPI   C3B 1119   2.142   7.935   8.960 -0.0233  0.1904  0.1059
   70loPI   C4B 1120   1.798   7.875   8.892 -0.1095 -0.1917 -0.0949
   71loPI    C1 1121  17.094   4.723  10.876 -0.0070  0.4050  0.2071
   71loPI    C2 1122  16.958   4.735  11.252 -0.1621 -0.2448  0.1827
   71loPI    C3 1123  17.313   4.569  11.173  0.0080  0.1613  0.0724
   71loPI   PO4 1124  17.007   4.707  10.662  0.4309 -0.0533 -0.4305
   71loPI   GL1 1125  16.807   4.494  10.434 -0.3372 -0.1905  0.1957
   71loPI   GL2 1126  16.441   4.455  10.526 -0.0602 -0.3006 -0.1395
   71loPI   C1A 1127  16.741   4.485   9.956  0.2227  0.2300  0.0591
   71loPI   C2A 1128  16.642   4.434   9.562  0.2957  0.0265 -0.0350
   71loPI   C3A 1129  16.820   4.461   9.235  0.0201 -0.0859 -0.1260
   71loPI   C4A 1130  16.761   4.384   8.791  0.5275  0.2473  0.2661
   71loPI   C5A 1131  16.968   4.106   8.512 -0.2391  0.0037  0.2396
   71loPI   C6A 1132  16.969   3.760   8.252  0.2256  0.0437  0.0839
   71loPI   C1B 1133  16.287   4.604  10.120  0.1933  0.0675 -0.1576
   71loPI   C2B 1134  16.179   4.655   9.681  0.0566  0.0883 -0.1549
   71loPI   C3B 1135  16.310   4.640   9.233  0.2087 -0.1012 -0.1970
   71loPI   C4B 1136  16.393   4.818   8.849  0.3140 -0.0305 -0.1087
   72loPI    C1 1137   0.554  11.401  10.681 -0.3276  0.1348 -0.0124
   72loPI    C2 1138   0.219  11.186  10.708 -0.2981  0.0581 -0.2351
   72loPI    C3 1139   0.441  11.252  11.034 -0.2064 -0.4123 -0.1951
   72loPI   PO4 1140   0.444  11.670  10.571 -0.3054  0.0261  0.1395
   72loPI   GL1 1141   0.192  11.778  10.188  0.0500 -0.0590 -0.0012
   72loPI   GL2 1142   0.198  12.138   9.983 -0.1766  0.0860  0.2336
   72loPI   C1A 1143   0.318  11.558   9.892  0.0360 -0.3073  0.1395
   72loPI   C2A 1144   0.320  11.415   9.455 -0.1869  0.0781 -0.0471
   72loPI   C3A 1145   0.275  11.522   8.915 -0.0302 -0.0328 -0.1768
   72loPI   C4A 1146   0.199  11.833   8.566 -0.1852 -0.0991 -0.0785
   72loPI   C5A 1147   0.446  12.008   8.274 -0.1370 -0.0021  0.0038
   72loPI   C6A 1148   0.682  12.373   8.116 -0.1010 -0.2438  0.2092
   72loPI   C1B 1149   0.244  12.093   9.462  0.1748 -0.2887 -0.0634
   72loPI   C2B 1150   0.249  12.021   9.052  0.2955  0.1691  0.2276
   72loPI   C3B 1151   0.313  12.282   8.762  0.3031  0.1768 -0.0349
   72loPI   C4B 1152   0.169  12.484   8.445 -0.1745  0.0179  0.3047
   73loPI    C1 1153  14.181   4.301  11.357 -0.2656 -0.2510  0.0197
   73loPI    C2 1154  14.484   4.095  11.196 -0.0778  0.1456 -0.1493
   73loPI    C3 1155  14.474   4.162  11.591 -0.1740 -0.2324 -0.0833
   73loPI   PO4 1156  14.074   4.391  11.166  0.0390 -0.1947  0.1826
   73loPI   GL1 1157  14.131   4.410  10.680  0.0196 -0.2197 -0.2158
   73loPI   GL2 1158  14.405   4.257  10.511  0.1034  0.0354 -0.1544
   73loPI   C1A 1159  13.980   4.156  10.327 -0.1400 -0.0584  0.0670
   73loPI   C2A 1160  13.996   3.826   9.963 -0.2140  0.0489 -0.0304
   73loPI   C3A 1161  14.008   3.821   9.494 -0.1822 -0.3663  0.1464
   73loPI   C4A 1162  13.887   3.931   9.244  0.0545 -0.1128  0.2262
   73loPI   C5A 1163  13.912   3.961   8.796  0.0184 -0.0404 -0.0658
   73loPI   C6A 1164  13.866   3.829   8.427 -0.2940  0.0098  0.0702
   73loPI   C1B 1165  14.411   4.214  10.147 -0.2971  0.0367  0.1847
   73loPI   C2B 1166  14.314   4.152   9.732 -0.0891  0.0520  0.0369
   73loPI   C3B 1167  14.385   4.103   9.319  0.0564 -0.1656  0.0779
   73loPI   C4B 1168  14.534   4.147   8.929 -0.2781  0.0461 -0.0496
   74loPI    C1 1169  11.093   1.356  10.849  0.1227  0.2203 -0.0430
   74loPI    C2 1170  11.241   1.520  11.183  0.4123  0.1438 -0.1307
   74loPI    C3 1171  11.246   1.123  11.136  0.0321  0.1275 -0.0694
   74loPI   PO4 1172  11.265   1.469  10.655  0.0691  0.1320  0.1539
   74loPI   GL1 1173  11.554   1.258  10.460  0.1712  0.2007  0.2868
   74loPI   GL2 1174  11.292   1.272  10.204 -0.1695  0.0273 -0.0632
   74loPI   C1A 1175  11.615   1.033   9.946 -0.1165  0.0659 -0.4084
   74loPI   C2A 1176  11.581   0.998   9.485 -0.0226 -0.1451 -0.1142
   74loPI   C3A 1177  11.339   0.937   9.132  0.0235  0.4446 -0.2933
   74loPI   C4A 1178  11.392   0.960   8.704  0.1515  0.0416  0.2598
   74loPI   C5A 1179  11.552   1.196   8.399  0.0666  0.0287 -0.1382
   74loPI   C6A 1180  11.472   1.551   8.150  0.1622  0.0591  0.0202
   74loPI   C1B 1181  11.195   1.335   9.748 -0.3569 -0.1242  0.0733
   74loPI   C2B 1182  11.031   1.185   9.475 -0.0442  0.0882  0.0238
   74loPI   C3B 1183  10.981   1.268   9.026 -0.2390  0.0037  0.0876
   74loPI   C4B 1184  11.163   1.483   8.578  0.1625  0.2964  0.2126
   75loPI    C1 1185   3.566   8.780  10.789 -0.2576  0.0864  0.2108
   75loPI    C2 1186   3.313   8.851  11.091 -0.0881  0.1394  0.3421
   75loPI    C3 1187   3.682   8.717  11.167 -0.0799  0.0504  0.1512
   75loPI   PO4 1188   3.460   8.957  10.585  0.1162 -0.0178  0.0169
   75loPI   GL1 1189   3.429   8.862  10.225  0.2077  0.3382  0.0721
   75loPI   GL2 1190   3.503   8.614  10.227  0.1029 -0.1360  0.1490
   75loPI   C1A 1191   3.294   8.844   9.849 -0.1312 -0.0077 -0.3844
   75loPI   C2A 1192   3.235   8.839   9.383 -0.0754 -0.0960 -0.0599
   75loPI   C3A 1193   3.135   8.897   8.936 -0.1834  0.3564 -0.0053
   75loPI   C4A 1194   3.196   8.897   8.530  0.1442 -0.0893  0.1156
   75loPI   C5A 1195   3.114   9.040   8.081 -0.0817  0.0280  0.1911
   75loPI   C6A 1196   2.633   8.929   7.928 -0.2290 -0.3200  0.0359
   75loPI   C1B 1197   3.411   8.356   9.809  0.0172 -0.3641  0.2105
   75loPI   C2B 1198   3.606   8.131   9.410  0.0500  0.2051 -0.3187
   75loPI   C3B 1199   3.718   8.157   8.987  0.1075 -0.1162 -0.0589
   75loPI   C4B 1200   3.589   8.072   8.649  0.0343 -0.0771  0.0189
   76loPI    C1 1201   1.613   0.265  11.129 -0.1491  0.0271  0.1333
   76loPI    C2 1202   1.998   0.177  11.066 -0.1573  0.0837  0.0001
   76loPI    C3 1203   1.796  -0.005  11.360 -0.1535 -0.2865 -0.2203
   76loPI   PO4 1204   1.607   0.300  10.862 -0.1210 -0.0019 -0.0012
   76loPI   GL1 1205   1.642   0.028  10.424  0.1660  0.0742  0.0157
   76loPI   GL2 1206   1.974  -0.035  10.511  0.2587 -0.0679 -0.2246
   76loPI   C1A 1207   1.711   0.324   9.989 -0.1237 -0.2507 -0.3020
   76loPI   C2A 1208   1.884   0.278   9.557 -0.1676  0.2258  0.1894
   76loPI   C3A 1209   1.849   0.387   9.208  0.1415  0.2017  0.1568
   76loPI   C4A 1210   1.708   0.444   8.763  0.1431 -0.2316 -0.0926
   76loPI   C5A 1211   1.986   0.600   8.425 -0.0566  0.0082  0.1157
   76loPI   C6A 1212   2.453   0.797   8.494  0.1398 -0.2303  0.0617
   76loPI   C1B 1213   1.925  -0.129  10.072 -0.1237  0.2811 -0.4003
   76loPI   C2B 1214   1.927  -0.238   9.680 -0.1076 -0.1811 -0.0509
   76loPI   C3B 1215   2.005  -0.263   9.220 -0.4528  0.0401  0.1055
   76loPI   C4B 1216   1.996  -0.368   8.700  0.1031  0.0337  0.0140
   77loPI    C1 1217   3.427  17.222  11.010 -0.2028 -0.2144 -0.0003
   77loPI    C2 1218   3.771  17.238  10.806 -0.1091 -0.0073  0.1701
   77loPI    C3 1219   3.774  17.148  11.196 -0.2650 -0.1697  0.1351
   77loPI   PO4 1220   3.291  17.368  10.774 -0.0739  0.1993 -0.0886
   77loPI   GL1 1221   3.183  17.296  10.346  0.1581 -0.0203  0.1476
   77loPI   GL2 1222   3.127  17.028  10.272 -0.0058  0.1959 -0.1695
   77loPI   C1A 1223   3.311  17.326   9.910  0.0675 -0.2965  0.3803
   77loPI   C2A 1224   3.304  17.388   9.447 -0.0855  0.0900 -0.0421
   77loPI   C3A 1225   3.241  17.662   9.111  0.2350 -0.1462 -0.1844
   77loPI   C4A 1226   3.407  17.604   8.770  0.0561 -0.0258 -0.0127
   77loPI   C5A 1227   3.602  17.181   8.542 -0.0480 -0.2533 -0.4070
   77loPI   C6A 1228   3.736  16.732   8.286  0.1421  0.0883  0.0895
   77loPI   C1B 1229   2.955  17.072   9.825 -0.0597 -0.0083  0.3167
   77loPI   C2B 1230   2.858  17.178   9.415  0.2222  0.3272 -0.0923
   77loPI   C3B 1231   2.974  17.302   8.890  0.0573  0.1715  0.0861
   77loPI   C4B 1232   2.908  17.671   8.747 -0.0476  0.1642  0.1366
   78loPI    C1 1233  14.090  15.956  11.123 -0.1202  0.1207  0.0570
   78loPI    C2 1234  14.197  15.685  11.397 -0.1084  0.0769  0.0092
   78loPI    C3 1235  14.125  16.063  11.507 -0.0661  0.0683  0.0667
   78loPI   PO4 1236  14.144  15.752  10.925  0.1444 -0.0245 -0.0511
   78loPI   GL1 1237  14.340  15.733  10.353  0.0260  0.3567  0.0282
   78loPI   GL2 1238  14.059  15.623  10.333 -0.2447 -0.0057 -0.2230
   78loPI   C1A 1239  14.452  15.745  10.013 -0.0989  0.3014  0.1665
   78loPI   C2A 1240  14.300  15.667   9.582  0.0482 -0.0497 -0.1605
   78loPI   C3A 1241  14.309  15.640   9.174  0.0194  0.0311 -0.1382
   78loPI   C4A 1242  14.466  15.570   8.793  0.0806  0.1163  0.0257
   78loPI   C5A 1243  14.242  15.463   8.389  0.1750  0.1196  0.1222
   78loPI   C6A 1244  13.816  15.428   8.314  0.0837 -0.0298 -0.0754
   78loPI   C1B 1245  13.839  15.643   9.890  0.1106 -0.2091 -0.0156
   78loPI   C2B 1246  13.833  15.697   9.418 -0.0949 -0.1427 -0.1786
   78loPI   C3B 1247  13.795  15.727   9.011  0.1656 -0.2165  0.3338
   78loPI   C4B 1248  13.506  15.716   8.650  0.0816 -0.0558  0.2856
   79loPI    C1 1249  12.902  10.115  11.111 -0.1544 -0.2051 -0.0670
   79loPI    C2 1250  13.024  10.298  11.445 -0.3949  0.2375 -0.2127
   79loPI    C3 1251  12.804   9.964  11.468  0.1806 -0.1386  0.0557
   79loPI   PO4 1252  13.098  10.122  10.942 -0.3769  0.1060 -0.0346
   79loPI   GL1 1253  13.132  10.104  10.489 -0.2350  0.2548 -0.0402
   79loPI   GL2 1254  12.933  10.099  10.230  0.1095 -0.3173 -0.0897
   79loPI   C1A 1255  13.341  10.494  10.227  0.2684 -0.0703 -0.1306
   79loPI   C2A 1256  13.424  10.652   9.851 -0.0453  0.2408  0.1466
   79loPI   C3A 1257  13.241  10.648   9.472 -0.1264  0.0521 -0.0214
   79loPI   C4A 1258  13.256  10.730   9.062 -0.0119  0.0060 -0.1395
   79loPI   C5A 1259  13.204  10.930   8.653  0.1345 -0.1443  0.1725
   79loPI   C6A 1260  13.270  10.952   8.158  0.0382  0.0385 -0.2064
   79loPI   C1B 1261  13.022  10.285   9.832  0.1447 -0.0035  0.1217
   79loPI   C2B 1262  13.034  10.235   9.461  0.2149  0.0334 -0.0089
   79loPI   C3B 1263  13.070  10.234   9.003 -0.1069 -0.2259  0.1300
   79loPI   C4B 1264  13.050  10.108   8.558 -0.0591  0.3011  0.2672
   80loPI    C1 1265   8.375  14.602  10.850  0.0629 -0.0844 -0.2208
   80loPI    C2 1266   8.095  14.835  11.015  0.1176  0.0258 -0.2826
   80loPI    C3 1267   8.174  14.476  11.172 -0.0590 -0.0062 -0.2656
   80loPI   PO4 1268   8.334  14.633  10.621  0.0465 -0.0489 -0.3812
   80loPI   GL1 1269   8.320  14.367  10.227 -0.1420  0.1085  0.1320
   80loPI   GL2 1270   8.053  14.426  10.261  0.0352 -0.2359 -0.0008
   80loPI   C1A 1271   8.302  14.489   9.807 -0.2834  0.3683  0.0360
   80loPI   C2A 1272   8.379  14.492   9.416 -0.0976  0.0128 -0.0304
   80loPI   C3A 1273   8.429  14.332   9.071 -0.0065 -0.1245 -0.0155
   80loPI   C4A 1274   8.505  14.259   8.657  0.1694 -0.3317 -0.0511
   80loPI   C5A 1275   8.806  13.873   8.529  0.1590  0.1927 -0.2224
   80loPI   C6A 1276   9.092  13.561   8.755 -0.0244  0.3094  0.2933
   80loPI   C1B 1277   7.797  14.330   9.835 -0.0793 -0.0712  0.0154
   80loPI   C2B 1278   7.860  14.432   9.449 -0.1395 -0.0947  0.0597
   80loPI   C3B 1279   7.887  14.273   9.124  0.1070  0.1971  0.0705
   80loPI   C4B 1280   7.989  14.247   8.711 -0.0309  0.0678  0.1201
   81loPI    C1 1281  14.816   4.763  11.007  0.2208 -0.1948 -0.2377
   81loPI    C2 1282  14.509   4.511  10.959  0.0048  0.0285 -0.0521
   81loPI    C3 1283  14.648   4.589  11.325  0.1084  0.1350 -0.1134
   81loPI   PO4 1284  14.741   5.037  10.824 -0.0787  0.0061 -0.1312
   81loPI   GL1 1285  14.815   5.074  10.376  0.2266  0.0378 -0.2713
   81loPI   GL2 1286  15.035   5.024  10.461  0.2872 -0.0631  0.0270
   81loPI   C1A 1287  14.728   5.213   9.932  0.1338  0.0426  0.3310
   81loPI   C2A 1288  14.722   5.175   9.528 -0.3604  0.0867  0.1315
   81loPI   C3A 1289  14.810   4.907   9.211  0.0813  0.0064  0.1875
   81loPI   C4A 1290  14.867   4.844   8.847 -0.1295 -0.2620  0.0764
   81loPI   C5A 1291  14.881   4.463   8.604  0.0454  0.0441 -0.0404
   81loPI   C6A 1292  14.721   4.267   8.283  0.0200 -0.0237 -0.0573
   81loPI   C1B 1293  15.181   5.018   9.992  0.1380 -0.0793  0.1040
   81loPI   C2B 1294  15.186   4.990   9.667  0.2011  0.0394  0.0363
   81loPI   C3B 1295  15.361   4.856   9.211  0.0470 -0.0666 -0.2314
   81loPI   C4B 1296  15.333   4.582   8.825 -0.1379 -0.0723 -0.1400
   82loPI    C1 1297  16.490   8.395  11.118  0.0872  0.0173 -0.0317
   82loPI    C2 1298  16.278   8.089  11.263  0.2988 -0.2050 -0.1851
   82loPI    C3 1299  16.425   8.364  11.512  0.0060 -0.1597 -0.0580
   82loPI   PO4 1300  16.485   8.320  10.839 -0.1562  0.2548 -0.1240
   82loPI   GL1 1301  16.441   8.092  10.469  0.0527 -0.0635 -0.1664
   82loPI   GL2 1302  16.746   7.908  10.452  0.0104 -0.1728 -0.0845
   82loPI   C1A 1303  16.524   8.172  10.103 -0.6739  0.2543  0.0273
   82loPI   C2A 1304  16.434   8.152   9.772 -0.1505 -0.1714 -0.0054
   82loPI   C3A 1305  16.164   7.926   9.476 -0.0922  0.4843 -0.0393
   82loPI   C4A 1306  16.252   7.749   9.032  0.0691 -0.0825  0.2008
   82loPI   C5A 1307  16.437   7.837   8.636 -0.0700 -0.0894  0.0087
   82loPI   C6A 1308  16.558   7.930   8.213 -0.0127  0.0833 -0.1109
   82loPI   C1B 1309  17.013   7.932  10.059  0.0797  0.1799  0.1376
   82loPI   C2B 1310  16.887   8.011   9.617 -0.2314 -0.2953  0.0479
   82loPI   C3B 1311  16.570   8.102   9.322 -0.1501 -0.2321  0.1444
   82loPI   C4B 1312  16.227   8.304   9.100  0.0335 -0.0228 -0.3899
   83loPI    C1 1313   7.465   0.425  10.889 -0.1002 -0.0012  0.1203
   83loPI    C2 1314   7.398   0.817  10.932 -0.0247  0.0454 -0.1688
   83loPI    C3 1315   7.218   0.556  11.175 -0.0884  0.2574  0.0151
   83loPI   PO4 1316   7.438   0.255  10.649 -0.1251 -0.3881 -0.0388
   83loPI   GL1 1317   7.297   0.131  10.289 -0.0223 -0.2187  0.0345
   83loPI   GL2 1318   7.163   0.479  10.246 -0.1200  0.2043 -0.0369
   83loPI   C1A 1319   7.201  -0.081   9.894  0.1916 -0.1385 -0.2180
   83loPI   C2A 1320   7.042  -0.232   9.524 -0.0362 -0.1401  0.1474
   83loPI   C3A 1321   7.064  -0.116   9.074 -0.1617  0.3067  0.1065
   83loPI   C4A 1322   6.842   0.159   8.741  0.0570  0.1817 -0.0166
   83loPI   C5A 1323   6.693   0.625   8.532 -0.3268 -0.3980 -0.0508
   83loPI   C6A 1324   6.894   1.076   8.644 -0.2708  0.2195  0.1582
   83loPI   C1B 1325   7.169   0.450   9.788  0.1137 -0.0586 -0.2284
   83loPI   C2B 1326   7.401   0.248   9.521  0.1465 -0.0698  0.0835
   83loPI   C3B 1327   7.481   0.285   9.095 -0.1644 -0.0759  0.2678
   83loPI   C4B 1328   7.721   0.226   8.716 -0.0103 -0.3381  0.1957
   84loPI    C1 1329   0.881  11.883  10.750 -0.1106 -0.1638  0.0496
   84loPI    C2 1330   0.922  11.533  10.941  0.1917 -0.1806 -0.0405
   84loPI    C3 1331   1.071  11.868  11.102 -0.1126 -0.0870  0.0541
   84loPI   PO4 1332   0.935  11.743  10.462  0.0589 -0.0246 -0.0009
   84loPI   GL1 1333   1.050  12.008  10.159 -0.0982 -0.1479 -0.0282
   84loPI   GL2 1334   0.691  11.843  10.055 -0.0298 -0.2098 -0.3335
   84loPI   C1A 1335   1.105  11.966   9.698 -0.1403  0.0041  0.0329
   84loPI   C2A 1336   1.071  11.895   9.248 -0.2345 -0.0476  0.1587
   84loPI   C3A 1337   1.335  11.987   8.890 -0.0597  0.1701  0.1212
   84loPI   C4A 1338   1.245  11.977   8.495 -0.2952 -0.3836  0.4021
   84loPI   C5A 1339   1.161  12.190   8.163 -0.1711 -0.0413  0.0937
   84loPI   C6A 1340   1.288  12.507   8.001  0.2183 -0.2075 -0.0224
   84loPI   C1B 1341   0.668  11.800   9.610 -0.2872  0.1846  0.0212
   84loPI   C2B 1342   0.612  11.716   9.243  0.2601 -0.1655  0.0311
   84loPI   C3B 1343   0.713  11.723   8.836  0.0464  0.0087  0.0534
   84loPI   C4B 1344   0.670  11.598   8.441  0.2111  0.4380  0.0233
   85loPI    C1 1345  16.256   2.883  11.291 -0.0731  0.0223  0.0914
   85loPI    C2 1346  16.118   3.076  11.613 -0.0962 -0.1701  0.1980
   85loPI    C3 1347  16.495   2.942  11.607 -0.0644 -0.0772  0.1035
   85loPI   PO4 1348  16.101   3.118  11.114  0.0933  0.0606 -0.0395
   85loPI   GL1 1349  16.024   3.259  10.698  0.0532 -0.1140 -0.0012
   85loPI   GL2 1350  16.189   3.133  10.401 -0.2642  0.1308 -0.0279
   85loPI   C1A 1351  15.947   3.608  10.342 -0.0984  0.3294 -0.1423
   85loPI   C2A 1352  15.910   3.743   9.920 -0.4688  0.0689  0.0439
   85loPI   C3A 1353  15.864   3.811   9.497  0.0162  0.0270 -0.3266
   85loPI   C4A 1354  15.829   3.880   9.053  0.0191 -0.2374  0.2044
   85loPI   C5A 1355  15.906   3.625   8.560  0.2148 -0.1426 -0.2146
   85loPI   C6A 1356  15.909   3.301   8.370  0.2742 -0.3142 -0.1087
   85loPI   C1B 1357  16.106   3.253   9.954 -0.1934  0.2147 -0.0706
   85loPI   C2B 1358  16.164   3.197   9.515  0.1287 -0.0396 -0.0334
   85loPI   C3B 1359  16.140   3.002   9.114 -0.0620  0.0672 -0.1919
   85loPI   C4B 1360  16.147   3.107   8.760 -0.1028 -0.0787  0.1901
   86loPI    C1 1361  14.676  17.124  10.919  0.0568  0.1126  0.1065
   86loPI    C2 1362  14.360  17.297  11.091 -0.1125  0.0368 -0.1232
   86loPI    C3 1363  14.388  16.898  11.080  0.0384  0.0438 -0.0213
   86loPI   PO4 1364  14.762  17.132  10.719  0.2249 -0.1272  0.2354
   86loPI   GL1 1365  14.862  16.980  10.366  0.2289  0.0224 -0.2601
   86loPI   GL2 1366  14.891  16.661  10.282  0.0515  0.1713 -0.1819
   86loPI   C1A 1367  14.827  17.136   9.932  0.2083  0.2501  0.1078
   86loPI   C2A 1368  14.728  17.017   9.416  0.1134 -0.2011 -0.3918
   86loPI   C3A 1369  14.735  16.881   9.019 -0.0103 -0.0653 -0.2354
   86loPI   C4A 1370  15.038  16.847   8.763  0.0355  0.0864 -0.0967
   86loPI   C5A 1371  15.374  16.660   8.630 -0.1843  0.1979  0.0922
   86loPI   C6A 1372  15.526  16.506   8.191  0.0197 -0.1737  0.0586
   86loPI   C1B 1373  14.636  16.703   9.854  0.1928  0.0330  0.2537
   86loPI   C2B 1374  14.492  16.563   9.450  0.0135  0.0076  0.2478
   86loPI   C3B 1375  14.344  16.499   8.963 -0.2396  0.3720 -0.1578
   86loPI   C4B 1376  14.142  16.421   8.553 -0.1447  0.0755 -0.0201
   87loPI    C1 1377  15.160   0.977  11.038 -0.1310  0.0695 -0.4151
   87loPI    C2 1378  15.413   1.253  11.179 -0.1887 -0.1122  0.0644
   87loPI    C3 1379  15.018   1.309  11.209 -0.2034 -0.1100 -0.1194
   87loPI   PO4 1380  15.188   0.980  10.810  0.1798 -0.0873  0.0456
   87loPI   GL1 1381  15.193   1.096  10.390  0.2103 -0.0970  0.1858
   87loPI   GL2 1382  15.412   0.904  10.325 -0.1851 -0.1715  0.1518
   87loPI   C1A 1383  15.089   1.258   9.944  0.3761 -0.1066 -0.1660
   87loPI   C2A 1384  15.078   1.090   9.484  0.0166 -0.2751  0.3284
   87loPI   C3A 1385  15.089   1.013   9.095  0.0649  0.0582 -0.3709
   87loPI   C4A 1386  14.880   0.860   8.838 -0.0759 -0.0426  0.0243
   87loPI   C5A 1387  14.735   0.977   8.461 -0.3032  0.1166  0.3360
   87loPI   C6A 1388  14.393   1.159   8.418  0.3857  0.2792 -0.4718
   87loPI   C1B 1389  15.499   0.974   9.883 -0.0236  0.1942 -0.2208
   87loPI   C2B 1390  15.439   0.759   9.415  0.1296 -0.0162 -0.0752
   87loPI   C3B 1391  15.418   0.673   9.013 -0.0654 -0.1883  0.1709
   87loPI   C4B 1392  15.283   0.914   8.591  0.3129  0.1563  0.3117
   88loPI    C1 1393   7.350   3.296  10.740 -0.0662 -0.0724  0.1145
   88loPI    C2 1394   7.223   3.263  11.117 -0.1024  0.2897  0.1382
   88loPI    C3 1395   7.240   3.622  10.943  0.0572  0.1433 -0.1570
   88loPI   PO4 1396   7.578   3.169  10.746 -0.0724  0.0524  0.2663
   88loPI   GL1 1397   7.815   2.917  10.491 -0.0305  0.3907 -0.1162
   88loPI   GL2 1398   7.603   2.927  10.305  0.0110  0.2155 -0.0676
   88loPI   C1A 1399   8.026   3.103  10.170  0.1393  0.3017 -0.1332
   88loPI   C2A 1400   8.067   3.090   9.708  0.0448  0.1783 -0.4359
   88loPI   C3A 1401   8.202   2.894   9.383  0.0606  0.5373 -0.2429
   88loPI   C4A 1402   8.284   2.725   8.943 -0.0668  0.2528  0.1802
   88loPI   C5A 1403   8.329   2.278   8.706  0.1609  0.1616  0.0681
   88loPI   C6A 1404   8.274   1.801   8.501  0.1470  0.1522 -0.1297
   88loPI   C1B 1405   7.621   2.878   9.874  0.3018 -0.2906  0.2213
   88loPI   C2B 1406   7.620   2.837   9.432  0.2208 -0.1144  0.2311
   88loPI   C3B 1407   7.785   2.693   9.029 -0.0169 -0.0067  0.1449
   88loPI   C4B 1408   7.791   2.403   8.691 -0.2593  0.2534 -0.0743
   89loPI    C1 1409  17.492  16.238  10.978  0.0780  0.0548  0.0712
   89loPI    C2 1410  17.277  15.908  11.050  0.1549 -0.0025  0.0402
   89loPI    C3 1411  17.505  16.065  11.339 -0.1722  0.2413  0.1732
   89loPI   PO4 1412  17.599  16.149  10.672 -0.3584 -0.1251  0.1423
   89loPI   GL1 1413  17.502  16.416  10.344  0.1299  0.0326 -0.0676
   89loPI   GL2 1414  17.748  16.517  10.146  0.2486  0.1904  0.1832
   89loPI   C1A 1415  17.511  16.088  10.065  0.3551 -0.0952  0.1622
   89loPI   C2A 1416  17.503  15.901   9.576  0.2230 -0.0057 -0.2894
   89loPI   C3A 1417  17.583  15.664   9.194 -0.0014  0.1555  0.0733
   89loPI   C4A 1418  17.483  15.585   8.811 -0.0546 -0.0076  0.0876
   89loPI   C5A 1419  17.703  15.673   8.470 -0.1287 -0.0704 -0.0238
   89loPI   C6A 1420  18.119  15.988   8.424 -0.0847 -0.0433  0.0910
   89loPI   C1B 1421  17.842  16.682   9.753  0.0798 -0.2920 -0.0625
   89loPI   C2B 1422  17.954  16.935   9.369  0.0624 -0.4335  0.0560
   89loPI   C3B 1423  18.233  17.039   9.040 -0.0948  0.3021  0.1592
   89loPI   C4B 1424  18.260  17.034   8.569 -0.1004 -0.0803  0.1875
   90loPI    C1 1425   5.690   2.129  11.262  0.0868 -0.1268 -0.1414
   90loPI    C2 1426   5.752   1.739  11.199 -0.1632 -0.1847 -0.0394
   90loPI    C3 1427   5.995   1.944  11.443  0.1024 -0.2241 -0.2664
   90loPI   PO4 1428   5.505   2.126  11.056  0.3052  0.2147  0.0489
   90loPI   GL1 1429   5.590   2.232  10.612  0.3263 -0.0419  0.1278
   90loPI   GL2 1430   5.313   2.261  10.582  0.1521 -0.0972  0.1776
   90loPI   C1A 1431   5.928   2.111  10.424 -0.2452  0.0750  0.1711
   90loPI   C2A 1432   6.001   2.221   9.964  0.1591  0.2892 -0.1091
   90loPI   C3A 1433   5.940   2.063   9.638  0.0504 -0.0486 -0.0164
   90loPI   C4A 1434   6.122   1.924   9.290  0.1351  0.2559  0.0589
   90loPI   C5A 1435   6.321   1.495   9.184  0.1872 -0.2561  0.3106
   90loPI   C6A 1436   6.492   1.454   8.732 -0.0139 -0.1568 -0.1336
   90loPI   C1B 1437   5.503   2.132  10.147  0.2484 -0.0586 -0.1067
   90loPI   C2B 1438   5.413   2.211   9.637 -0.0394 -0.1476 -0.2300
   90loPI   C3B 1439   5.232   2.336   9.350  0.2928  0.0250 -0.0743
   90loPI   C4B 1440   5.097   2.494   8.965 -0.1150  0.0932  0.0465
   91loPI    C1 1441  13.820  13.617  11.084 -0.1643 -0.1393  0.1654
   91loPI    C2 1442  13.791  13.920  11.344  0.0733  0.0589 -0.0336
   91loPI    C3 1443  14.047  13.621  11.414  0.1138  0.0958 -0.0239
   91loPI   PO4 1444  13.856  13.738  10.873 -0.0353  0.1901 -0.2746
   91loPI   GL1 1445  14.015  13.592  10.563  0.0435 -0.2328 -0.0942
   91loPI   GL2 1446  13.700  13.618  10.397 -0.1857  0.2229  0.1247
   91loPI   C1A 1447  14.190  13.560  10.160  0.0479 -0.0751  0.2649
   91loPI   C2A 1448  14.292  13.262   9.840  0.0337 -0.0515 -0.1248
   91loPI   C3A 1449  14.340  13.321   9.463  0.2388 -0.0716  0.0900
   91loPI   C4A 1450  14.460  13.376   9.096  0.0076 -0.0432 -0.1286
   91loPI   C5A 1451  14.167  13.420   8.842 -0.2523  0.0087  0.1401
   91loPI   C6A 1452  13.849  13.476   8.673  0.1185  0.0259  0.0239
   91loPI   C1B 1453  13.755  13.585   9.926  0.2673  0.0965 -0.0591
   91loPI   C2B 1454  14.102  13.709   9.695  0.0244  0.1807 -0.0428
   91loPI   C3B 1455  14.236  13.846   9.268 -0.1772 -0.1501  0.0618
   91loPI   C4B 1456  14.164  13.920   8.779 -0.0135  0.0709  0.0125
   92loPI    C1 1457  11.778  16.545  11.311  0.1433  0.4246 -0.1381
   92loPI    C2 1458  11.783  16.943  11.354 -0.0153  0.4269 -0.1325
   92loPI    C3 1459  12.010  16.713  11.590 -0.0207  0.5063 -0.0493
   92loPI   PO4 1460  11.877  16.416  11.053  0.0949  0.0062  0.5627
   92loPI   GL1 1461  11.914  16.551  10.606 -0.1464  0.0228 -0.0971
   92loPI   GL2 1462  12.081  16.731  10.372  0.0311  0.0290 -0.3266
   92loPI   C1A 1463  11.758  16.415  10.196 -0.0860 -0.3840 -0.1816
   92loPI   C2A 1464  11.665  16.399   9.744  0.3269  0.1755  0.2181
   92loPI   C3A 1465  11.620  16.441   9.336  0.2327  0.1579  0.3318
   92loPI   C4A 1466  11.504  16.332   8.995  0.3195  0.0998 -0.2333
   92loPI   C5A 1467  11.369  16.011   8.644 -0.0553 -0.0722  0.1328
   92loPI   C6A 1468  11.019  15.797   8.679  0.2995  0.1267 -0.0037
   92loPI   C1B 1469  11.990  16.926   9.968 -0.1587  0.0036 -0.0618
   92loPI   C2B 1470  11.942  16.788   9.593  0.1961  0.1074 -0.1898
   92loPI   C3B 1471  11.841  16.844   9.108 -0.4749 -0.1669  0.0042
   92loPI   C4B 1472  11.892  16.894   8.675 -0.0289  0.1028  0.0586
   93loPI    C1 1473  11.017   4.321  10.869 -0.1387  0.0513  0.0852
   93loPI    C2 1474  11.294   4.264  11.152  0.0518  0.0316 -0.1020
   93loPI    C3 1475  11.110   4.618  11.120  0.0836  0.0575 -0.0022
   93loPI   PO4 1476  11.073   4.312  10.602 -0.2813  0.0697  0.2909
   93loPI   GL1 1477  10.995   4.479  10.216 -0.0917 -0.1121 -0.1239
   93loPI   GL2 1478  11.188   4.716  10.245  0.0862  0.3494 -0.1942
   93loPI   C1A 1479  10.777   4.281   9.895  0.0930 -0.1635  0.1028
   93loPI   C2A 1480  10.595   4.164   9.533 -0.0692  0.0748  0.0159
   93loPI   C3A 1481  10.536   4.240   9.148 -0.3822 -0.1213  0.1409
   93loPI   C4A 1482  10.523   4.438   8.679 -0.1123  0.2168  0.2223
   93loPI   C5A 1483  10.370   4.677   8.356 -0.1996  0.2880 -0.0472
   93loPI   C6A 1484  10.552   4.981   8.184  0.0321 -0.0315 -0.3617
   93loPI   C1B 1485  11.109   4.633   9.735 -0.2273 -0.0140  0.0834
   93loPI   C2B 1486  10.972   4.621   9.355 -0.1456  0.0414  0.0079
   93loPI   C3B 1487  10.916   4.603   8.981  0.1265 -0.4169 -0.1646
   93loPI   C4B 1488  10.713   4.861   8.653  0.0217  0.3533  0.0930
   94loPI    C1 1489  12.408  11.906  10.859  0.3342 -0.1638  0.1313
   94loPI    C2 1490  12.336  12.283  10.973 -0.4121 -0.2290 -0.0768
   94loPI    C3 1491  12.523  12.212  10.626  0.1773 -0.0568  0.1929
   94loPI   PO4 1492  12.132  11.825  10.806  0.0957 -0.2482  0.1594
   94loPI   GL1 1493  11.859  11.718  10.509  0.1966  0.1069 -0.1054
   94loPI   GL2 1494  11.914  11.370  10.334  0.2983  0.3066  0.0399
   94loPI   C1A 1495  11.838  11.848  10.160  0.2166 -0.0817 -0.1488
   94loPI   C2A 1496  11.831  11.771   9.640 -0.3159 -0.0440 -0.0410
   94loPI   C3A 1497  11.889  11.873   9.216 -0.1213 -0.0611  0.1038
   94loPI   C4A 1498  11.902  11.831   8.756  0.2847 -0.1502  0.2183
   94loPI   C5A 1499  11.906  11.804   8.233  0.2570 -0.2456 -0.1235
   94loPI   C6A 1500  12.001  11.992   7.887  0.0162 -0.2311  0.0557
   94loPI   C1B 1501  12.046  11.197   9.958 -0.3381 -0.0085  0.0725
   94loPI   C2B 1502  12.084  11.328   9.515 -0.0013  0.0713  0.0480
   94loPI   C3B 1503  12.085  11.382   9.124  0.1756 -0.0009 -0.2982
   94loPI   C4B 1504  12.130  11.343   8.633 -0.1503 -0.1501  0.1046
   95loPI    C1 1505  11.270   0.151  10.960 -0.1911  0.1562  0.0567
   95loPI    C2 1506  11.471   0.405  10.725  0.0607 -0.1282 -0.0423
   95loPI    C3 1507  11.601   0.331  11.096 -0.0729 -0.0334  0.0240
   95loPI   PO4 1508  11.272  -0.057  10.856  0.0100  0.0549  0.1891
   95loPI   GL1 1509  11.342  -0.325  10.555  0.0048 -0.0423 -0.3089
   95loPI   GL2 1510  11.194  -0.599  10.513  0.0156 -0.1677  0.1036
   95loPI   C1A 1511  11.208  -0.224  10.057 -0.0891 -0.2130 -0.0509
   95loPI   C2A 1512  11.165  -0.265   9.666 -0.0169  0.1251  0.0122
   95loPI   C3A 1513  11.133  -0.350   9.248 -0.1381 -0.1683  0.0153
   95loPI   C4A 1514  11.014  -0.465   8.802  0.1408 -0.0498 -0.3775
   95loPI   C5A 1515  11.130  -0.355   8.398 -0.3373 -0.0877  0.2973
   95loPI   C6A 1516  11.291   0.011   8.299  0.3410 -0.2997  0.0105
   95loPI   C1B 1517  10.922  -0.736  10.180  0.2422  0.2361  0.1425
   95loPI   C2B 1518  10.839  -0.890   9.725  0.1319 -0.2477  0.0249
   95loPI   C3B 1519  10.873  -0.881   9.364  0.2105  0.0801  0.0541
   95loPI   C4B 1520  10.814  -0.792   9.055 -0.4570 -0.0535 -0.2163
   96loPI    C1 1521  12.080   6.555  10.685 -0.1569  0.1893 -0.0178
   96loPI    C2 1522  12.390   6.394  10.490 -0.0954  0.0849  0.1638
   96loPI    C3 1523  12.392   6.783  10.582  0.0260  0.0649  0.2485
   96loPI   PO4 1524  11.845   6.430  10.480 -0.1647  0.1968 -0.2136
   96loPI   GL1 1525  11.914   6.321  10.033  0.1851  0.0252  0.2322
   96loPI   GL2 1526  12.272   6.392   9.998  0.1436 -0.0970 -0.0931
   96loPI   C1A 1527  11.669   6.462   9.775  0.0109  0.0985 -0.1869
   96loPI   C2A 1528  11.900   6.703   9.541  0.2178  0.2286  0.0827
   96loPI   C3A 1529  11.954   6.692   9.152  0.2529  0.1021  0.0688
   96loPI   C4A 1530  11.803   6.542   8.797  0.0979 -0.1138  0.4593
   96loPI   C5A 1531  11.799   6.573   8.356  0.1622  0.0283  0.0409
   96loPI   C6A 1532  11.851   6.609   7.870 -0.3486  0.0363  0.1588
   96loPI   C1B 1533  12.200   6.743  10.046 -0.2819 -0.1194 -0.1188
   96loPI   C2B 1534  12.201   7.030   9.742  0.1358  0.0284  0.1133
   96loPI   C3B 1535  11.928   7.299   9.503 -0.0546  0.0313  0.0024
   96loPI   C4B 1536  11.806   7.190   9.135 -0.0306  0.0858  0.0965
   97loPI    C1 1537   1.628   1.133  11.422 -0.1075 -0.2480  0.0993
   97loPI    C2 1538   1.405   1.227  11.103  0.1873 -0.0140 -0.0433
   97loPI    C3 1539   1.329   1.396  11.457  0.0528 -0.0411 -0.0587
   97loPI   PO4 1540   1.853   1.134  11.300 -0.0327  0.0677  0.3082
   97loPI   GL1 1541   1.848   1.149  10.819  0.0989  0.1782  0.0293
   97loPI   GL2 1542   1.526   1.010  10.678  0.0704  0.0917  0.0148
   97loPI   C1A 1543   2.129   1.361  10.566  0.1289  0.2597 -0.1870
   97loPI   C2A 1544   2.215   1.169  10.113 -0.1260 -0.5213  0.2391
   97loPI   C3A 1545   2.147   1.194   9.666  0.2180  0.1737  0.1000
   97loPI   C4A 1546   2.385   1.200   9.262  0.2946 -0.2087 -0.0170
   97loPI   C5A 1547   2.344   1.139   8.889 -0.0110  0.3061 -0.0611
   97loPI   C6A 1548   2.241   1.416   8.556  0.2117 -0.1382  0.0171
   97loPI   C1B 1549   1.660   1.141  10.331  0.2086 -0.2051  0.0237
   97loPI   C2B 1550   1.669   1.152   9.931  0.1102  0.1698  0.0205
   97loPI   C3B 1551   1.673   1.138   9.492 -0.0773 -0.2386 -0.1497
   97loPI   C4B 1552   1.914   1.315   9.110  0.0177  0.0204  0.1176
   98loPI    C1 1553   0.952   8.078  11.100 -0.0849 -0.0760  0.0301
   98loPI    C2 1554   1.071   8.117  11.480 -0.0043  0.0630 -0.0088
   98loPI    C3 1555   0.686   8.166  11.385 -0.0215  0.0471  0.0520
   98loPI   PO4 1556   1.015   7.782  11.025  0.3940  0.1650 -0.0551
   98loPI   GL1 1557   1.164   7.547  10.632 -0.1997  0.1961 -0.0621
   98loPI   GL2 1558   0.985   7.206  10.724 -0.1827 -0.1337 -0.2560
   98loPI   C1A 1559   1.283   7.605  10.184 -0.0444  0.1600 -0.1514
   98loPI   C2A 1560   1.265   7.409   9.717  0.0269  0.1274 -0.0252
   98loPI   C3A 1561   1.316   7.328   9.368 -0.2381 -0.1121  0.1147
   98loPI   C4A 1562   1.361   7.278   9.012  0.1589  0.2171  0.0016
   98loPI   C5A 1563   1.661   7.257   8.639 -0.5597  0.4100  0.1448
   98loPI   C6A 1564   1.747   7.168   8.248  0.0267 -0.1451 -0.0281
   98loPI   C1B 1565   1.158   7.144  10.276  0.3033  0.0243  0.2926
   98loPI   C2B 1566   1.265   6.988   9.896 -0.1219  0.0926 -0.1161
   98loPI   C3B 1567   1.295   6.784   9.434  0.1650  0.2089  0.1072
   98loPI   C4B 1568   1.374   6.727   9.023 -0.1330 -0.0519  0.1721
   99loPI    C1 1569   0.177   7.844  10.946 -0.0450 -0.0812  0.1200
   99loPI    C2 1570  -0.181   7.893  11.116 -0.0705  0.3218 -0.0398
   99loPI    C3 1571   0.148   8.022  11.303 -0.0125  0.0164  0.0742
   99loPI   PO4 1572   0.195   7.546  10.872 -0.1438  0.2583 -0.0852
   99loPI   GL1 1573   0.364   7.236  10.677 -0.0164  0.1338 -0.0914
   99loPI   GL2 1574   0.269   7.554  10.372 -0.0883 -0.1969 -0.0538
   99loPI   C1A 1575   0.262   7.057  10.257  0.0097 -0.0483 -0.0975
   99loPI   C2A 1576   0.261   6.975   9.825  0.0924 -0.0198  0.1061
   99loPI   C3A 1577   0.382   6.843   9.418 -0.0323 -0.2226 -0.2919
   99loPI   C4A 1578   0.448   6.829   8.978  0.2465 -0.2722  0.1565
   99loPI   C5A 1579   0.269   6.640   8.603  0.0772 -0.1819 -0.2315
   99loPI   C6A 1580  -0.068   6.467   8.384  0.0346 -0.2168  0.1835
   99loPI   C1B 1581   0.291   7.478   9.883 -0.0834 -0.1271  0.1348
   99loPI   C2B 1582   0.409   7.361   9.518  0.1932  0.0030 -0.1473
   99loPI   C3B 1583   0.423   7.392   9.047 -0.0670  0.1932 -0.1365
   99loPI   C4B 1584   0.632   7.200   8.699 -0.1238  0.0177  0.2474
  100loPI    C1 1585   4.744  11.354  10.768  0.0383  0.1517 -0.0321
  100loPI    C2 1586   5.014  11.352  11.064  0.1799  0.1053 -0.1606
  100loPI    C3 1587   4.763  11.044  11.020  0.1495  0.1184 -0.0810
  100loPI   PO4 1588   4.891  11.549  10.590 -0.2594  0.0489 -0.0856
  100loPI   GL1 1589   4.767  11.819  10.271 -0.1320  0.0184  0.0542
  100loPI   GL2 1590   5.020  12.079  10.138 -0.2004 -0.1273 -0.0459
  100loPI   C1A 1591   4.404  11.619  10.095  0.2875  0.0912  0.2433
  100loPI   C2A 1592   4.283  11.634   9.664  0.0582 -0.2941 -0.0192
  100loPI   C3A 1593   4.222  11.778   9.281  0.2187 -0.0906  0.3072
  100loPI   C4A 1594   4.044  11.678   9.010 -0.0941 -0.2196  0.0353
  100loPI   C5A 1595   3.921  11.483   8.667 -0.0230 -0.0774 -0.2661
  100loPI   C6A 1596   3.707  11.157   8.441  0.1272  0.0115  0.1055
  100loPI   C1B 1597   5.140  11.815   9.951  0.1075 -0.1091  0.1968
  100loPI   C2B 1598   5.367  11.467   9.780 -0.2039 -0.0140  0.1079
  100loPI   C3B 1599   5.566  11.254   9.578 -0.1658 -0.1187  0.0115
  100loPI   C4B 1600   5.969  11.058   9.503  0.0598  0.1458 -0.1982
  101loPI    C1 1601   0.179   9.575  10.867 -0.1810 -0.3227  0.0352
  101loPI    C2 1602   0.249   9.661  11.251 -0.2169  0.5612 -0.1372
  101loPI    C3 1603  -0.125   9.595  11.126 -0.2050  0.2700 -0.0254
  101loPI   PO4 1604   0.407   9.481  10.791 -0.1344 -0.1347 -0.1499
  101loPI   GL1 1605   0.341   9.157  10.545  0.1424 -0.0728  0.1868
  101loPI   GL2 1606   0.104   9.001  10.393 -0.3180 -0.1686  0.0968
  101loPI   C1A 1607   0.546   9.150  10.159  0.0156 -0.0603  0.1579
  101loPI   C2A 1608   0.528   9.172   9.743 -0.3147  0.0241  0.2665
  101loPI   C3A 1609   0.423   9.143   9.335  0.2409  0.1135  0.1654
  101loPI   C4A 1610   0.318   9.046   8.891 -0.2872 -0.1471  0.1024
  101loPI   C5A 1611   0.335   8.870   8.432  0.2414 -0.1605  0.0933
  101loPI   C6A 1612   0.268   8.961   7.942  0.1861 -0.2544  0.3391
  101loPI   C1B 1613   0.010   9.152  10.053 -0.3070  0.0577 -0.0711
  101loPI   C2B 1614  -0.020   9.303   9.635 -0.0887 -0.0595 -0.1622
  101loPI   C3B 1615   0.016   9.401   9.223 -0.3166  0.1489 -0.0567
  101loPI   C4B 1616   0.005   9.436   8.835 -0.0643 -0.0765 -0.0086
  102loPI    C1 1617  16.578   0.330  11.278  0.0615  0.3235  0.1003
  102loPI    C2 1618  16.736   0.052  11.518  0.2017  0.2622 -0.0611
  102loPI    C3 1619  16.479   0.320  11.665  0.1411  0.1087  0.1166
  102loPI   PO4 1620  16.632   0.214  11.082 -0.1773  0.1305  0.2171
  102loPI   GL1 1621  16.651   0.438  10.600 -0.0228 -0.0012  0.2422
  102loPI   GL2 1622  16.725   0.727  10.513 -0.2695  0.4992 -0.1015
  102loPI   C1A 1623  16.631   0.326  10.183  0.0854 -0.1857 -0.3625
  102loPI   C2A 1624  16.688   0.484   9.811 -0.1084  0.0319  0.0010
  102loPI   C3A 1625  16.685   0.374   9.308 -0.0674 -0.1244 -0.4952
  102loPI   C4A 1626  16.661   0.390   8.888  0.1309  0.0278 -0.2897
  102loPI   C5A 1627  16.312   0.395   8.599 -0.1237 -0.0416  0.0290
  102loPI   C6A 1628  16.058   0.107   8.531  0.0062 -0.1942 -0.1340
  102loPI   C1B 1629  16.795   0.870  10.114  0.0664 -0.0469  0.0142
  102loPI   C2B 1630  16.861   0.984   9.694  0.1683 -0.1142 -0.2755
  102loPI   C3B 1631  16.851   0.892   9.255  0.1823 -0.1713 -0.0790
  102loPI   C4B 1632  16.921   0.923   8.850  0.0004  0.2202  0.1551
  103loPI    C1 1633   5.897   0.350  10.858  0.1876  0.2142 -0.0323
  103loPI    C2 1634   5.875   0.617  11.154 -0.0695  0.0796  0.0734
  103loPI    C3 1635   6.152   0.329  11.165 -0.1267  0.0291  0.2228
  103loPI   PO4 1636   5.730   0.474  10.686 -0.0090 -0.1441  0.2221
  103loPI   GL1 1637   5.443   0.284  10.472  0.0089  0.4747  0.0849
  103loPI   GL2 1638   5.259   0.547  10.514  0.1002 -0.1400  0.1101
  103loPI   C1A 1639   5.493   0.489  10.075  0.4205 -0.3252  0.3637
  103loPI   C2A 1640   5.594   0.909   9.807  0.0516 -0.3148  0.0549
  103loPI   C3A 1641   5.511   0.868   9.324  0.0485 -0.2006 -0.4213
  103loPI   C4A 1642   5.634   0.974   8.974  0.0195 -0.0439  0.2266
  103loPI   C5A 1643   6.011   1.145   8.748 -0.0083 -0.1898  0.4013
  103loPI   C6A 1644   6.342   1.074   8.416  0.0633 -0.0395  0.0006
  103loPI   C1B 1645   5.156   0.862  10.147  0.0140 -0.0326 -0.2396
  103loPI   C2B 1646   5.100   0.917   9.699 -0.0676 -0.0013  0.0917
  103loPI   C3B 1647   4.982   0.894   9.340  0.0313  0.2032 -0.0380
  103loPI   C4B 1648   4.983   0.676   9.067 -0.0530 -0.2078  0.3210
  104loPI    C1 1649   1.548   9.468  10.248 -0.0445 -0.0967 -0.1220
  104loPI    C2 1650   1.187   9.575  10.383  0.0994  0.1310  0.0907
  104loPI    C3 1651   1.362   9.244  10.522 -0.0570 -0.0200 -0.0674
  104loPI   PO4 1652   1.741   9.704  10.312 -0.0772 -0.0573  0.1974
  104loPI   GL1 1653   1.991   9.813  10.060 -0.1579  0.2069 -0.0525
  104loPI   GL2 1654   2.148  10.103   9.925 -0.0578  0.0673  0.1837
  104loPI   C1A 1655   1.699   9.527   9.640 -0.1340 -0.2168 -0.1763
  104loPI   C2A 1656   1.650   9.339   9.325  0.0849  0.0368 -0.1255
  104loPI   C3A 1657   1.534   9.289   8.908  0.1462 -0.0501  0.1081
  104loPI   C4A 1658   1.327   9.107   8.605 -0.0544 -0.0217  0.0194
  104loPI   C5A 1659   1.235   9.041   8.211 -0.0543 -0.1973  0.2989
  104loPI   C6A 1660   1.143   8.963   7.780  0.2016  0.0741 -0.1047
  104loPI   C1B 1661   2.230  10.437   9.655 -0.1587 -0.0632  0.0160
  104loPI   C2B 1662   1.996  10.556   9.317  0.0522  0.1614 -0.0682
  104loPI   C3B 1663   1.824  10.293   9.030 -0.2857 -0.1334  0.0713
  104loPI   C4B 1664   1.653  10.094   8.640 -0.0729  0.0061  0.2560
  105loPI    C1 1665  14.281  14.918  11.003  0.0912 -0.2680  0.0223
  105loPI    C2 1666  14.519  14.948  11.323  0.1365  0.1732 -0.0465
  105loPI    C3 1667  14.255  15.237  11.242  0.0189 -0.0075 -0.3249
  105loPI   PO4 1668  14.184  14.685  10.862 -0.2404 -0.0258 -0.0766
  105loPI   GL1 1669  14.321  14.598  10.451 -0.0518  0.3415 -0.1313
  105loPI   GL2 1670  14.279  14.455  10.092  0.1424  0.3526 -0.2125
  105loPI   C1A 1671  13.932  14.775  10.178  0.1933 -0.1950  0.0407
  105loPI   C2A 1672  13.708  14.779   9.805 -0.0444  0.3237  0.2573
  105loPI   C3A 1673  13.719  14.855   9.458 -0.0754 -0.2086  0.2306
  105loPI   C4A 1674  13.682  14.776   9.039 -0.1241 -0.3484 -0.0784
  105loPI   C5A 1675  13.738  14.781   8.624 -0.2182  0.0785  0.3000
  105loPI   C6A 1676  14.077  15.015   8.381  0.0587  0.2425 -0.3200
  105loPI   C1B 1677  14.209  14.645   9.725  0.1289  0.0414  0.1253
  105loPI   C2B 1678  14.203  14.719   9.288  0.0459  0.0570 -0.2512
  105loPI   C3B 1679  14.214  14.719   8.851 -0.1777  0.2850  0.1088
  105loPI   C4B 1680  14.159  14.404   8.455  0.1984 -0.3814 -0.0146
  106loPI    C1 1681   5.114   0.023  10.897  0.0306  0.1691  0.1202
  106loPI    C2 1682   5.333   0.017  11.232  0.0028  0.4069  0.1438
  106loPI    C3 1683   5.514   0.019  10.875  0.0325  0.1611  0.1562
  106loPI   PO4 1684   4.930  -0.157  10.990  0.1909  0.1956  0.0340
  106loPI   GL1 1685   4.656  -0.319  10.785  0.0719  0.3220  0.0267
  106loPI   GL2 1686   4.477  -0.428  10.603  0.0557 -0.2097 -0.1204
  106loPI   C1A 1687   4.997  -0.613  10.481  0.1166 -0.1812  0.0308
  106loPI   C2A 1688   4.977  -0.570  10.024 -0.1459 -0.3560 -0.0992
  106loPI   C3A 1689   4.772  -0.472   9.532  0.1209  0.0294  0.1465
  106loPI   C4A 1690   4.784  -0.588   9.133  0.2787 -0.2216 -0.0127
  106loPI   C5A 1691   4.543  -0.630   8.708 -0.0226  0.1637 -0.1276
  106loPI   C6A 1692   4.671  -0.818   8.331 -0.1579 -0.0785 -0.0708
  106loPI   C1B 1693   4.578  -0.230  10.177 -0.1319 -0.0117  0.2214
  106loPI   C2B 1694   4.827  -0.130   9.861  0.2861  0.1934 -0.0963
  106loPI   C3B 1695   4.787   0.097   9.487 -0.2251 -0.0360 -0.1012
  106loPI   C4B 1696   5.018   0.134   9.064 -0.0549 -0.0210 -0.0062
  107loPI    C1 1697   1.659   3.633  11.273  0.0619  0.3812 -0.1137
  107loPI    C2 1698   2.004   3.490  11.130 -0.1601 -0.1694 -0.1233
  107loPI    C3 1699   1.862   3.357  11.479 -0.3275  0.1122 -0.0809
  107loPI   PO4 1700   1.498   3.604  11.053 -0.1486  0.2416 -0.0838
  107loPI   GL1 1701   1.678   3.506  10.581  0.1303 -0.0656  0.0039
  107loPI   GL2 1702   1.744   3.258  10.609 -0.1392  0.2059 -0.1678
  107loPI   C1A 1703   1.862   3.761  10.286 -0.2618 -0.0901 -0.1973
  107loPI   C2A 1704   1.960   3.702   9.803  0.0255  0.0289 -0.0782
  107loPI   C3A 1705   2.225   3.734   9.402 -0.0687 -0.1000  0.0118
  107loPI   C4A 1706   2.548   3.705   9.083 -0.2869  0.0047  0.1246
  107loPI   C5A 1707   2.712   3.554   8.709 -0.0945 -0.0706  0.0888
  107loPI   C6A 1708   3.079   3.617   8.527 -0.1199 -0.2675 -0.1110
  107loPI   C1B 1709   1.800   3.288  10.157 -0.1194 -0.2035 -0.0786
  107loPI   C2B 1710   1.700   3.244   9.629  0.2326 -0.0517 -0.3409
  107loPI   C3B 1711   1.335   3.337   9.295 -0.5394  0.1022  0.1272
  107loPI   C4B 1712   1.000   3.158   9.232 -0.0605 -0.0057 -0.0907
  108loPI    C1 1713   1.796   5.887  11.282  0.0562 -0.4236 -0.1428
  108loPI    C2 1714   1.996   6.073  11.574 -0.1586  0.3922 -0.4872
  108loPI    C3 1715   1.627   5.934  11.642 -0.0267  0.1494 -0.2468
  108loPI   PO4 1716   1.837   6.023  11.061 -0.1438 -0.1296  0.2451
  108loPI   GL1 1717   1.540   6.052  10.718  0.1123 -0.0365  0.2113
  108loPI   GL2 1718   1.676   5.868  10.584 -0.2681 -0.1139 -0.1638
  108loPI   C1A 1719   1.218   5.948  10.343  0.0402  0.0214 -0.4389
  108loPI   C2A 1720   1.160   5.859   9.915 -0.0222 -0.0278 -0.1543
  108loPI   C3A 1721   1.081   5.789   9.522  0.0704 -0.2594 -0.3164
  108loPI   C4A 1722   1.125   5.738   9.056  0.0542  0.4817  0.0390
  108loPI   C5A 1723   1.074   5.666   8.637  0.1144  0.1926 -0.0383
  108loPI   C6A 1724   0.844   5.890   8.312  0.0960  0.2180 -0.0266
  108loPI   C1B 1725   1.618   6.116  10.133  0.1966  0.3085 -0.0416
  108loPI   C2B 1726   1.572   6.025   9.707  0.0501 -0.0899  0.1247
  108loPI   C3B 1727   1.582   5.918   9.266  0.1578  0.3295 -0.0167
  108loPI   C4B 1728   1.564   5.730   8.822 -0.1101  0.0170  0.1812
  109loPI    C1 1729   9.605   1.550  10.803  0.1224  0.0963  0.0625
  109loPI    C2 1730   9.288   1.551  11.047  0.0616  0.1622 -0.0164
  109loPI    C3 1731   9.599   1.312  11.125  0.0228  0.1489  0.1000
  109loPI   PO4 1732   9.420   1.553  10.552  0.0077 -0.1966 -0.0203
  109loPI   GL1 1733   9.646   1.687  10.205 -0.1299 -0.2250  0.2712
  109loPI   GL2 1734   9.793   1.360  10.274  0.0252  0.0219  0.0694
  109loPI   C1A 1735  10.043   1.811  10.061  0.1555 -0.1070 -0.0191
  109loPI   C2A 1736  10.373   1.698   9.815 -0.1087  0.1095 -0.3033
  109loPI   C3A 1737  10.675   1.597   9.618  0.0011 -0.1925  0.0111
  109loPI   C4A 1738  10.852   1.684   9.284 -0.1454  0.2629  0.0430
  109loPI   C5A 1739  11.167   1.796   9.005  0.1090  0.1399  0.1337
  109loPI   C6A 1740  11.480   1.871   8.755  0.1144 -0.1923  0.2811
  109loPI   C1B 1741   9.526   1.265   9.972 -0.4175 -0.3256  0.2659
  109loPI   C2B 1742   9.530   1.536   9.733  0.0660 -0.0745  0.4107
  109loPI   C3B 1743   9.474   1.645   9.364 -0.1936  0.2232 -0.3664
  109loPI   C4B 1744   9.776   1.840   9.123  0.1039  0.0308  0.1264
  110loPI    C1 1745   3.341   7.509  10.738  0.1829  0.0736  0.1226
  110loPI    C2 1746   3.366   7.791  11.021 -0.0539  0.1228  0.0966
  110loPI    C3 1747   3.400   7.405  11.120 -0.3748  0.1255  0.2327
  110loPI   PO4 1748   3.496   7.568  10.541  0.0694  0.0715 -0.0660
  110loPI   GL1 1749   3.468   7.449  10.114 -0.2574 -0.0816  0.1051
  110loPI   GL2 1750   3.753   7.469   9.987 -0.1460 -0.0182  0.0256
  110loPI   C1A 1751   3.258   7.355   9.713  0.1211  0.0462  0.1165
  110loPI   C2A 1752   3.086   6.946   9.612  0.1735 -0.2568  0.2279
  110loPI   C3A 1753   3.114   6.708   9.248  0.0388 -0.1877 -0.2404
  110loPI   C4A 1754   3.130   6.884   8.789  0.0358  0.1833  0.0369
  110loPI   C5A 1755   3.112   6.930   8.460  0.1762  0.1696 -0.2464
  110loPI   C6A 1756   3.466   7.177   8.406  0.0835 -0.0052  0.0231
  110loPI   C1B 1757   3.637   7.520   9.521  0.2543  0.2554  0.2671
  110loPI   C2B 1758   3.700   7.414   9.124  0.1245 -0.1105 -0.0962
  110loPI   C3B 1759   3.726   7.571   8.658 -0.1749  0.0542 -0.1158
  110loPI   C4B 1760   4.075   7.769   8.385  0.0426 -0.0491  0.0701
  111loPI    C1 1761   9.267  11.268  10.814  0.0477  0.0887 -0.1200
  111loPI    C2 1762   9.288  10.871  10.856 -0.0729  0.0742 -0.1903
  111loPI    C3 1763   9.596  11.072  10.699  0.1105  0.0473  0.1253
  111loPI   PO4 1764   9.125  11.309  10.675  0.1894 -0.0852  0.0316
  111loPI   GL1 1765   9.310  11.373  10.335  0.3985 -0.1798  0.0949
  111loPI   GL2 1766   9.572  11.449  10.351 -0.0639  0.2792  0.0500
  111loPI   C1A 1767   9.433  11.304   9.896 -0.1888 -0.0318  0.2013
  111loPI   C2A 1768   9.359  11.325   9.474  0.3892 -0.0384  0.0669
  111loPI   C3A 1769   9.305  11.368   8.994  0.2096 -0.1865 -0.1750
  111loPI   C4A 1770   9.340  11.397   8.570  0.0746 -0.1128 -0.1710
  111loPI   C5A 1771   9.697  11.235   8.273 -0.0551 -0.0337  0.1860
  111loPI   C6A 1772   9.958  10.843   8.025  0.0462  0.1398 -0.2808
  111loPI   C1B 1773   9.878  11.564   9.937  0.2756  0.2232 -0.1921
  111loPI   C2B 1774   9.863  11.475   9.529  0.0412 -0.0943 -0.0772
  111loPI   C3B 1775   9.864  11.496   9.096  0.0055 -0.0512  0.3994
  111loPI   C4B 1776   9.940  11.278   8.823 -0.0195  0.0042 -0.0123
  112loPI    C1 1777  17.525   5.105  11.031 -0.1505 -0.0456 -0.0840
  112loPI    C2 1778  17.387   4.981  11.385 -0.0435 -0.1633 -0.0824
  112loPI    C3 1779  17.703   5.225  11.369 -0.2594  0.1216 -0.0852
  112loPI   PO4 1780  17.626   4.838  10.867  0.0237  0.0274 -0.0790
  112loPI   GL1 1781  17.523   4.705  10.485 -0.4427  0.1379 -0.0230
  112loPI   GL2 1782  17.422   4.449  10.585  0.0162  0.1143  0.4444
  112loPI   C1A 1783  17.586   4.516  10.059  0.1147 -0.1431 -0.2571
  112loPI   C2A 1784  17.706   4.371   9.641 -0.0029  0.2879 -0.2094
  112loPI   C3A 1785  17.639   4.263   9.205  0.1365 -0.0488  0.1083
  112loPI   C4A 1786  17.820   4.095   8.813 -0.3089  0.0810  0.0950
  112loPI   C5A 1787  17.866   3.750   8.487  0.1144  0.0929 -0.1712
  112loPI   C6A 1788  17.696   3.420   8.308 -0.3691 -0.1387 -0.0376
  112loPI   C1B 1789  17.619   4.092  10.336 -0.1612 -0.1670  0.0215
  112loPI   C2B 1790  17.617   3.906   9.945 -0.0789 -0.2358  0.1110
  112loPI   C3B 1791  17.576   3.765   9.414  0.1935  0.1898 -0.0483
  112loPI   C4B 1792  17.750   3.652   9.038 -0.0070  0.1543  0.1213
  113loPI    C1 1793  12.109  13.626  11.517 -0.0465  0.1057 -0.1499
  113loPI    C2 1794  11.808  13.364  11.553  0.0090  0.0727  0.0988
  113loPI    C3 1795  12.184  13.247  11.620  0.0736  0.1287 -0.1516
  113loPI   PO4 1796  12.051  13.737  11.257 -0.1259  0.0452 -0.0773
  113loPI   GL1 1797  12.103  14.086  10.878 -0.3759  0.0710  0.1434
  113loPI   GL2 1798  12.131  13.873  10.805 -0.4767  0.0617 -0.0516
  113loPI   C1A 1799  11.995  14.134  10.421  0.0213  0.2823 -0.2078
  113loPI   C2A 1800  12.051  14.043   9.919  0.3664 -0.1215  0.0325
  113loPI   C3A 1801  12.013  14.126   9.526 -0.1126  0.1296 -0.0093
  113loPI   C4A 1802  12.115  14.069   9.016 -0.0981  0.2243  0.2285
  113loPI   C5A 1803  12.229  14.146   8.690  0.0696  0.1183  0.0083
  113loPI   C6A 1804  12.250  14.529   8.510  0.0041 -0.0908  0.0834
  113loPI   C1B 1805  12.169  13.704  10.363 -0.2806  0.2370  0.0597
  113loPI   C2B 1806  12.138  13.455   9.999  0.0732 -0.2782 -0.0924
  113loPI   C3B 1807  12.186  13.611   9.624 -0.0425 -0.1535  0.1292
  113loPI   C4B 1808  12.215  13.616   9.193 -0.0634 -0.0632 -0.0082
  114loPI    C1 1809   3.523   2.001  11.350  0.1799 -0.0082  0.0323
  114loPI    C2 1810   3.774   1.719  11.483 -0.0291 -0.2258 -0.0294
  114loPI    C3 1811   3.389   1.714  11.594 -0.0611 -0.0340 -0.1271
  114loPI   PO4 1812   3.610   2.055  11.047 -0.0455  0.1416 -0.3196
  114loPI   GL1 1813   3.570   2.129  10.686  0.2612  0.0044  0.1387
  114loPI   GL2 1814   3.724   2.428  10.648 -0.0447  0.0018 -0.1470
  114loPI   C1A 1815   3.339   1.960  10.319 -0.2326 -0.0811  0.1294
  114loPI   C2A 1816   3.250   2.078   9.828 -0.1124  0.0416 -0.1853
  114loPI   C3A 1817   3.273   2.287   9.377  0.2105  0.0068  0.0758
  114loPI   C4A 1818   3.390   2.642   9.065  0.5354 -0.0761 -0.1360
  114loPI   C5A 1819   3.357   3.033   9.159 -0.0504  0.2048  0.1938
  114loPI   C6A 1820   3.246   3.345   8.920 -0.1689  0.0261  0.0832
  114loPI   C1B 1821   3.530   2.385  10.215  0.2396 -0.0335 -0.0618
  114loPI   C2B 1822   3.489   2.533   9.900  0.1572 -0.0995  0.0534
  114loPI   C3B 1823   3.426   2.780   9.583 -0.0658  0.4162 -0.1735
  114loPI   C4B 1824   3.168   3.137   9.654  0.0273  0.0343  0.1170
  115loPI    C1 1825   3.574  10.551  10.478  0.0580  0.2225 -0.0293
  115loPI    C2 1826   3.359  10.649  10.801  0.1423  0.0506  0.0802
  115loPI    C3 1827   3.345  10.880  10.474 -0.1566  0.0774  0.1088
  115loPI   PO4 1828   3.573  10.276  10.477  0.0166 -0.0087  0.2332
  115loPI   GL1 1829   3.621  10.219  10.045  0.0523  0.1451  0.0191
  115loPI   GL2 1830   3.910  10.099  10.070 -0.3465 -0.0149 -0.0802
  115loPI   C1A 1831   3.540  10.359   9.640  0.0876  0.0112  0.0501
  115loPI   C2A 1832   3.386  10.370   9.209 -0.3008 -0.4244  0.0126
  115loPI   C3A 1833   3.331  10.387   8.798 -0.2016 -0.0528 -0.0174
  115loPI   C4A 1834   3.190  10.446   8.427 -0.0618  0.0383  0.3463
  115loPI   C5A 1835   3.014  10.241   8.119  0.0027 -0.2345  0.1010
  115loPI   C6A 1836   3.136  10.116   7.704 -0.0291  0.1862  0.0781
  115loPI   C1B 1837   4.035  10.148   9.678  0.1035  0.1857 -0.1453
  115loPI   C2B 1838   3.907  10.204   9.213  0.2658  0.1331 -0.0237
  115loPI   C3B 1839   3.866  10.431   8.886 -0.0241  0.0155  0.0718
  115loPI   C4B 1840   3.660  10.624   8.492  0.1886  0.1167  0.0080
  116loPI    C1 1841  16.866  15.049  10.867  0.1029 -0.0503  0.0787
  116loPI    C2 1842  16.683  14.867  11.173  0.1438 -0.0350  0.1124
  116loPI    C3 1843  17.082  14.854  11.141  0.1598  0.1868  0.2051
  116loPI   PO4 1844  16.671  14.998  10.641 -0.1390  0.3603  0.1421
  116loPI   GL1 1845  16.756  14.855  10.295  0.0082 -0.3320  0.0622
  116loPI   GL2 1846  16.960  14.765  10.258 -0.0342  0.2901  0.1838
  116loPI   C1A 1847  16.511  14.856   9.953 -0.0359  0.1581  0.0429
  116loPI   C2A 1848  16.463  14.846   9.471  0.0951 -0.0204  0.1562
  116loPI   C3A 1849  16.730  14.851   9.114  0.0581  0.4012 -0.3353
  116loPI   C4A 1850  16.826  14.813   8.643  0.0615 -0.1902  0.0387
  116loPI   C5A 1851  17.031  14.868   8.219  0.1712 -0.0086 -0.3073
  116loPI   C6A 1852  17.048  14.670   7.779  0.1908 -0.1870 -0.2515
  116loPI   C1B 1853  17.003  14.874   9.831  0.0046 -0.3272 -0.1228
  116loPI   C2B 1854  17.139  14.880   9.374  0.0522 -0.0498 -0.3656
  116loPI   C3B 1855  17.280  14.941   8.929  0.0516 -0.1885 -0.1251
  116loPI   C4B 1856  17.180  15.125   8.676 -0.0311 -0.0726  0.0890
  117loPI    C1 1857  13.855   2.844  10.971 -0.2193 -0.2770 -0.2734
  117loPI    C2 1858  13.512   2.771  11.164 -0.1545  0.0762 -0.0147
  117loPI    C3 1859  13.859   2.643  11.317 -0.1170  0.2277  0.0292
  117loPI   PO4 1860  13.772   2.817  10.769 -0.1151  0.2203 -0.0721
  117loPI   GL1 1861  13.939   3.177  10.579  0.2801  0.0083 -0.0372
  117loPI   GL2 1862  13.907   3.562  10.645 -0.2860  0.1228  0.0472
  117loPI   C1A 1863  13.801   3.047  10.199 -0.0114 -0.1826 -0.1767
  117loPI   C2A 1864  13.680   3.095   9.822  0.0060  0.0313 -0.2077
  117loPI   C3A 1865  13.603   2.794   9.563 -0.0010 -0.1314  0.1871
  117loPI   C4A 1866  13.391   2.633   9.254 -0.0911 -0.0383  0.1540
  117loPI   C5A 1867  13.020   2.582   9.028  0.1944  0.0028  0.0138
  117loPI   C6A 1868  12.818   2.924   8.895  0.1908 -0.1515  0.1630
  117loPI   C1B 1869  13.691   3.568  10.242  0.2058  0.1390  0.2766
  117loPI   C2B 1870  13.526   3.544   9.911 -0.1890 -0.3412 -0.0346
  117loPI   C3B 1871  13.554   3.567   9.506  0.2778  0.0762 -0.1236
  117loPI   C4B 1872  13.734   3.465   9.127  0.1360  0.1885  0.0108
  118loPI    C1 1873   3.788   0.359  11.055  0.3609 -0.2450  0.0302
  118loPI    C2 1874   3.610   0.015  11.155 -0.0512 -0.0142  0.1132
  118loPI    C3 1875   3.583   0.332  11.398  0.2013  0.1214 -0.0319
  118loPI   PO4 1876   4.034   0.314  10.851 -0.0186  0.0805 -0.0772
  118loPI   GL1 1877   3.945   0.434  10.449  0.2323  0.0074  0.1151
  118loPI   GL2 1878   3.972   0.289  10.195  0.1554  0.1376  0.1580
  118loPI   C1A 1879   3.824   0.841  10.248 -0.2752 -0.1154  0.0325
  118loPI   C2A 1880   3.897   1.114   9.940  0.0594  0.2818  0.2876
  118loPI   C3A 1881   3.741   1.298   9.606  0.0766 -0.3516 -0.2747
  118loPI   C4A 1882   3.794   1.569   9.298 -0.0847 -0.0228  0.1198
  118loPI   C5A 1883   4.004   1.757   9.033  0.1345 -0.1041  0.0208
  118loPI   C6A 1884   3.906   2.005   8.701 -0.0571 -0.1257  0.0878
  118loPI   C1B 1885   4.175   0.583  10.042  0.0508  0.2389 -0.0696
  118loPI   C2B 1886   4.210   0.808   9.663 -0.0841  0.0486  0.1936
  118loPI   C3B 1887   4.136   0.591   9.291  0.0540 -0.0798 -0.0435
  118loPI   C4B 1888   4.139   0.100   9.020 -0.1011 -0.2055 -0.1910
  119loPI    C1 1889  13.983  15.308  10.746 -0.0838  0.3416 -0.1412
  119loPI    C2 1890  14.181  15.072  10.490 -0.1185  0.0174  0.1242
  119loPI    C3 1891  14.380  15.342  10.708 -0.0326  0.0087  0.0572
  119loPI   PO4 1892  13.733  15.391  10.649 -0.2482 -0.3889  0.2523
  119loPI   GL1 1893  13.723  15.241  10.238 -0.1558 -0.1305 -0.1089
  119loPI   GL2 1894  13.369  15.124  10.386  0.1058  0.2070  0.0744
  119loPI   C1A 1895  13.540  15.276   9.707  0.1220 -0.3715 -0.3339
  119loPI   C2A 1896  13.439  15.259   9.254  0.1484 -0.0005 -0.1104
  119loPI   C3A 1897  13.608  15.295   8.870  0.2643  0.0891 -0.1229
  119loPI   C4A 1898  13.416  15.252   8.437  0.1526 -0.3018 -0.0780
  119loPI   C5A 1899  13.142  15.546   8.247  0.2102  0.2496  0.0268
  119loPI   C6A 1900  12.608  15.566   8.221 -0.2548  0.0494  0.2790
  119loPI   C1B 1901  13.289  14.919   9.995  0.2581  0.0616  0.1622
  119loPI   C2B 1902  13.165  14.898   9.601 -0.0936  0.2299 -0.0159
  119loPI   C3B 1903  13.198  14.804   9.152  0.1478 -0.2096 -0.2155
  119loPI   C4B 1904  13.280  14.815   8.694 -0.2254 -0.3038  0.0041
  120loPI    C1 1905   1.375  11.666  10.700 -0.0387  0.1784  0.0037
  120loPI    C2 1906   1.745  11.563  10.812 -0.0499  0.1471  0.0120
  120loPI    C3 1907   1.429  11.381  10.975 -0.0687  0.1681 -0.0010
  120loPI   PO4 1908   1.383  11.933  10.683 -0.1896 -0.1234 -0.0043
  120loPI   GL1 1909   1.500  12.274  10.382  0.0566  0.1196 -0.2209
  120loPI   GL2 1910   1.844  12.322  10.347 -0.1472  0.0190  0.1023
  120loPI   C1A 1911   1.297  12.408   9.913 -0.1436  0.0060 -0.1715
  120loPI   C2A 1912   1.267  12.452   9.477  0.2735 -0.0955 -0.1667
  120loPI   C3A 1913   1.237  12.427   9.134 -0.0536  0.3231 -0.0425
  120loPI   C4A 1914   1.327  12.468   8.774 -0.0311 -0.0096 -0.1430
  120loPI   C5A 1915   1.285  12.631   8.485  0.1241 -0.3082 -0.2143
  120loPI   C6A 1916   1.308  13.000   8.261 -0.0251  0.0721  0.0334
  120loPI   C1B 1917   1.788  12.410   9.953  0.1602 -0.1303 -0.0004
  120loPI   C2B 1918   1.834  12.451   9.539 -0.0509  0.1194  0.0332
  120loPI   C3B 1919   1.718  12.609   9.083  0.2437 -0.1725  0.1104
  120loPI   C4B 1920   1.830  12.615   8.631 -0.1845  0.2175  0.2060
  121loPI    C1 1921  13.034   8.405  10.746 -0.1700 -0.0760 -0.0100
  121loPI    C2 1922  13.327   8.390  11.017 -0.1258  0.0333 -0.0511
  121loPI    C3 1923  12.953   8.470  11.132 -0.0863  0.2023 -0.0370
  121loPI   PO4 1924  13.112   8.530  10.573  0.1378 -0.0292 -0.2464
  121loPI   GL1 1925  12.946   8.545  10.230  0.0511  0.1586 -0.1752
  121loPI   GL2 1926  13.240   8.492  10.081 -0.0094 -0.3015 -0.0170
  121loPI   C1A 1927  12.819   8.735   9.886 -0.0655  0.0102  0.1353
  121loPI   C2A 1928  12.947   8.737   9.551 -0.3598  0.0004 -0.1502
  121loPI   C3A 1929  12.815   8.724   9.105  0.0968 -0.1976 -0.2158
  121loPI   C4A 1930  12.873   8.617   8.749  0.1523  0.1835  0.2027
  121loPI   C5A 1931  12.905   8.495   8.420 -0.0195  0.1986  0.1634
  121loPI   C6A 1932  13.113   8.367   8.034  0.0018  0.2433  0.1341
  121loPI   C1B 1933  13.345   8.395   9.676  0.0402 -0.0511  0.0436
  121loPI   C2B 1934  13.159   8.313   9.206  0.0780 -0.1792  0.1552
  121loPI   C3B 1935  13.163   8.182   8.772  0.0633  0.2332 -0.3675
  121loPI   C4B 1936  13.131   7.897   8.377  0.0207 -0.0359  0.0142
  122loPI    C1 1937  17.667   1.923  11.021 -0.2153 -0.1609  0.2046
  122loPI    C2 1938  17.543   2.246  11.220 -0.1189 -0.0124  0.0270
  122loPI    C3 1939  17.901   2.247  11.043 -0.1006 -0.2326  0.0609
  122loPI   PO4 1940  17.511   1.915  10.862 -0.1593 -0.2389 -0.0712
  122loPI   GL1 1941  17.442   1.900  10.445  0.1166  0.1382 -0.0055
  122loPI   GL2 1942  17.726   2.014  10.300  0.0130  0.0875 -0.0453
  122loPI   C1A 1943  17.515   1.708  10.009  0.1301  0.0729 -0.0042
  122loPI   C2A 1944  17.516   1.641   9.567  0.0091  0.4520 -0.1225
  122loPI   C3A 1945  17.522   1.543   9.148 -0.1298  0.1358 -0.0905
  122loPI   C4A 1946  17.485   1.584   8.730  0.0642 -0.1860 -0.0759
  122loPI   C5A 1947  17.805   1.520   8.431  0.3530  0.1251  0.1738
  122loPI   C6A 1948  17.998   1.437   8.064  0.0025 -0.4272 -0.0357
  122loPI   C1B 1949  17.627   2.198  10.059  0.0910 -0.0454  0.2674
  122loPI   C2B 1950  17.672   2.169   9.567 -0.0602 -0.2610 -0.0965
  122loPI   C3B 1951  17.715   2.023   9.201 -0.2103  0.0079 -0.3280
  122loPI   C4B 1952  17.880   1.866   8.774 -0.1725 -0.0766  0.1590
  123loPI    C1 1953  16.182  11.779  11.204 -0.1368 -0.0913 -0.2134
  123loPI    C2 1954  16.208  11.395  11.315  0.0107 -0.0328 -0.0414
  123loPI    C3 1955  15.987  11.651  11.529  0.0962  0.0270 -0.0240
  123loPI   PO4 1956  16.303  11.763  10.957  0.4684 -0.0774  0.0511
  123loPI   GL1 1957  16.192  11.655  10.503 -0.1720  0.1103 -0.0938
  123loPI   GL2 1958  16.295  11.331  10.365  0.1800  0.2100  0.1125
  123loPI   C1A 1959  15.980  11.582  10.042  0.0217  0.1002 -0.1114
  123loPI   C2A 1960  15.957  11.510   9.630  0.2268 -0.1251 -0.0849
  123loPI   C3A 1961  15.918  11.560   9.284 -0.0513 -0.0073  0.0191
  123loPI   C4A 1962  16.084  11.679   8.886 -0.3030  0.1589 -0.3025
  123loPI   C5A 1963  16.129  11.416   8.495 -0.0088  0.2076  0.0432
  123loPI   C6A 1964  16.417  11.327   8.195 -0.5076 -0.1100 -0.4236
  123loPI   C1B 1965  16.483  11.405   9.956  0.0101  0.0587 -0.1906
  123loPI   C2B 1966  16.428  11.426   9.480  0.1079 -0.0470  0.0992
  123loPI   C3B 1967  16.619  11.479   9.098  0.0335 -0.1902  0.4741
  123loPI   C4B 1968  16.603  11.553   8.693  0.3168  0.1021 -0.1465
  124loPI    C1 1969   5.605  15.896  10.820 -0.2044 -0.4091 -0.0424
  124loPI    C2 1970   5.925  15.775  11.027  0.0278  0.1379 -0.0625
  124loPI    C3 1971   5.565  15.780  11.201  0.1055 -0.0450  0.1082
  124loPI   PO4 1972   5.714  16.105  10.669  0.3376  0.0782  0.0344
  124loPI   GL1 1973   5.651  16.150  10.246  0.0889 -0.0654  0.0245
  124loPI   GL2 1974   5.988  16.081  10.149  0.0387 -0.0433 -0.0947
  124loPI   C1A 1975   5.742  16.530  10.076  0.0115 -0.1227 -0.1853
  124loPI   C2A 1976   5.591  16.592   9.742 -0.1153 -0.0682  0.1988
  124loPI   C3A 1977   5.681  16.495   9.273  0.0607  0.0843  0.1054
  124loPI   C4A 1978   5.619  16.572   8.850 -0.1927  0.1120 -0.0056
  124loPI   C5A 1979   5.542  16.921   8.634 -0.1702  0.0680  0.1517
  124loPI   C6A 1980   5.396  17.324   8.480 -0.1155  0.2300  0.1846
  124loPI   C1B 1981   5.896  16.137   9.676  0.0947 -0.1512 -0.0952
  124loPI   C2B 1982   5.937  16.003   9.306 -0.2402  0.0905  0.1378
  124loPI   C3B 1983   5.849  16.009   8.858 -0.1623 -0.0086  0.1186
  124loPI   C4B 1984   5.713  16.279   8.488 -0.1342 -0.0011  0.1687
  125loPI    C1 1985  13.694   4.679  11.144  0.0623  0.2190 -0.1551
  125loPI    C2 1986  13.917   4.879  11.410  0.0076  0.0189  0.0443
  125loPI    C3 1987  13.721   4.548  11.521  0.0731 -0.1311 -0.2738
  125loPI   PO4 1988  13.796   4.753  10.902 -0.0273  0.2465 -0.0044
  125loPI   GL1 1989  13.805   4.740  10.403 -0.3499  0.0842  0.1650
  125loPI   GL2 1990  13.576   4.825  10.452 -0.1387 -0.0864  0.0333
  125loPI   C1A 1991  13.950   4.467   9.965 -0.2997 -0.0652  0.1855
  125loPI   C2A 1992  13.861   4.313   9.601  0.0118 -0.0418  0.0471
  125loPI   C3A 1993  14.052   4.407   9.249 -0.4840 -0.0870 -0.0563
  125loPI   C4A 1994  14.059   4.404   8.827  0.1046 -0.1371 -0.0432
  125loPI   C5A 1995  14.176   4.286   8.400  0.1696  0.2465  0.1142
  125loPI   C6A 1996  14.255   4.533   8.077  0.2434  0.0205  0.1299
  125loPI   C1B 1997  13.406   4.925  10.125  0.0738 -0.2134  0.0758
  125loPI   C2B 1998  13.378   5.137   9.758  0.1008 -0.1344  0.4916
  125loPI   C3B 1999  13.421   5.129   9.312  0.0217  0.0482  0.1082
  125loPI   C4B 2000  13.480   5.099   8.974  0.1512 -0.0738  0.0661
  126loPI    C1 2001  14.870   3.895  10.918 -0.0794  0.1079  0.1831
  126loPI    C2 2002  14.931   4.287  10.963 -0.0453  0.0979  0.2251
  126loPI    C3 2003  15.023   4.035  11.260  0.1265  0.0368  0.1215
  126loPI   PO4 2004  14.656   3.788  10.756 -0.1072 -0.3494 -0.0751
  126loPI   GL1 2005  14.548   3.790  10.335  0.1433 -0.2579 -0.3050
  126loPI   GL2 2006  14.302   3.794  10.417 -0.0717  0.0146 -0.0001
  126loPI   C1A 2007  14.460   3.667   9.871 -0.1510  0.0414 -0.2838
  126loPI   C2A 2008  14.470   3.641   9.452  0.2378 -0.3141 -0.1959
  126loPI   C3A 2009  14.237   3.631   9.014  0.1935  0.1770  0.3870
  126loPI   C4A 2010  14.037   3.343   8.562  0.1740  0.1649 -0.0672
  126loPI   C5A 2011  13.861   2.905   8.568  0.1381  0.0463 -0.0008
  126loPI   C6A 2012  13.587   2.714   8.288  0.1379  0.0276 -0.1503
  126loPI   C1B 2013  14.185   3.411  10.245 -0.2190 -0.0678  0.3509
  126loPI   C2B 2014  14.113   3.319   9.800 -0.3505 -0.1489 -0.0385
  126loPI   C3B 2015  13.964   3.136   9.388 -0.1913  0.1839 -0.0455
  126loPI   C4B 2016  13.718   2.983   9.114 -0.0041 -0.1974  0.0836
  127loPI    C1 2017  14.977   0.442  10.813  0.0871  0.1302  0.0367
  127loPI    C2 2018  15.291   0.423  11.059  0.0494 -0.2532  0.0622
  127loPI    C3 2019  14.937   0.550  11.196  0.1380 -0.0278  0.0872
  127loPI   PO4 2020  15.220   0.515  10.586 -0.1435 -0.1744  0.1370
  127loPI   GL1 2021  15.435   0.327  10.203 -0.2829  0.5090 -0.2773
  127loPI   GL2 2022  15.481   0.060  10.310 -0.3500  0.1864 -0.0226
  127loPI   C1A 2023  15.544   0.449   9.809 -0.0080 -0.1969  0.0322
  127loPI   C2A 2024  15.575   0.276   9.389  0.1041 -0.1911 -0.0428
  127loPI   C3A 2025  15.408   0.157   8.996 -0.0510  0.0219  0.0635
  127loPI   C4A 2026  15.479   0.087   8.691 -0.2101 -0.4380 -0.0377
  127loPI   C5A 2027  15.655   0.063   8.298 -0.0363  0.0997  0.3206
  127loPI   C6A 2028  15.897  -0.264   8.026 -0.0507  0.1670  0.2060
  127loPI   C1B 2029  15.529  -0.039   9.780  0.0410  0.1313 -0.2144
  127loPI   C2B 2030  15.600  -0.261   9.425  0.0018  0.2408 -0.1328
  127loPI   C3B 2031  15.603  -0.360   8.975 -0.2274  0.3062  0.5051
  127loPI   C4B 2032  15.494  -0.597   8.653  0.0579 -0.3361 -0.0010
  128loPI    C1 2033   8.452   3.164  11.051  0.1602  0.0766 -0.1974
  128loPI    C2 2034   8.202   3.225  11.357 -0.1010 -0.0378 -0.3846
  128loPI    C3 2035   8.591   3.163  11.426 -0.1266  0.1143 -0.0887
  128loPI   PO4 2036   8.381   2.927  10.889 -0.1253 -0.2724 -0.2263
  128loPI   GL1 2037   8.353   3.058  10.523 -0.0522  0.2235 -0.1619
  128loPI   GL2 2038   8.318   2.802  10.416 -0.4764 -0.0992 -0.1610
  128loPI   C1A 2039   8.485   3.311  10.095  0.0078 -0.0330  0.0928
  128loPI   C2A 2040   8.533   3.244   9.623 -0.1301 -0.2159  0.1092
  128loPI   C3A 2041   8.685   2.951   9.327  0.2395 -0.1057  0.0576
  128loPI   C4A 2042   8.745   2.791   8.964 -0.0239 -0.1167 -0.0595
  128loPI   C5A 2043   8.698   2.582   8.596  0.4530  0.2549  0.4275
  128loPI   C6A 2044   8.302   2.633   8.325 -0.5934 -0.4294 -0.1993
  128loPI   C1B 2045   8.392   2.837   9.984  0.0690  0.0970  0.2359
  128loPI   C2B 2046   8.493   2.717   9.690  0.2160  0.0660 -0.1849
  128loPI   C3B 2047   8.532   2.447   9.307  0.0198 -0.4056 -0.0046
  128loPI   C4B 2048   8.670   2.184   9.064  0.0189  0.1577  0.3358
  129loPI    C1 2049   2.846  11.107  10.471  0.0406  0.0595 -0.0279
  129loPI    C2 2050   2.574  11.397  10.512 -0.1092 -0.0025 -0.5189
  129loPI    C3 2051   2.963  11.488  10.496 -0.0746  0.0746  0.3307
  129loPI   PO4 2052   2.776  10.842  10.347  0.1292  0.2311 -0.1190
  129loPI   GL1 2053   3.023  10.622   9.964  0.1953  0.0170  0.0831
  129loPI   GL2 2054   3.402  10.674   9.955 -0.0894 -0.0791  0.0525
  129loPI   C1A 2055   2.827  10.604   9.551  0.1637 -0.1633 -0.0411
  129loPI   C2A 2056   2.551  10.613   9.236 -0.1907  0.0678 -0.0614
  129loPI   C3A 2057   2.344  10.504   8.926  0.0573  0.0414  0.0211
  129loPI   C4A 2058   2.141  10.298   8.576  0.0998 -0.2615  0.1397
  129loPI   C5A 2059   1.890  10.108   8.199 -0.2607  0.2411 -0.2525
  129loPI   C6A 2060   1.645   9.872   7.932 -0.0918 -0.2119  0.4110
  129loPI   C1B 2061   3.324  10.792   9.481  0.0191 -0.2318 -0.0695
  129loPI   C2B 2062   3.075  10.699   9.139 -0.0936 -0.0242 -0.0093
  129loPI   C3B 2063   2.858  10.591   8.777 -0.0539 -0.0984  0.0446
  129loPI   C4B 2064   2.840  10.770   8.344  0.0937  0.0489 -0.1368
  130loPI    C1 2065   4.505  10.639  10.787 -0.0497 -0.1616  0.0024
  130loPI    C2 2066   4.406  10.308  10.988  0.2881 -0.2261  0.0676
  130loPI    C3 2067   4.673  10.563  11.142  0.1333  0.0074 -0.0462
  130loPI   PO4 2068   4.395  10.618  10.614 -0.1469 -0.1885 -0.1041
  130loPI   GL1 2069   4.495  10.434  10.247  0.0079 -0.0541 -0.3624
  130loPI   GL2 2070   4.580  10.157  10.287 -0.0540  0.0361 -0.1997
  130loPI   C1A 2071   4.401  10.404   9.809  0.1570  0.0624  0.2098
  130loPI   C2A 2072   4.398  10.330   9.349 -0.2399 -0.1062  0.0338
  130loPI   C3A 2073   4.371  10.326   8.895 -0.2536 -0.0879  0.2204
  130loPI   C4A 2074   4.268  10.462   8.477  0.2334 -0.1260  0.1660
  130loPI   C5A 2075   4.404  10.544   8.102  0.1453 -0.1718 -0.1794
  130loPI   C6A 2076   4.662  10.635   7.736  0.2460 -0.1158  0.0585
  130loPI   C1B 2077   4.511   9.923   9.969 -0.2101  0.0747  0.1276
  130loPI   C2B 2078   4.428   9.881   9.537 -0.1103  0.0917 -0.1538
  130loPI   C3B 2079   4.278   9.837   9.131  0.1085  0.2679  0.0769
  130loPI   C4B 2080   4.077   9.997   8.702  0.3398  0.1652  0.1401
  131loPI    C1 2081   9.785  14.556  11.229 -0.0695 -0.1229  0.0929
  131loPI    C2 2082  10.129  14.363  11.298 -0.0530 -0.1403 -0.0335
  131loPI    C3 2083  10.020  14.669  11.532  0.0078 -0.1878  0.0579
  131loPI   PO4 2084   9.713  14.585  10.987  0.1509  0.0713  0.1641
  131loPI   GL1 2085   9.677  14.374  10.591  0.0365 -0.0972  0.1432
  131loPI   GL2 2086   9.839  14.756  10.530 -0.1626 -0.1103 -0.0541
  131loPI   C1A 2087   9.466  14.620  10.241 -0.2647 -0.0403  0.0243
  131loPI   C2A 2088   9.464  14.624   9.807 -0.2224 -0.0371 -0.1753
  131loPI   C3A 2089   9.223  14.875   9.464  0.0898  0.3565 -0.1976
  131loPI   C4A 2090   9.070  14.889   9.086 -0.1622  0.0140 -0.0103
  131loPI   C5A 2091   9.129  14.984   8.721  0.4214 -0.2104  0.3099
  131loPI   C6A 2092   9.024  15.313   8.457  0.0321  0.0524  0.1201
  131loPI   C1B 2093   9.934  14.480  10.078 -0.3238  0.0339  0.0232
  131loPI   C2B 2094   9.863  14.429   9.593  0.2754  0.2637  0.0632
  131loPI   C3B 2095   9.861  14.599   9.199  0.0407 -0.2688 -0.0635
  131loPI   C4B 2096  10.194  14.534   8.953  0.0956  0.0062  0.0924
  132loPI    C1 2097  16.971   8.252  11.088  0.2197  0.2280  0.0087
  132loPI    C2 2098  17.226   8.251  11.396  0.1467 -0.2071  0.0746
  132loPI    C3 2099  16.857   8.103  11.441 -0.0168  0.1332 -0.1053
  132loPI   PO4 2100  17.093   8.086  10.846  0.2091 -0.1209  0.0200
  132loPI   GL1 2101  17.355   8.101  10.382 -0.0229  0.1938  0.0439
  132loPI   GL2 2102  17.546   7.853  10.519 -0.2145  0.0052 -0.1502
  132loPI   C1A 2103  17.437   8.148   9.892 -0.0382 -0.1000  0.0899
  132loPI   C2A 2104  17.365   8.024   9.456 -0.1016  0.2650 -0.0333
  132loPI   C3A 2105  17.263   8.055   9.063 -0.2891  0.1980 -0.0754
  132loPI   C4A 2106  17.346   8.190   8.603 -0.0469  0.0480 -0.0019
  132loPI   C5A 2107  17.568   7.967   8.270  0.0450 -0.2247  0.0699
  132loPI   C6A 2108  17.789   7.991   7.908 -0.1095 -0.0597  0.0396
  132loPI   C1B 2109  17.478   7.711  10.095 -0.2577 -0.0151  0.2895
  132loPI   C2B 2110  17.532   7.574   9.669 -0.1035  0.0859 -0.0234
  132loPI   C3B 2111  17.740   7.612   9.300 -0.0474 -0.2003 -0.2158
  132loPI   C4B 2112  17.660   7.802   8.919 -0.2759  0.0562 -0.0824
  133loPI    C1 2113   3.137   2.120  11.014  0.1762 -0.1517 -0.1936
  133loPI    C2 2114   3.050   2.406  11.279  0.0174 -0.2294 -0.1606
  133loPI    C3 2115   3.313   2.478  10.986  0.0588 -0.0851 -0.0889
  133loPI   PO4 2116   2.941   2.008  10.845  0.3305 -0.1068  0.1776
  133loPI   GL1 2117   2.664   1.913  10.563  0.1664  0.2023 -0.0914
  133loPI   GL2 2118   2.370   2.018  10.775  0.0599 -0.1079 -0.0596
  133loPI   C1A 2119   2.784   1.958  10.132 -0.1526  0.2845 -0.1245
  133loPI   C2A 2120   2.695   2.124   9.737  0.3811  0.0166 -0.2685
  133loPI   C3A 2121   2.532   2.009   9.309 -0.1142 -0.0244 -0.0704
  133loPI   C4A 2122   2.525   2.053   8.844  0.3100  0.0347 -0.1912
  133loPI   C5A 2123   2.255   1.897   8.588 -0.0400 -0.1426  0.0028
  133loPI   C6A 2124   2.030   1.824   8.264 -0.1559  0.0296 -0.0728
  133loPI   C1B 2125   2.255   2.066  10.280 -0.1428  0.1329 -0.0574
  133loPI   C2B 2126   2.155   2.045   9.821 -0.0765  0.0063 -0.0146
  133loPI   C3B 2127   1.872   2.142   9.491 -0.3265  0.0086  0.0931
  133loPI   C4B 2128   1.669   2.402   9.170 -0.2746  0.0648 -0.0344
  134loPI    C1 2129  15.499  10.927  10.757  0.0935  0.2059  0.0539
  134loPI    C2 2130  15.325  11.216  10.970 -0.0962 -0.0524  0.2550
  134loPI    C3 2131  15.503  10.910  11.156  0.0008 -0.1261  0.0438
  134loPI   PO4 2132  15.342  10.934  10.542 -0.0709  0.0674 -0.2373
  134loPI   GL1 2133  15.368  10.791  10.121  0.2254  0.0791 -0.0597
  134loPI   GL2 2134  15.645  10.715  10.249  0.0021  0.1967  0.2879
  134loPI   C1A 2135  15.423  10.637   9.686 -0.1483 -0.0597 -0.3078
  134loPI   C2A 2136  15.376  10.667   9.316  0.0590 -0.2116 -0.1142
  134loPI   C3A 2137  15.270  10.790   8.875  0.1545  0.1000  0.0309
  134loPI   C4A 2138  15.207  10.911   8.384 -0.2562  0.2965 -0.0445
  134loPI   C5A 2139  15.120  11.135   8.113 -0.0917 -0.0478  0.0257
  134loPI   C6A 2140  14.832  11.473   8.139 -0.2942 -0.1104  0.0010
  134loPI   C1B 2141  15.853  10.531   9.975 -0.1436  0.5771  0.0687
  134loPI   C2B 2142  15.848  10.547   9.406 -0.2886 -0.0312 -0.1919
  134loPI   C3B 2143  15.746  10.733   8.983  0.1450 -0.2203  0.2399
  134loPI   C4B 2144  15.671  10.734   8.537 -0.0083 -0.3048 -0.0865
  135loPI    C1 2145   6.704   8.090  11.148 -0.0704  0.2065 -0.1476
  135loPI    C2 2146   7.077   8.228  11.099  0.0657 -0.1633 -0.1888
  135loPI    C3 2147   6.856   8.352  11.410  0.2053  0.0900 -0.1877
  135loPI   PO4 2148   6.583   8.109  10.868  0.1505  0.1049  0.0274
  135loPI   GL1 2149   6.535   7.849  10.478  0.0049 -0.2355 -0.2651
  135loPI   GL2 2150   6.814   7.694  10.389 -0.2287  0.0896 -0.3483
  135loPI   C1A 2151   6.604   7.985  10.078  0.2662  0.0705 -0.4076
  135loPI   C2A 2152   6.523   7.976   9.703  0.0829 -0.0590  0.2728
  135loPI   C3A 2153   6.575   7.944   9.331  0.1287 -0.2155  0.1325
  135loPI   C4A 2154   6.470   8.159   9.042  0.0576  0.0264  0.1660
  135loPI   C5A 2155   6.620   8.193   8.692 -0.0551  0.2823  0.0971
  135loPI   C6A 2156   6.523   8.345   8.234  0.1956  0.2265  0.1747
  135loPI   C1B 2157   6.716   7.543  10.035  0.0612  0.2226 -0.0386
  135loPI   C2B 2158   6.730   7.403   9.607 -0.0677 -0.1423 -0.0769
  135loPI   C3B 2159   6.761   7.415   9.218  0.1006 -0.2574 -0.1107
  135loPI   C4B 2160   6.886   7.371   8.739 -0.2716  0.0852  0.1210
  136loPI    C1 2161  16.076  14.287  10.963 -0.1728  0.0079  0.0204
  136loPI    C2 2162  16.261  13.972  10.800 -0.2308  0.0185 -0.0668
  136loPI    C3 2163  16.079  13.936  11.154  0.0042  0.0287  0.0571
  136loPI   PO4 2164  15.997  14.388  10.856 -0.0078  0.1280  0.2288
  136loPI   GL1 2165  15.754  14.392  10.504 -0.1259  0.1860  0.0588
  136loPI   GL2 2166  16.033  14.222  10.392  0.0400  0.0195 -0.0067
  136loPI   C1A 2167  15.748  14.635  10.087  0.1530 -0.2337 -0.2929
  136loPI   C2A 2168  15.803  14.665   9.616 -0.2381  0.0220  0.3301
  136loPI   C3A 2169  15.965  14.732   9.232  0.1823 -0.0703 -0.0932
  136loPI   C4A 2170  15.894  14.670   8.846  0.3104  0.0428  0.0965
  136loPI   C5A 2171  15.749  14.555   8.440  0.0559  0.2824  0.3536
  136loPI   C6A 2172  15.873  14.229   8.179 -0.3308 -0.0578  0.1533
  136loPI   C1B 2173  16.191  14.400   9.988  0.2375  0.0213 -0.1182
  136loPI   C2B 2174  16.152  14.306   9.584 -0.0600  0.0440  0.3227
  136loPI   C3B 2175  16.100  13.900   9.677 -0.0085  0.0064 -0.2660
  136loPI   C4B 2176  16.168  13.832  10.015  0.0596  0.1160  0.0050
  137loPI    C1 2177   3.550   6.077  10.761  0.0105 -0.0001  0.0590
  137loPI    C2 2178   3.527   6.275  11.107  0.2061 -0.2214  0.2019
  137loPI    C3 2179   3.193   6.174  10.913  0.1008  0.1075  0.2052
  137loPI   PO4 2180   3.716   6.284  10.639  0.0974  0.4071 -0.2120
  137loPI   GL1 2181   3.787   6.675  10.464 -0.0038 -0.2284 -0.3356
  137loPI   GL2 2182   4.043   6.422  10.306 -0.0499 -0.0657  0.0497
  137loPI   C1A 2183   3.633   6.454  10.061 -0.0311  0.0545  0.4214
  137loPI   C2A 2184   3.808   6.106   9.704 -0.0960  0.1461  0.0404
  137loPI   C3A 2185   3.901   5.876   9.379  0.6210  0.0643  0.0692
  137loPI   C4A 2186   4.086   5.724   8.957 -0.0163 -0.2104 -0.0720
  137loPI   C5A 2187   4.239   5.316   8.696  0.0164 -0.1706 -0.0612
  137loPI   C6A 2188   4.616   5.275   8.489  0.0260  0.0341 -0.2200
  137loPI   C1B 2189   4.310   6.328   9.995  0.0019  0.1947  0.1294
  137loPI   C2B 2190   4.344   6.167   9.519  0.0068  0.3892 -0.3783
  137loPI   C3B 2191   4.258   6.294   9.256  0.0631 -0.0192 -0.2749
  137loPI   C4B 2192   4.458   6.396   8.902 -0.1293  0.2164 -0.1407
  138loPI    C1 2193   1.097   4.686  11.103  0.0265 -0.0520  0.1825
  138loPI    C2 2194   1.109   4.430  10.795  0.0004  0.0483  0.0978
  138loPI    C3 2195   0.932   4.323  11.138 -0.1635  0.0154  0.0038
  138loPI   PO4 2196   1.170   4.906  10.978 -0.0272 -0.2767  0.0406
  138loPI   GL1 2197   1.475   4.958  10.597 -0.0967  0.1477  0.0080
  138loPI   GL2 2198   1.516   4.556  10.563 -0.1034 -0.0698 -0.2999
  138loPI   C1A 2199   1.522   5.037  10.178 -0.0551  0.1073  0.3263
  138loPI   C2A 2200   1.560   4.978   9.791  0.0824 -0.0626 -0.0058
  138loPI   C3A 2201   1.477   4.958   9.350 -0.0673  0.0154  0.1314
  138loPI   C4A 2202   1.418   4.822   8.881  0.3079  0.2319 -0.0074
  138loPI   C5A 2203   1.565   4.542   8.489 -0.0461  0.0259 -0.0274
  138loPI   C6A 2204   1.432   4.026   8.440 -0.0613  0.1110  0.3906
  138loPI   C1B 2205   1.362   4.517  10.164  0.2130 -0.0758 -0.1140
  138loPI   C2B 2206   1.393   4.514   9.751 -0.0547  0.0243 -0.2397
  138loPI   C3B 2207   1.367   4.403   9.308 -0.1542  0.0620 -0.1351
  138loPI   C4B 2208   1.367   4.310   8.852  0.1230  0.0332 -0.0263
  139loPI    C1 2209  10.307  13.801  11.018  0.0027  0.0310  0.0557
  139loPI    C2 2210  10.104  13.901  11.347  0.2521 -0.0259  0.2295
  139loPI    C3 2211  10.128  13.517  11.236 -0.0238  0.0156  0.0141
  139loPI   PO4 2212  10.237  13.904  10.798 -0.2740  0.1136  0.0200
  139loPI   GL1 2213  10.042  14.071  10.436  0.0590 -0.3139  0.0216
  139loPI   GL2 2214   9.819  13.852  10.488 -0.0571  0.0741 -0.1098
  139loPI   C1A 2215  10.100  13.902  10.087 -0.2039 -0.0130 -0.0620
  139loPI   C2A 2216  10.141  13.934   9.715 -0.0785 -0.1290  0.1059
  139loPI   C3A 2217  10.188  14.054   9.258  0.0301 -0.1173 -0.1259
  139loPI   C4A 2218  10.216  14.095   8.774 -0.0329 -0.0937  0.2021
  139loPI   C5A 2219  10.274  14.438   8.391 -0.1696  0.0196 -0.3037
  139loPI   C6A 2220  10.082  14.823   8.223 -0.1406  0.0699  0.1552
  139loPI   C1B 2221   9.620  14.090  10.041  0.0939 -0.0021  0.0024
  139loPI   C2B 2222   9.648  13.962   9.479 -0.1827 -0.1342  0.1948
  139loPI   C3B 2223   9.779  14.102   9.000 -0.1620 -0.0717 -0.3655
  139loPI   C4B 2224   9.736  14.306   8.644  0.0698  0.0604 -0.1611
  140loPI    C1 2225   2.920   7.150  10.998 -0.2488 -0.0789 -0.1703
  140loPI    C2 2226   3.098   7.068  11.347 -0.1243  0.0704 -0.1976
  140loPI    C3 2227   2.922   7.423  11.290 -0.1968  0.0239 -0.2662
  140loPI   PO4 2228   3.136   7.036  10.832  0.0322  0.1226 -0.2672
  140loPI   GL1 2229   3.158   6.823  10.417 -0.2036  0.1730 -0.1886
  140loPI   GL2 2230   3.098   7.194  10.342 -0.1526  0.3798 -0.1820
  140loPI   C1A 2231   3.480   6.928  10.164 -0.1673  0.0767  0.0029
  140loPI   C2A 2232   3.690   6.990   9.868 -0.2666 -0.2436 -0.1374
  140loPI   C3A 2233   4.001   7.158   9.578  0.2025  0.1119 -0.2587
  140loPI   C4A 2234   4.165   7.286   9.202  0.0084 -0.1605 -0.0855
  140loPI   C5A 2235   4.154   7.267   8.755 -0.0520  0.2027 -0.0582
  140loPI   C6A 2236   4.463   7.418   8.295  0.1295 -0.2687 -0.0855
  140loPI   C1B 2237   2.708   7.043  10.092 -0.0277  0.1451  0.0811
  140loPI   C2B 2238   2.618   7.153   9.687  0.0135 -0.0405 -0.1348
  140loPI   C3B 2239   2.768   7.204   9.334  0.4287  0.4442  0.0413
  140loPI   C4B 2240   3.237   7.246   9.216  0.2282 -0.3372 -0.2304
  141loPI    C1 2241   2.474   4.497  11.540  0.1059 -0.4643  0.1745
  141loPI    C2 2242   2.170   4.610  11.774  0.0740  0.0187 -0.0880
  141loPI    C3 2243   2.544   4.718  11.866  0.0418  0.3686 -0.3473
  141loPI   PO4 2244   2.464   4.287  11.374 -0.3940  0.0433  0.3185
  141loPI   GL1 2245   2.484   4.229  10.980 -0.1753  0.0534 -0.1553
  141loPI   GL2 2246   2.451   4.014  10.721 -0.0774  0.0485 -0.0087
  141loPI   C1A 2247   2.430   4.544  10.556 -0.2128 -0.0135  0.0725
  141loPI   C2A 2248   2.271   4.635  10.046 -0.1133 -0.3518 -0.0377
  141loPI   C3A 2249   2.351   4.727   9.713  0.3935  0.2867  0.0491
  141loPI   C4A 2250   2.323   4.736   9.402  0.1996 -0.0973  0.2507
  141loPI   C5A 2251   2.443   4.808   9.016 -0.1876 -0.1510  0.1369
  141loPI   C6A 2252   2.823   4.728   8.809 -0.1187 -0.1868 -0.0846
  141loPI   C1B 2253   2.153   4.166  10.460 -0.0238 -0.2550  0.1426
  141loPI   C2B 2254   2.139   4.166  10.006  0.2509  0.1532 -0.2107
  141loPI   C3B 2255   2.213   4.265   9.591  0.0278 -0.0019  0.3339
  141loPI   C4B 2256   2.226   4.202   9.136  0.3944  0.3892  0.0858
  142loPI    C1 2257  16.635  17.126  11.017 -0.1740  0.0331  0.0498
  142loPI    C2 2258  16.501  17.457  11.196 -0.5301 -0.0916  0.0221
  142loPI    C3 2259  16.551  17.121  11.408  0.0505  0.0313  0.0999
  142loPI   PO4 2260  16.434  17.084  10.813 -0.0282  0.2199 -0.3541
  142loPI   GL1 2261  16.309  17.077  10.445  0.2298  0.1569  0.1120
  142loPI   GL2 2262  16.341  17.367  10.372  0.0426 -0.0325 -0.0721
  142loPI   C1A 2263  16.229  17.076  10.006 -0.0666  0.2009  0.1032
  142loPI   C2A 2264  16.224  16.809   9.687  0.4799 -0.0057 -0.2544
  142loPI   C3A 2265  16.223  16.817   9.291  0.0090 -0.1957 -0.1132
  142loPI   C4A 2266  16.621  16.766   9.004 -0.0296 -0.3255  0.1370
  142loPI   C5A 2267  16.761  16.741   8.608 -0.0370 -0.0316  0.1400
  142loPI   C6A 2268  16.743  16.490   8.166  0.4368  0.0717 -0.1699
  142loPI   C1B 2269  16.407  17.558   9.981 -0.0873 -0.1917 -0.1351
  142loPI   C2B 2270  16.512  17.658   9.576  0.1687  0.2655 -0.4312
  142loPI   C3B 2271  16.523  17.652   9.165  0.0234  0.0756  0.0982
  142loPI   C4B 2272  16.387  17.650   8.814 -0.0412 -0.5226 -0.2646
  143loPI    C1 2273  16.924   3.779  11.302  0.2255 -0.0980  0.0879
  143loPI    C2 2274  16.637   3.843  11.573  0.0369 -0.1118 -0.1064
  143loPI    C3 2275  16.991   3.697  11.688  0.0609  0.1580  0.1737
  143loPI   PO4 2276  16.708   3.735  11.073 -0.4060  0.1820  0.1307
  143loPI   GL1 2277  16.651   3.801  10.557  0.2030  0.0591 -0.1292
  143loPI   GL2 2278  16.413   3.602  10.472 -0.3973 -0.0857  0.2071
  143loPI   C1A 2279  16.710   4.007  10.226 -0.1538  0.0407  0.2416
  143loPI   C2A 2280  16.714   4.000   9.826 -0.1195 -0.0062 -0.0608
  143loPI   C3A 2281  16.657   4.001   9.370 -0.0527  0.1170 -0.1754
  143loPI   C4A 2282  16.793   3.898   9.022  0.1010 -0.0311 -0.0815
  143loPI   C5A 2283  16.936   3.582   8.786 -0.1714 -0.1731  0.2442
  143loPI   C6A 2284  16.699   3.428   8.523  0.0986  0.1973  0.1241
  143loPI   C1B 2285  16.434   3.636  10.041 -0.1411 -0.1208 -0.0955
  143loPI   C2B 2286  16.449   3.609   9.678  0.0412  0.1330 -0.1783
  143loPI   C3B 2287  16.309   3.592   9.242  0.0646  0.0267 -0.2276
  143loPI   C4B 2288  16.324   3.617   8.864  0.2075  0.0956  0.0069
  144loPI    C1 2289  10.367  17.149  11.103 -0.3207  0.0891 -0.2789
  144loPI    C2 2290  10.069  17.349  11.280 -0.0389  0.2230  0.0556
  144loPI    C3 2291  10.146  16.971  11.385  0.0347  0.2542  0.1152
  144loPI   PO4 2292  10.316  17.293  10.797  0.2323  0.1309 -0.0453
  144loPI   GL1 2293  10.535  17.284  10.464 -0.0328 -0.0144 -0.0739
  144loPI   GL2 2294  10.795  17.442  10.449  0.0579 -0.1409  0.1192
  144loPI   C1A 2295  10.429  17.018  10.203 -0.0105  0.3019 -0.0801
  144loPI   C2A 2296  10.373  17.006   9.781 -0.0850  0.0801 -0.1274
  144loPI   C3A 2297  10.373  17.031   9.288 -0.0446 -0.1008 -0.1895
  144loPI   C4A 2298  10.295  17.043   8.915 -0.2770 -0.1379 -0.0101
  144loPI   C5A 2299  10.045  16.819   8.583 -0.0561 -0.0493 -0.1438
  144loPI   C6A 2300  10.070  16.462   8.238 -0.0517  0.0712  0.2403
  144loPI   C1B 2301  10.715  17.349   9.907  0.3756  0.1503 -0.2684
  144loPI   C2B 2302  10.719  17.295   9.534  0.1074 -0.2837 -0.1210
  144loPI   C3B 2303  10.612  17.482   9.127 -0.3802  0.1276 -0.1396
  144loPI   C4B 2304  10.603  17.452   8.656  0.2731 -0.1290  0.1232
  145loPI    C1 2305   8.365   6.307  10.730  0.2736 -0.0200  0.1660
  145loPI    C2 2306   8.423   6.703  10.740 -0.0643  0.0364  0.0298
  145loPI    C3 2307   8.389   6.497  11.082  0.1017  0.1251  0.1008
  145loPI   PO4 2308   8.263   6.208  10.532  0.0392  0.3626 -0.1849
  145loPI   GL1 2309   8.166   6.507  10.267 -0.2576 -0.0282 -0.0443
  145loPI   GL2 2310   8.426   6.633  10.199 -0.2736 -0.0685  0.1269
  145loPI   C1A 2311   8.137   6.286   9.938  0.3813  0.1845  0.0692
  145loPI   C2A 2312   8.163   6.192   9.484  0.3589  0.2163  0.2264
  145loPI   C3A 2313   8.203   6.391   9.076  0.1167 -0.1654 -0.0720
  145loPI   C4A 2314   8.322   6.541   8.565 -0.0248 -0.1485  0.1267
  145loPI   C5A 2315   8.405   6.838   8.300 -0.1455 -0.0335  0.3772
  145loPI   C6A 2316   8.800   7.078   8.044  0.0380 -0.2460 -0.1429
  145loPI   C1B 2317   8.504   6.602   9.772  0.0403  0.1047 -0.4112
  145loPI   C2B 2318   8.631   6.595   9.345  0.1820  0.2418  0.1385
  145loPI   C3B 2319   8.691   6.682   8.865  0.0843 -0.1430  0.5128
  145loPI   C4B 2320   8.869   6.662   8.480  0.1180  0.0271 -0.1358
  146loPI    C1 2321  13.760  17.040  11.368  0.0359  0.0035  0.0542
  146loPI    C2 2322  14.135  17.057  11.508  0.0346  0.0150  0.0561
  146loPI    C3 2323  13.869  17.337  11.614  0.0168 -0.0114  0.0807
  146loPI   PO4 2324  13.867  16.952  11.110  0.1245 -0.0022  0.3070
  146loPI   GL1 2325  13.960  17.154  10.794 -0.1337 -0.2015  0.1147
  146loPI   GL2 2326  14.257  17.136  10.631  0.4478  0.1211 -0.0782
  146loPI   C1A 2327  13.870  17.070  10.337 -0.3417  0.3550 -0.0025
  146loPI   C2A 2328  13.826  17.053   9.817 -0.2805 -0.0675 -0.0310
  146loPI   C3A 2329  13.806  17.150   9.378  0.0428 -0.0571 -0.5672
  146loPI   C4A 2330  13.752  17.083   8.965  0.0827 -0.2015  0.2130
  146loPI   C5A 2331  13.778  17.173   8.501  0.0452 -0.1466 -0.0212
  146loPI   C6A 2332  14.037  17.369   8.184  0.2839  0.3507  0.0199
  146loPI   C1B 2333  14.388  17.064  10.197  0.4171  0.1367  0.0564
  146loPI   C2B 2334  14.317  17.059   9.726 -0.3059 -0.3306 -0.0626
  146loPI   C3B 2335  14.240  17.002   9.330  0.0307 -0.1830  0.1304
  146loPI   C4B 2336  14.248  16.981   8.900  0.1207 -0.3011  0.1669
  147loPI    C1 2337  17.355   6.080  11.265 -0.0202 -0.0960 -0.0010
  147loPI    C2 2338  16.998   6.226  11.160  0.0727 -0.0347 -0.2379
  147loPI    C3 2339  17.022   5.936  11.435 -0.1385  0.1443 -0.0255
  147loPI   PO4 2340  17.551   6.047  10.975 -0.0307  0.2462 -0.2754
  147loPI   GL1 2341  17.511   6.137  10.518 -0.0281 -0.1504 -0.2550
  147loPI   GL2 2342  17.177   6.158  10.609 -0.0956 -0.0930 -0.0436
  147loPI   C1A 2343  17.471   6.159  10.117 -0.0031 -0.3770  0.1720
  147loPI   C2A 2344  17.542   6.196   9.694 -0.0024 -0.3915  0.0653
  147loPI   C3A 2345  17.599   6.176   9.214  0.2931  0.0208  0.1526
  147loPI   C4A 2346  17.737   6.109   8.810 -0.0045 -0.1015 -0.1092
  147loPI   C5A 2347  17.477   6.045   8.473 -0.1647  0.2749 -0.0458
  147loPI   C6A 2348  17.279   5.727   8.320 -0.1303  0.1569 -0.1050
  147loPI   C1B 2349  16.889   6.294  10.263 -0.2303 -0.1285 -0.2869
  147loPI   C2B 2350  17.028   6.375   9.895  0.1119  0.1892 -0.2348
  147loPI   C3B 2351  17.162   6.397   9.486  0.2060  0.1538 -0.1417
  147loPI   C4B 2352  17.206   6.482   9.108  0.0700  0.0959 -0.2222
  148loPI    C1 2353  10.930   8.816  10.602  0.1912 -0.1827 -0.1182
  148loPI    C2 2354  11.142   9.063  10.371 -0.0314  0.2434  0.1193
  148loPI    C3 2355  11.194   9.066  10.767 -0.1558  0.0240  0.1392
  148loPI   PO4 2356  10.882   8.580  10.503 -0.2393 -0.1686  0.1112
  148loPI   GL1 2357  11.062   8.539  10.118  0.0765  0.3916  0.3624
  148loPI   GL2 2358  10.775   8.279   9.994  0.3703 -0.4862  0.2328
  148loPI   C1A 2359  11.402   8.527   9.817 -0.2633 -0.0373 -0.0048
  148loPI   C2A 2360  11.560   8.537   9.371  0.0044  0.0887 -0.1742
  148loPI   C3A 2361  11.773   8.435   8.965 -0.0553  0.0395 -0.4537
  148loPI   C4A 2362  11.873   8.682   8.674  0.1480 -0.3991  0.0869
  148loPI   C5A 2363  12.080   8.539   8.242 -0.0604  0.0752 -0.0923
  148loPI   C6A 2364  12.120   8.350   7.780 -0.1366 -0.0150  0.2987
  148loPI   C1B 2365  10.914   8.403   9.563  0.1903  0.1318 -0.2738
  148loPI   C2B 2366  10.969   8.214   9.175  0.3028 -0.1224 -0.0021
  148loPI   C3B 2367  11.264   8.363   8.999 -0.2883  0.1929 -0.2122
  148loPI   C4B 2368  11.493   8.365   8.590 -0.0461  0.0645 -0.0835
  149loPI    C1 2369   4.984   9.325  10.941  0.0435  0.1665 -0.1946
  149loPI    C2 2370   4.759   9.642  11.030 -0.1421  0.0803 -0.3482
  149loPI    C3 2371   4.981   9.468  11.314 -0.2937  0.1462 -0.1870
  149loPI   PO4 2372   4.869   9.284  10.725 -0.0782 -0.0099  0.1011
  149loPI   GL1 2373   4.968   9.120  10.315  0.1209 -0.0469 -0.3268
  149loPI   GL2 2374   4.778   8.945  10.137 -0.3328 -0.0788  0.2029
  149loPI   C1A 2375   5.161   9.076   9.862  0.1475 -0.0503  0.1139
  149loPI   C2A 2376   5.186   9.107   9.407 -0.2602 -0.0627 -0.0540
  149loPI   C3A 2377   5.067   9.092   9.069  0.3534 -0.1640  0.1636
  149loPI   C4A 2378   5.121   9.160   8.661  0.0015  0.0185  0.2163
  149loPI   C5A 2379   5.260   9.336   8.207 -0.0645 -0.2989  0.3339
  149loPI   C6A 2380   5.535   9.632   7.924 -0.0739  0.0270 -0.1580
  149loPI   C1B 2381   4.687   9.039   9.615  0.0529  0.0499 -0.0128
  149loPI   C2B 2382   4.630   8.956   9.142 -0.0985 -0.0523 -0.0999
  149loPI   C3B 2383   4.616   9.000   8.724  0.0841  0.4127  0.1704
  149loPI   C4B 2384   4.633   9.189   8.355 -0.0300 -0.0871  0.0020
  150loPI    C1 2385   2.723   5.015  11.040  0.0943 -0.0747  0.1567
  150loPI    C2 2386   2.563   5.293  11.280 -0.1804 -0.1083  0.0164
  150loPI    C3 2387   2.714   4.956  11.436  0.1388  0.1082  0.1858
  150loPI   PO4 2388   2.999   5.199  10.954  0.4020 -0.0091 -0.0753
  150loPI   GL1 2389   3.366   5.067  10.635 -0.1008 -0.0133 -0.3755
  150loPI   GL2 2390   3.691   4.802  10.498  0.2833 -0.1272  0.0467
  150loPI   C1A 2391   3.391   5.124  10.248 -0.1908  0.0537  0.1265
  150loPI   C2A 2392   3.501   5.111   9.799  0.1047 -0.1998 -0.0179
  150loPI   C3A 2393   3.400   5.204   9.344 -0.0872  0.0534  0.0344
  150loPI   C4A 2394   3.314   5.178   8.987 -0.3739 -0.2137  0.1493
  150loPI   C5A 2395   2.938   5.278   8.660  0.1316 -0.1508 -0.0436
  150loPI   C6A 2396   2.529   5.230   8.614 -0.0080  0.1512 -0.2290
  150loPI   C1B 2397   3.797   4.846  10.041  0.0478  0.0650 -0.0956
  150loPI   C2B 2398   3.831   4.810   9.599  0.0810  0.0416  0.1389
  150loPI   C3B 2399   3.696   4.771   9.185 -0.0503 -0.0398 -0.0002
  150loPI   C4B 2400   3.994   4.569   8.874  0.2554  0.0350  0.2298
  151loPI    C1 2401   0.415   0.589  11.103  0.2694 -0.1506  0.1495
  151loPI    C2 2402   0.244   0.694  11.449  0.1020 -0.0927  0.0503
  151loPI    C3 2403   0.640   0.639  11.430  0.1036 -0.1655  0.2670
  151loPI   PO4 2404   0.214   0.783  10.836 -0.0937 -0.0436 -0.1438
  151loPI   GL1 2405   0.050   0.941  10.465 -0.1253  0.4459  0.1122
  151loPI   GL2 2406   0.133   1.189  10.285 -0.2981  0.1000  0.1196
  151loPI   C1A 2407  -0.087   0.731  10.180  0.3239 -0.0754  0.0011
  151loPI   C2A 2408  -0.003   0.536   9.935 -0.0808 -0.3110  0.0144
  151loPI   C3A 2409  -0.037   0.663   9.409 -0.0180  0.1879 -0.1195
  151loPI   C4A 2410   0.023   0.682   9.039  0.2411 -0.0770  0.0500
  151loPI   C5A 2411   0.195   0.927   8.662 -0.1488 -0.1324  0.3874
  151loPI   C6A 2412   0.489   1.213   8.446  0.2283  0.2172  0.0492
  151loPI   C1B 2413   0.189   1.375   9.819  0.1502 -0.1349 -0.1255
  151loPI   C2B 2414   0.285   1.665   9.425 -0.1767 -0.3232 -0.3154
  151loPI   C3B 2415   0.525   1.800   9.100 -0.1865  0.2122  0.0375
  151loPI   C4B 2416   0.579   1.621   8.767 -0.0718 -0.0359  0.0955
  152loPI    C1 2417   4.584   4.499  10.588  0.3661 -0.2869  0.3188
  152loPI    C2 2418   4.306   4.276  10.768 -0.0063 -0.0884  0.0060
  152loPI    C3 2419   4.493   4.564  10.972 -0.2481 -0.0244  0.1420
  152loPI   PO4 2420   4.765   4.296  10.481 -0.1532 -0.0706 -0.0948
  152loPI   GL1 2421   4.881   4.000  10.211 -0.1855 -0.0466  0.0405
  152loPI   GL2 2422   4.695   3.756  10.306 -0.0674  0.1953 -0.2456
  152loPI   C1A 2423   4.950   3.885   9.843 -0.0055  0.1165  0.0275
  152loPI   C2A 2424   4.668   3.645   9.568  0.0355  0.2527  0.3447
  152loPI   C3A 2425   4.349   3.662   9.265 -0.1794  0.1693 -0.1219
  152loPI   C4A 2426   4.242   3.588   8.914 -0.1046  0.2499  0.1064
  152loPI   C5A 2427   3.943   3.594   8.601 -0.0272 -0.0793  0.2472
  152loPI   C6A 2428   3.552   3.354   8.487 -0.0141 -0.0394  0.2236
  152loPI   C1B 2429   4.403   3.648  10.049 -0.4072 -0.3005 -0.0943
  152loPI   C2B 2430   3.966   3.757   9.964 -0.0981 -0.1538 -0.0573
  152loPI   C3B 2431   4.012   3.859   9.633  0.0221  0.0494 -0.0543
  152loPI   C4B 2432   3.961   3.954   9.221 -0.0873  0.3111 -0.0423
  153loPI    C1 2433   8.760  14.663  11.096 -0.3197 -0.1034  0.2822
  153loPI    C2 2434   8.774  15.047  11.206 -0.1303 -0.0353  0.0304
  153loPI    C3 2435   8.488  14.808  11.350 -0.1128  0.1421  0.3679
  153loPI   PO4 2436   8.848  14.698  10.815 -0.3871  0.1944  0.1135
  153loPI   GL1 2437   8.854  14.717  10.410 -0.0341 -0.1559  0.0170
  153loPI   GL2 2438   8.941  15.014  10.377  0.1831 -0.1239 -0.1124
  153loPI   C1A 2439   8.733  14.593  10.059  0.3322  0.2678  0.1688
  153loPI   C2A 2440   8.853  14.610   9.641 -0.0433 -0.0121 -0.1709
  153loPI   C3A 2441   8.833  14.538   9.303  0.4298 -0.0236  0.2297
  153loPI   C4A 2442   8.973  14.419   8.791 -0.3996 -0.0516  0.2087
  153loPI   C5A 2443   9.262  14.196   8.568 -0.3632  0.2560 -0.2292
  153loPI   C6A 2444   9.412  13.833   8.453 -0.2494 -0.2939 -0.0593
  153loPI   C1B 2445   9.048  14.943   9.987  0.1832  0.1890 -0.1908
  153loPI   C2B 2446   9.348  15.090   9.857  0.1161  0.1440 -0.0032
  153loPI   C3B 2447   9.510  15.415   9.629 -0.1092 -0.0292 -0.0034
  153loPI   C4B 2448   9.480  15.727   9.242 -0.2144  0.1830 -0.2380
  154loPI    C1 2449   0.228   6.180  11.395 -0.2087  0.0145  0.0190
  154loPI    C2 2450   0.024   6.370  11.682  0.1268 -0.0012  0.2733
  154loPI    C3 2451   0.087   5.976  11.708 -0.0408 -0.0440  0.0574
  154loPI   PO4 2452   0.099   6.406  11.130  0.6423  0.0211  0.2175
  154loPI   GL1 2453   0.193   6.364  10.752  0.0867  0.0198  0.0413
  154loPI   GL2 2454   0.417   6.159  10.593  0.0755 -0.1376 -0.0057
  154loPI   C1A 2455   0.130   6.565  10.388 -0.1800  0.0437  0.1816
  154loPI   C2A 2456   0.235   6.444  10.072  0.2167 -0.0441  0.0182
  154loPI   C3A 2457   0.302   6.377   9.661 -0.0837  0.4401  0.3046
  154loPI   C4A 2458   0.401   6.325   9.212  0.2248  0.0779  0.2804
  154loPI   C5A 2459   0.535   6.231   8.778  0.1548  0.1793  0.1491
  154loPI   C6A 2460   0.311   6.001   8.384 -0.0184  0.0609 -0.0899
  154loPI   C1B 2461   0.301   6.012  10.252  0.0214 -0.0364 -0.1190
  154loPI   C2B 2462   0.237   5.946   9.912  0.1788 -0.1611 -0.1916
  154loPI   C3B 2463   0.287   5.886   9.482  0.0821  0.0053 -0.0250
  154loPI   C4B 2464   0.291   5.769   9.042 -0.1245  0.3190 -0.2279
  155loPI    C1 2465   2.048   2.644  11.071 -0.0392  0.2424  0.1105
  155loPI    C2 2466   2.180   2.452  11.397  0.0510 -0.0684 -0.1048
  155loPI    C3 2467   2.136   2.849  11.403 -0.0803 -0.0849  0.3284
  155loPI   PO4 2468   2.235   2.546  10.880 -0.0426  0.1407  0.1380
  155loPI   GL1 2469   2.255   2.480  10.531 -0.0348 -0.2053  0.0917
  155loPI   GL2 2470   2.437   2.488  10.398 -0.0534 -0.3512 -0.0346
  155loPI   C1A 2471   1.955   2.475  10.199  0.0286  0.0168  0.0489
  155loPI   C2A 2472   1.802   2.487   9.813  0.0347 -0.0512 -0.0362
  155loPI   C3A 2473   1.565   2.718   9.571  0.1323  0.4860  0.1962
  155loPI   C4A 2474   1.334   2.814   9.236 -0.1144 -0.0481 -0.1792
  155loPI   C5A 2475   1.380   2.755   8.763 -0.1713 -0.1446  0.0755
  155loPI   C6A 2476   1.396   2.651   8.393  0.1173 -0.0238  0.0157
  155loPI   C1B 2477   2.433   2.493   9.938 -0.0846 -0.1498  0.1122
  155loPI   C2B 2478   2.338   2.396   9.422 -0.0328  0.1623 -0.0029
  155loPI   C3B 2479   2.117   2.489   9.034 -0.1621 -0.1741 -0.2505
  155loPI   C4B 2480   1.922   2.707   8.767  0.3132  0.3467 -0.1880
  156loPI    C1 2481   1.321  16.823  11.073  0.0359  0.0516  0.1740
  156loPI    C2 2482   1.271  16.478  10.877 -0.1664  0.2405 -0.1143
  156loPI    C3 2483   1.206  16.495  11.271 -0.1203 -0.0575 -0.0920
  156loPI   PO4 2484   1.456  16.914  10.953  0.0118 -0.1920 -0.0847
  156loPI   GL1 2485   1.647  16.759  10.607 -0.1134 -0.0825  0.0801
  156loPI   GL2 2486   1.509  16.497  10.368 -0.1475 -0.1576  0.3126
  156loPI   C1A 2487   1.550  17.019  10.305  0.2693 -0.0812 -0.1032
  156loPI   C2A 2488   1.599  17.105   9.843 -0.2261 -0.0993  0.2109
  156loPI   C3A 2489   1.564  17.167   9.483 -0.0116  0.0994 -0.1493
  156loPI   C4A 2490   1.582  17.172   9.111 -0.3537  0.3778 -0.1012
  156loPI   C5A 2491   1.506  17.238   8.669  0.2528 -0.1523 -0.0443
  156loPI   C6A 2492   1.231  17.487   8.440 -0.1892  0.2425 -0.0093
  156loPI   C1B 2493   1.645  16.612   9.997 -0.2131 -0.1991 -0.2080
  156loPI   C2B 2494   1.549  16.619   9.569 -0.1149 -0.0936  0.2323
  156loPI   C3B 2495   1.602  16.606   9.168 -0.0336  0.1879  0.1939
  156loPI   C4B 2496   1.418  16.711   8.803  0.3112 -0.0896  0.3394
  157loPI    C1 2497  10.550   1.163  11.024 -0.0965 -0.0059  0.1148
  157loPI    C2 2498  10.731   1.504  11.126 -0.0442  0.0007  0.0007
  157loPI    C3 2499  10.332   1.479  11.134 -0.0527  0.0973 -0.0900
  157loPI   PO4 2500  10.707   0.982  10.989  0.2071  0.2589 -0.1166
  157loPI   GL1 2501  10.753   0.684  10.726 -0.1756  0.1499  0.0488
  157loPI   GL2 2502  10.948   0.380  10.643  0.1230 -0.1426  0.2758
  157loPI   C1A 2503  10.924   0.738  10.300 -0.0483 -0.2580  0.1406
  157loPI   C2A 2504  10.789   0.713   9.962  0.1322 -0.0933 -0.1656
  157loPI   C3A 2505  10.766   0.651   9.510 -0.2960  0.2401 -0.0532
  157loPI   C4A 2506  10.779   0.811   9.149 -0.1153 -0.4257 -0.0797
  157loPI   C5A 2507  10.699   0.718   8.780  0.2801 -0.0113  0.2097
  157loPI   C6A 2508  10.546   0.833   8.324  0.5369  0.2114  0.1562
  157loPI   C1B 2509  11.014   0.195  10.278  0.2842  0.3149 -0.0456
  157loPI   C2B 2510  11.030   0.239   9.774  0.1368 -0.1889 -0.0167
  157loPI   C3B 2511  11.029   0.121   9.291 -0.0037 -0.1555 -0.0040
  157loPI   C4B 2512  11.169   0.002   8.869  0.0633  0.0442  0.2313
  158loPI    C1 2513  13.954   9.048  10.575 -0.0944 -0.2094  0.0162
  158loPI    C2 2514  13.878   9.122  10.961  0.1349  0.3251 -0.0328
  158loPI    C3 2515  14.033   8.770  10.851  0.1906  0.2170  0.3781
  158loPI   PO4 2516  13.848   9.066  10.369  0.1432  0.1595  0.0009
  158loPI   GL1 2517  13.598   9.333  10.163  0.0885  0.0153 -0.2205
  158loPI   GL2 2518  13.819   9.402   9.974  0.0418 -0.0689 -0.2310
  158loPI   C1A 2519  13.437   9.456   9.691 -0.1077  0.3283  0.1521
  158loPI   C2A 2520  13.390   9.446   9.199 -0.5479 -0.0320  0.1827
  158loPI   C3A 2521  13.345   9.381   8.722 -0.1574 -0.2525  0.1358
  158loPI   C4A 2522  13.448   9.250   8.456  0.2360 -0.0285  0.4322
  158loPI   C5A 2523  13.590   9.545   8.194  0.0548  0.0499 -0.2179
  158loPI   C6A 2524  13.889   9.811   8.161  0.1688  0.2137 -0.1178
  158loPI   C1B 2525  13.862   9.814   9.668 -0.2967 -0.2201  0.1282
  158loPI   C2B 2526  13.898   9.924   9.237 -0.0356  0.0282 -0.1081
  158loPI   C3B 2527  13.949   9.979   8.762  0.1517 -0.0196  0.2675
  158loPI   C4B 2528  13.893  10.248   8.404 -0.2597 -0.2543 -0.1551
  159loPI    C1 2529   3.353   3.807  11.463  0.1861  0.1526 -0.0006
  159loPI    C2 2530   3.594   3.582  11.689  0.1468  0.1526  0.0414
  159loPI    C3 2531   3.347   3.845  11.861  0.0420  0.0787  0.0048
  159loPI   PO4 2532   3.197   3.726  11.347  0.1769 -0.2411  0.1627
  159loPI   GL1 2533   3.003   4.055  10.970  0.0089 -0.1517  0.0969
  159loPI   GL2 2534   2.916   3.802  10.765 -0.1510  0.0961 -0.1716
  159loPI   C1A 2535   2.860   4.271  10.567 -0.0121  0.0893  0.0498
  159loPI   C2A 2536   2.588   4.206  10.189 -0.0691  0.1100  0.1503
  159loPI   C3A 2537   2.699   4.331   9.829 -0.1147  0.0023  0.1027
  159loPI   C4A 2538   2.715   4.466   9.373  0.3378 -0.0785  0.1315
  159loPI   C5A 2539   2.721   4.338   9.041 -0.1426  0.1042  0.2099
  159loPI   C6A 2540   2.557   4.055   8.747 -0.0045  0.2482 -0.0326
  159loPI   C1B 2541   3.057   3.904  10.329 -0.2593  0.1094  0.0334
  159loPI   C2B 2542   3.043   3.923   9.908 -0.1929  0.2734  0.3749
  159loPI   C3B 2543   3.115   3.655   9.545 -0.0018  0.0550  0.1154
  159loPI   C4B 2544   3.015   3.797   9.110  0.2516  0.1437 -0.3680
  160loPI    C1 2545  12.416   7.633  10.838 -0.2209 -0.0923 -0.0713
  160loPI    C2 2546  12.528   7.278  10.985  0.1033  0.0449  0.0212
  160loPI    C3 2547  12.663   7.616  11.152 -0.1731  0.2134 -0.0889
  160loPI   PO4 2548  12.505   7.661  10.602  0.2052  0.4098  0.0687
  160loPI   GL1 2549  12.246   7.705  10.263 -0.2301 -0.1247  0.0711
  160loPI   GL2 2550  12.521   8.025  10.196 -0.1615  0.2656  0.0022
  160loPI   C1A 2551  12.289   7.495   9.881  0.0061 -0.2498  0.0135
  160loPI   C2A 2552  12.655   7.226   9.892  0.0195 -0.2377 -0.0864
  160loPI   C3A 2553  12.764   7.079   9.478  0.1460  0.1728  0.1494
  160loPI   C4A 2554  12.811   7.278   9.150  0.1445  0.1837  0.3078
  160loPI   C5A 2555  12.490   7.647   8.970 -0.3529  0.0819  0.2856
  160loPI   C6A 2556  12.193   7.774   8.672 -0.1281 -0.2442  0.1401
  160loPI   C1B 2557  12.317   7.989   9.722  0.1699  0.0558  0.1636
  160loPI   C2B 2558  12.394   7.826   9.437  0.2809  0.0267 -0.1605
  160loPI   C3B 2559  12.398   7.429   9.384  0.1960 -0.2431 -0.0931
  160loPI   C4B 2560  12.300   7.126   9.124 -0.1259  0.0483 -0.1783
  161loPI    C1 2561   3.046  11.593  11.023 -0.0419 -0.1761 -0.0568
  161loPI    C2 2562   2.660  11.698  11.020  0.0208  0.0603 -0.0750
  161loPI    C3 2563   2.764  11.315  10.969 -0.2183 -0.0292  0.0940
  161loPI   PO4 2564   3.137  11.829  10.927 -0.1088 -0.1398  0.3045
  161loPI   GL1 2565   3.279  11.882  10.506 -0.0196  0.1383  0.1381
  161loPI   GL2 2566   3.426  12.143  10.599 -0.1064  0.0299 -0.0340
  161loPI   C1A 2567   3.018  11.849  10.118  0.0843  0.0788 -0.0131
  161loPI   C2A 2568   2.815  11.860   9.686 -0.0195  0.5654  0.0923
  161loPI   C3A 2569   2.631  11.918   9.198  0.0261  0.0053  0.2739
  161loPI   C4A 2570   2.543  12.047   8.732  0.3218  0.2357  0.4052
  161loPI   C5A 2571   2.553  12.150   8.288  0.1425  0.1078 -0.1778
  161loPI   C6A 2572   2.691  12.082   7.911 -0.1052  0.1260  0.1193
  161loPI   C1B 2573   3.451  12.115  10.135  0.1108  0.0449 -0.1479
  161loPI   C2B 2574   3.276  12.063   9.763  0.0147 -0.1215  0.0281
  161loPI   C3B 2575   3.164  12.114   9.300 -0.1746  0.2722 -0.0267
  161loPI   C4B 2576   3.171  12.025   8.888 -0.2907 -0.0991  0.0548
  162loPI    C1 2577   7.841  16.742  10.911 -0.0297  0.0613 -0.0924
  162loPI    C2 2578   7.877  16.975  11.234  0.0090 -0.1090  0.0273
  162loPI    C3 2579   7.520  16.930  11.058  0.0489  0.2445 -0.1522
  162loPI   PO4 2580   8.119  16.811  10.752  0.2534 -0.2043 -0.0213
  162loPI   GL1 2581   8.048  16.869  10.362 -0.0071  0.1108 -0.0753
  162loPI   GL2 2582   8.070  17.226  10.356  0.0123 -0.0110  0.1348
  162loPI   C1A 2583   7.753  16.985  10.028 -0.0486  0.0318  0.0586
  162loPI   C2A 2584   7.461  17.054   9.701  0.0255  0.0690  0.2650
  162loPI   C3A 2585   7.335  17.081   9.313 -0.1926  0.0532 -0.1071
  162loPI   C4A 2586   7.163  17.054   8.949 -0.0289 -0.1519 -0.2565
  162loPI   C5A 2587   6.755  17.166   8.887  0.2618 -0.0136 -0.0722
  162loPI   C6A 2588   6.482  17.456   8.773  0.2039 -0.1234 -0.3591
  162loPI   C1B 2589   8.206  17.150   9.888 -0.2455 -0.2625 -0.3059
  162loPI   C2B 2590   8.238  17.158   9.480 -0.0600  0.1977  0.0577
  162loPI   C3B 2591   8.118  17.194   9.036 -0.2168 -0.2088  0.0024
  162loPI   C4B 2592   8.338  17.144   8.638 -0.4172  0.2018  0.2086
  163loPI    C1 2593   6.510   8.656  10.897  0.1049 -0.1110 -0.0465
  163loPI    C2 2594   6.164   8.473  10.813  0.0394 -0.0337  0.0516
  163loPI    C3 2595   6.165   8.810  11.028  0.1922 -0.1470  0.2318
  163loPI   PO4 2596   6.625   8.597  10.671 -0.1152 -0.0891 -0.1363
  163loPI   GL1 2597   6.510   8.420  10.336 -0.1196  0.1677  0.0201
  163loPI   GL2 2598   6.386   8.606  10.152 -0.0283 -0.0045 -0.0323
  163loPI   C1A 2599   6.183   8.169  10.171  0.1184  0.2119  0.1784
  163loPI   C2A 2600   6.062   8.060   9.789 -0.0838  0.2261 -0.2369
  163loPI   C3A 2601   6.107   8.096   9.373  0.1242 -0.0407 -0.0030
  163loPI   C4A 2602   6.032   7.960   8.992  0.0764  0.4667  0.2334
  163loPI   C5A 2603   5.977   7.546   8.699  0.0073 -0.1234  0.2398
  163loPI   C6A 2604   6.155   7.460   8.314  0.0906  0.0250  0.2187
  163loPI   C1B 2605   6.249   8.525   9.712  0.0602  0.0578 -0.1512
  163loPI   C2B 2606   6.272   8.569   9.303 -0.2977  0.0042 -0.1141
  163loPI   C3B 2607   6.253   8.523   8.852 -0.1684  0.0607 -0.1616
  163loPI   C4B 2608   6.109   8.286   8.469 -0.0177 -0.1160  0.0298
  164loPI    C1 2609  10.339   0.079  11.139 -0.3256 -0.4042 -0.0408
  164loPI    C2 2610  10.367   0.210  11.515 -0.2464 -0.1341 -0.1389
  164loPI    C3 2611  10.512  -0.149  11.418 -0.0212 -0.0916  0.0319
  164loPI   PO4 2612  10.396   0.250  10.993  0.0031  0.0401  0.2066
  164loPI   GL1 2613  10.472   0.282  10.653  0.1008  0.1512  0.1178
  164loPI   GL2 2614  10.279   0.005  10.532  0.1317  0.0375 -0.0430
  164loPI   C1A 2615  10.474   0.284  10.153  0.0290 -0.2118  0.2099
  164loPI   C2A 2616  10.548   0.144   9.706  0.0276  0.0772  0.2697
  164loPI   C3A 2617  10.401   0.334   9.336  0.1801 -0.0683  0.0472
  164loPI   C4A 2618  10.310   0.494   8.942  0.0155 -0.0697 -0.0198
  164loPI   C5A 2619  10.075   0.680   8.534 -0.1134  0.2475 -0.0043
  164loPI   C6A 2620   9.789   0.706   8.233  0.1751 -0.0049 -0.0233
  164loPI   C1B 2621  10.260  -0.152  10.126  0.1020  0.2571  0.3425
  164loPI   C2B 2622  10.197  -0.181   9.755 -0.0215  0.1121 -0.0313
  164loPI   C3B 2623  10.139  -0.182   9.311  0.0030 -0.0163 -0.0637
  164loPI   C4B 2624  10.231  -0.036   8.927 -0.1095 -0.0307  0.2804
  165loPI    C1 2625  13.772   5.495  10.714  0.0585 -0.0951  0.0796
  165loPI    C2 2626  13.992   5.162  10.679  0.0420 -0.0956 -0.0241
  165loPI    C3 2627  13.943   5.333  11.038  0.1670 -0.1257  0.0078
  165loPI   PO4 2628  13.817   5.610  10.438  0.0778 -0.1198  0.1151
  165loPI   GL1 2629  13.798   5.716  10.013  0.1872 -0.2700  0.2750
  165loPI   GL2 2630  13.613   5.961   9.938  0.2061 -0.1319 -0.1537
  165loPI   C1A 2631  13.760   5.512   9.694  0.2993  0.1531  0.1494
  165loPI   C2A 2632  13.865   5.405   9.237  0.2964 -0.2726  0.0790
  165loPI   C3A 2633  13.906   5.367   8.876 -0.0240 -0.1997  0.4386
  165loPI   C4A 2634  14.172   5.348   8.505  0.0419 -0.1089  0.2019
  165loPI   C5A 2635  14.494   5.241   8.295 -0.2291 -0.2676 -0.0864
  165loPI   C6A 2636  14.841   5.576   8.472 -0.0682 -0.0912 -0.3723
  165loPI   C1B 2637  13.606   6.084   9.455  0.0639 -0.0422 -0.5240
  165loPI   C2B 2638  13.767   5.846   9.065 -0.0430 -0.0351 -0.0136
  165loPI   C3B 2639  13.752   5.821   8.629  0.1209 -0.1403 -0.4405
  165loPI   C4B 2640  14.053   5.795   8.320  0.0032  0.0243 -0.3008
  166loPI    C1 2641  13.508  14.079  10.911 -0.2280 -0.0976 -0.1181
  166loPI    C2 2642  13.346  13.843  11.190 -0.2130 -0.0356 -0.0569
  166loPI    C3 2643  13.206  14.214  11.135  0.0313  0.0865  0.1269
  166loPI   PO4 2644  13.492  14.012  10.681  0.1920  0.0115  0.1196
  166loPI   GL1 2645  13.182  13.842  10.417  0.0963 -0.0241 -0.0714
  166loPI   GL2 2646  13.400  13.970  10.195  0.1941 -0.3052 -0.0287
  166loPI   C1A 2647  13.009  13.894   9.911 -0.0211  0.0347 -0.1061
  166loPI   C2A 2648  13.026  13.919   9.445 -0.2318 -0.1689 -0.1248
  166loPI   C3A 2649  13.213  13.889   9.042 -0.0176 -0.0153  0.0754
  166loPI   C4A 2650  13.302  13.758   8.627  0.0922  0.2016 -0.1368
  166loPI   C5A 2651  13.346  13.386   8.438 -0.0198  0.1513 -0.0623
  166loPI   C6A 2652  13.615  13.049   8.442 -0.0978  0.2730  0.0535
  166loPI   C1B 2653  13.457  13.965   9.726  0.3774 -0.0056  0.1825
  166loPI   C2B 2654  13.598  13.759   9.351 -0.0355  0.0043 -0.1199
  166loPI   C3B 2655  13.692  13.874   8.892 -0.0515  0.0671  0.2860
  166loPI   C4B 2656  13.804  14.045   8.518 -0.0792  0.2512  0.1113
  167loPI    C1 2657   4.526   7.213  11.254 -0.1658  0.0196 -0.2242
  167loPI    C2 2658   4.265   7.515  11.281 -0.2540 -0.0741 -0.0008
  167loPI    C3 2659   4.533   7.456  11.572  0.1331  0.1237 -0.3073
  167loPI   PO4 2660   4.660   7.282  11.010  0.3300 -0.1981 -0.0159
  167loPI   GL1 2661   4.662   7.066  10.619  0.1347  0.0472  0.1402
  167loPI   GL2 2662   4.492   6.954  10.414 -0.0915 -0.0362  0.2438
  167loPI   C1A 2663   5.007   6.926  10.302 -0.1055 -0.2658 -0.1373
  167loPI   C2A 2664   5.146   6.942   9.840 -0.0993  0.1079 -0.0811
  167loPI   C3A 2665   5.012   7.001   9.601 -0.0107 -0.0589  0.4956
  167loPI   C4A 2666   5.027   6.969   9.066  0.2589 -0.0831  0.0056
  167loPI   C5A 2667   4.957   6.618   8.850 -0.0569 -0.0733 -0.0456
  167loPI   C6A 2668   4.684   6.370   8.434  0.0612  0.0134  0.2447
  167loPI   C1B 2669   4.607   6.603  10.239 -0.0006  0.4097  0.2090
  167loPI   C2B 2670   4.735   6.659   9.822 -0.2456 -0.1782 -0.1711
  167loPI   C3B 2671   4.598   6.687   9.351 -0.1649  0.0804  0.2055
  167loPI   C4B 2672   4.521   6.983   8.987 -0.2050  0.0987  0.1187
  168loPI    C1 2673   3.314   4.308  11.337  0.0029 -0.1858  0.2133
  168loPI    C2 2674   3.628   4.532  11.445 -0.0751  0.0318 -0.0014
  168loPI    C3 2675   3.411   4.343  11.723 -0.0365  0.2623  0.1886
  168loPI   PO4 2676   3.451   4.152  11.078  0.0396  0.0106 -0.1494
  168loPI   GL1 2677   3.746   4.300  10.640 -0.0431  0.0570  0.0676
  168loPI   GL2 2678   3.496   4.019  10.599 -0.1599 -0.2365 -0.1919
  168loPI   C1A 2679   3.861   4.394  10.209  0.1221  0.2617 -0.1736
  168loPI   C2A 2680   3.836   4.278   9.786  0.0747 -0.1000 -0.0631
  168loPI   C3A 2681   3.688   4.273   9.477 -0.2037  0.0981  0.0796
  168loPI   C4A 2682   3.562   4.273   9.097  0.1099 -0.2024 -0.0876
  168loPI   C5A 2683   3.253   4.178   8.845 -0.1049  0.1284 -0.1012
  168loPI   C6A 2684   2.972   4.335   8.571 -0.0178  0.1165  0.0477
  168loPI   C1B 2685   3.538   4.065  10.140 -0.0022  0.1211 -0.1449
  168loPI   C2B 2686   3.504   3.927   9.755  0.0094 -0.0531  0.0597
  168loPI   C3B 2687   3.515   3.815   9.347  0.1025 -0.2554  0.0374
  168loPI   C4B 2688   3.522   3.779   8.909 -0.1144  0.1465 -0.0690
  169loPI    C1 2689   7.652   8.401  10.816 -0.0768 -0.0155  0.0236
  169loPI    C2 2690   7.498   8.541  11.158  0.0803 -0.2179  0.1797
  169loPI    C3 2691   7.891   8.569  11.090  0.0429 -0.1342 -0.0071
  169loPI   PO4 2692   7.385   8.270  10.720 -0.2047 -0.2322 -0.2386
  169loPI   GL1 2693   7.298   7.901  10.522  0.1953  0.2659 -0.0729
  169loPI   GL2 2694   7.411   7.537  10.618  0.2141 -0.2058  0.3611
  169loPI   C1A 2695   7.146   7.997  10.141  0.4550  0.1490  0.0048
  169loPI   C2A 2696   7.064   7.897   9.698  0.1178  0.1354 -0.3103
  169loPI   C3A 2697   7.069   7.873   9.342 -0.1377 -0.2134 -0.0467
  169loPI   C4A 2698   6.914   7.895   8.968  0.0719  0.2302 -0.3040
  169loPI   C5A 2699   7.020   7.878   8.511 -0.3443 -0.1357 -0.0589
  169loPI   C6A 2700   7.361   7.783   8.211  0.3267 -0.1478  0.0546
  169loPI   C1B 2701   7.253   7.494  10.182  0.1398  0.2460  0.4479
  169loPI   C2B 2702   7.173   7.450   9.844 -0.0139  0.2104 -0.2065
  169loPI   C3B 2703   7.185   7.371   9.493  0.3334 -0.0632 -0.4867
  169loPI   C4B 2704   7.284   7.423   9.132 -0.1370  0.1431 -0.0387
  170loPI    C1 2705   6.749   1.311  10.837 -0.0179  0.1804  0.1732
  170loPI    C2 2706   6.688   1.215  11.220 -0.3532 -0.3442  0.0005
  170loPI    C3 2707   6.921   0.984  10.991  0.1684  0.1826 -0.0252
  170loPI   PO4 2708   6.472   1.357  10.751 -0.1185  0.1329 -0.0297
  170loPI   GL1 2709   6.284   1.111  10.391  0.1941  0.0314 -0.2037
  170loPI   GL2 2710   6.636   1.270  10.319 -0.3227 -0.1544  0.0467
  170loPI   C1A 2711   6.076   1.122  10.033  0.0222 -0.3349 -0.2255
  170loPI   C2A 2712   5.913   1.300   9.606 -0.2485  0.3306  0.2122
  170loPI   C3A 2713   5.834   1.383   9.217  0.1739  0.1635 -0.0138
  170loPI   C4A 2714   5.962   1.702   8.890 -0.0993  0.0668  0.1070
  170loPI   C5A 2715   6.328   1.973   8.674 -0.0254 -0.0245  0.2043
  170loPI   C6A 2716   6.751   1.883   8.553 -0.1546  0.1844 -0.0390
  170loPI   C1B 2717   6.539   1.062   9.999 -0.0564  0.1143  0.1265
  170loPI   C2B 2718   6.464   1.176   9.596  0.1230  0.1779 -0.0767
  170loPI   C3B 2719   6.518   1.068   9.240 -0.3782  0.0800 -0.0709
  170loPI   C4B 2720   6.398   0.881   8.901 -0.0247 -0.0347  0.2042
  171loPI    C1 2721   0.591  12.665  10.581  0.1486  0.0525  0.1068
  171loPI    C2 2722   0.669  13.054  10.532 -0.1701  0.0928 -0.1121
  171loPI    C3 2723   0.460  12.931  10.850  0.1114  0.0734  0.0683
  171loPI   PO4 2724   0.531  12.610  10.299  0.0619  0.1560 -0.2573
  171loPI   GL1 2725   0.606  12.825   9.936 -0.0118 -0.1592 -0.0712
  171loPI   GL2 2726   0.414  13.133   9.966 -0.1210 -0.0725 -0.1318
  171loPI   C1A 2727   0.598  12.942   9.498 -0.0409  0.1861  0.2090
  171loPI   C2A 2728   0.682  13.214   9.219  0.0784  0.2452  0.0392
  171loPI   C3A 2729   0.579  13.364   8.832  0.1032 -0.0143  0.1293
  171loPI   C4A 2730   0.303  13.381   8.583  0.2951  0.4362 -0.0897
  171loPI   C5A 2731  -0.060  13.075   8.550 -0.1797 -0.1282 -0.0890
  171loPI   C6A 2732  -0.129  12.688   8.834 -0.0720  0.0451 -0.3665
  171loPI   C1B 2733   0.161  13.160   9.581 -0.1346 -0.1455 -0.1729
  171loPI   C2B 2734   0.169  13.198   9.166 -0.2193 -0.0239  0.3847
  171loPI   C3B 2735  -0.063  13.479   8.926 -0.0531  0.0691 -0.1925
  171loPI   C4B 2736  -0.321  13.907   8.970  0.0630 -0.1128 -0.4425
  172loPI    C1 2737   1.897  14.208  10.893 -0.1118  0.0180 -0.0537
  172loPI    C2 2738   2.238  14.343  11.052 -0.0853 -0.0231 -0.0756
  172loPI    C3 2739   2.197  13.954  10.967 -0.2160 -0.0549  0.1263
  172loPI   PO4 2740   1.829  14.416  10.658  0.0172  0.1795 -0.1855
  172loPI   GL1 2741   1.637  14.413  10.232 -0.1319  0.2824 -0.3019
  172loPI   GL2 2742   1.385  14.509  10.418 -0.1439 -0.1869 -0.0878
  172loPI   C1A 2743   1.822  14.402   9.794  0.2783  0.1003 -0.0400
  172loPI   C2A 2744   1.781  14.536   9.412 -0.1500  0.0557  0.0181
  172loPI   C3A 2745   1.832  14.670   9.012 -0.1398  0.3348 -0.0756
  172loPI   C4A 2746   1.847  14.811   8.667  0.2738  0.0944  0.3869
  172loPI   C5A 2747   2.028  15.201   8.421  0.1574  0.0997 -0.1699
  172loPI   C6A 2748   2.206  15.319   7.996  0.0698 -0.0316 -0.1311
  172loPI   C1B 2749   1.253  14.709  10.015 -0.0586 -0.2211 -0.1530
  172loPI   C2B 2750   1.238  14.835   9.528  0.3588  0.2035  0.0072
  172loPI   C3B 2751   0.878  14.945   9.314 -0.1832  0.2520 -0.1562
  172loPI   C4B 2752   0.606  15.079   8.955 -0.1245 -0.0029 -0.0954
  173loPI    C1 2753  15.435  13.802  11.144 -0.0733  0.2930  0.1345
  173loPI    C2 2754  15.361  13.818  11.536  0.1004 -0.3894  0.2074
  173loPI    C3 2755  15.720  13.699  11.405  0.2113  0.3046 -0.1642
  173loPI   PO4 2756  15.187  13.808  11.000  0.1528 -0.1141  0.0832
  173loPI   GL1 2757  15.126  13.772  10.523 -0.2148  0.0115 -0.4020
  173loPI   GL2 2758  15.264  13.577  10.334  0.1135  0.0557 -0.0805
  173loPI   C1A 2759  14.814  13.744  10.263 -0.0218  0.1270 -0.0772
  173loPI   C2A 2760  14.668  13.601   9.924 -0.0033 -0.0064 -0.2078
  173loPI   C3A 2761  14.666  13.736   9.468 -0.1938 -0.2240  0.0113
  173loPI   C4A 2762  14.673  13.811   8.964  0.2277 -0.0743  0.2698
  173loPI   C5A 2763  14.530  13.580   8.586 -0.1032 -0.4382 -0.2297
  173loPI   C6A 2764  14.210  13.684   8.257  0.0474 -0.0418 -0.0429
  173loPI   C1B 2765  15.230  13.627  10.016  0.0515  0.2832  0.1515
  173loPI   C2B 2766  15.102  13.730   9.652  0.2424  0.0996 -0.4456
  173loPI   C3B 2767  15.131  13.803   9.233 -0.1852  0.1369  0.1736
  173loPI   C4B 2768  15.273  13.851   8.779 -0.1386 -0.2609 -0.0588
  174loPI    C1 2769  17.640   1.452  10.827  0.0660 -0.1465  0.2061
  174loPI    C2 2770  17.383   1.310  10.555  0.2936  0.0064 -0.0941
  174loPI    C3 2771  17.462   1.098  10.885 -0.0267 -0.1562 -0.1181
  174loPI   PO4 2772  17.825   1.583  10.611  0.3666 -0.0886 -0.0742
  174loPI   GL1 2773  18.086   1.622  10.279 -0.1927  0.0414  0.2201
  174loPI   GL2 2774  18.422   1.722  10.205  0.1447  0.0526 -0.0420
  174loPI   C1A 2775  18.083   1.849   9.873  0.1405  0.0296  0.2495
  174loPI   C2A 2776  18.349   2.011   9.528 -0.1350  0.1001 -0.1120
  174loPI   C3A 2777  18.532   2.153   9.200 -0.0215  0.0642  0.0121
  174loPI   C4A 2778  18.772   1.877   8.859 -0.1922  0.0915  0.0963
  174loPI   C5A 2779  19.020   1.642   8.664  0.1956 -0.0902 -0.0807
  174loPI   C6A 2780  19.478   1.628   8.716 -0.0354  0.1290 -0.1587
  174loPI   C1B 2781  18.657   1.809   9.855 -0.0985  0.0836  0.0458
  174loPI   C2B 2782  18.805   1.715   9.386 -0.0711 -0.0373  0.0365
  174loPI   C3B 2783  18.934   1.463   9.170 -0.0180  0.1127  0.1117
  174loPI   C4B 2784  19.158   1.256   8.927  0.0515 -0.2333  0.1438
  175loPI    C1 2785  17.029  13.735  10.643  0.1738  0.0482  0.2492
  175loPI    C2 2786  16.708  13.508  10.713  0.1437  0.0219  0.0302
  175loPI    C3 2787  16.808  13.797  10.970  0.0736 -0.1154  0.2132
  175loPI   PO4 2788  17.022  13.637  10.312 -0.1109 -0.0120 -0.1840
  175loPI   GL1 2789  17.019  13.971  10.106  0.2226  0.0576 -0.1863
  175loPI   GL2 2790  17.186  14.182  10.266 -0.1378  0.0617 -0.1251
  175loPI   C1A 2791  16.669  13.884   9.823 -0.0606  0.0430 -0.0504
  175loPI   C2A 2792  16.538  14.021   9.481 -0.0379  0.2544  0.0989
  175loPI   C3A 2793  16.500  14.349   9.237  0.1262  0.0508 -0.2971
  175loPI   C4A 2794  16.384  14.506   8.832 -0.0486  0.0415  0.0730
  175loPI   C5A 2795  16.222  14.625   8.482 -0.1639  0.0653  0.1348
  175loPI   C6A 2796  16.476  14.646   8.106 -0.1378 -0.1170 -0.2771
  175loPI   C1B 2797  17.453  14.276   9.966  0.0896 -0.0256  0.2378
  175loPI   C2B 2798  17.515  14.201   9.442  0.2961 -0.1319 -0.1711
  175loPI   C3B 2799  17.669  13.877   9.400 -0.1002 -0.1812  0.3310
  175loPI   C4B 2800  17.456  13.479   9.364  0.2938 -0.1441  0.1927
  176loPI    C1 2801  14.366  12.943  10.709 -0.0869  0.0215  0.1759
  176loPI    C2 2802  14.203  12.599  10.832  0.0407 -0.1163 -0.0335
  176loPI    C3 2803  14.389  12.838  11.095 -0.2487 -0.0933  0.1552
  176loPI   PO4 2804  14.164  12.963  10.503  0.2832 -0.1794  0.1087
  176loPI   GL1 2805  14.161  12.889  10.091  0.0771  0.0400 -0.3670
  176loPI   GL2 2806  13.917  12.752  10.076  0.2266 -0.1523  0.0726
  176loPI   C1A 2807  14.250  12.790   9.696  0.0068 -0.0045 -0.1919
  176loPI   C2A 2808  14.552  12.913   9.405  0.1643  0.0693  0.4209
  176loPI   C3A 2809  14.698  12.948   9.005 -0.0146  0.1282 -0.1398
  176loPI   C4A 2810  14.612  12.725   8.654 -0.1090 -0.0206 -0.1743
  176loPI   C5A 2811  14.426  12.307   8.432  0.0946  0.0438  0.0912
  176loPI   C6A 2812  14.052  11.965   8.341  0.1536 -0.0926  0.1461
  176loPI   C1B 2813  13.805  12.585   9.696  0.0547 -0.0318  0.3204
  176loPI   C2B 2814  13.963  12.784   9.340  0.3080  0.0543 -0.0035
  176loPI   C3B 2815  14.188  12.891   9.059 -0.0544 -0.0006  0.1695
  176loPI   C4B 2816  14.126  12.949   8.621 -0.0087 -0.0407 -0.1890
  177loPI    C1 2817  16.911   3.297  10.902 -0.1543  0.0810 -0.2677
  177loPI    C2 2818  16.702   3.029  11.114  0.2302  0.0755  0.1182
  177loPI    C3 2819  16.523   3.237  10.823 -0.2314 -0.1423  0.2369
  177loPI   PO4 2820  17.177   3.136  10.805 -0.0994 -0.0680  0.0698
  177loPI   GL1 2821  17.086   2.915  10.463 -0.0208  0.1356  0.1343
  177loPI   GL2 2822  16.833   2.968  10.475 -0.1454 -0.1574  0.1285
  177loPI   C1A 2823  16.999   2.696  10.029 -0.1113 -0.1028  0.2066
  177loPI   C2A 2824  16.841   2.558   9.611 -0.0241 -0.2951 -0.1417
  177loPI   C3A 2825  16.882   2.777   9.150  0.2690  0.2267 -0.0024
  177loPI   C4A 2826  17.111   2.981   8.798 -0.1038 -0.4273 -0.1732
  177loPI   C5A 2827  17.547   2.927   8.521 -0.1298 -0.0288  0.1041
  177loPI   C6A 2828  17.940   3.217   8.707  0.0223 -0.2150  0.0012
  177loPI   C1B 2829  16.638   3.067  10.076 -0.0183 -0.1772 -0.3408
  177loPI   C2B 2830  16.679   3.104   9.654  0.0881  0.2208 -0.1387
  177loPI   C3B 2831  16.655   3.276   9.343 -0.0602  0.1178  0.2594
  177loPI   C4B 2832  16.602   3.150   8.946  0.0433  0.2938 -0.0361
  178loPI    C1 2833   5.287   1.702  10.931  0.3463 -0.2787 -0.0151
  178loPI    C2 2834   5.248   1.559  11.302  0.4052 -0.1504  0.0411
  178loPI    C3 2835   5.240   1.309  10.990 -0.2488 -0.2014  0.0846
  178loPI   PO4 2836   5.080   1.941  10.901  0.0688  0.0736  0.0317
  178loPI   GL1 2837   4.820   1.993  10.487 -0.0383  0.2559 -0.5154
  178loPI   GL2 2838   4.665   1.752  10.315 -0.2161  0.2075 -0.1694
  178loPI   C1A 2839   4.941   2.344  10.226 -0.0320 -0.1664 -0.2416
  178loPI   C2A 2840   4.969   2.494   9.844  0.2663 -0.2490  0.0178
  178loPI   C3A 2841   4.933   2.683   9.501  0.1326  0.0744 -0.2521
  178loPI   C4A 2842   4.904   2.926   9.056 -0.0329  0.0829  0.1600
  178loPI   C5A 2843   5.083   3.184   8.749 -0.1495  0.0856  0.0141
  178loPI   C6A 2844   5.358   3.518   8.578  0.0135  0.1935  0.0720
  178loPI   C1B 2845   4.644   1.722   9.878  0.3952  0.1845  0.0488
  178loPI   C2B 2846   4.538   1.760   9.478  0.0643  0.3486  0.0205
  178loPI   C3B 2847   4.540   1.749   9.066  0.1149 -0.1534  0.3270
  178loPI   C4B 2848   4.414   1.815   8.629 -0.0001 -0.2270  0.0013
  179loPI    C1 2849   7.932   6.552  10.720 -0.1634  0.0201 -0.1233
  179loPI    C2 2850   7.580   6.489  10.899 -0.0006 -0.1176  0.1547
  179loPI    C3 2851   7.910   6.311  11.038  0.1445 -0.1662 -0.2386
  179loPI   PO4 2852   7.906   6.835  10.598 -0.0874  0.2064 -0.0126
  179loPI   GL1 2853   7.527   6.735  10.390  0.1139 -0.1046 -0.3226
  179loPI   GL2 2854   7.580   6.979  10.282  0.2602 -0.1882  0.1394
  179loPI   C1A 2855   7.635   6.503  10.024  0.0341  0.1702  0.2749
  179loPI   C2A 2856   7.649   6.423   9.575 -0.0014 -0.3030 -0.1319
  179loPI   C3A 2857   7.713   6.345   9.095 -0.0398 -0.1307 -0.0375
  179loPI   C4A 2858   7.839   6.282   8.654  0.1222 -0.0859 -0.0298
  179loPI   C5A 2859   8.110   6.299   8.234 -0.3422 -0.1418 -0.1766
  179loPI   C6A 2860   8.319   6.058   7.856  0.0779 -0.1866 -0.0316
  179loPI   C1B 2861   7.381   6.935   9.916  0.1000 -0.1003 -0.1811
  179loPI   C2B 2862   7.367   6.884   9.529  0.0707 -0.1391  0.0375
  179loPI   C3B 2863   7.475   6.868   9.158  0.0275 -0.0506  0.0875
  179loPI   C4B 2864   7.699   6.773   8.809  0.0378  0.1579 -0.0883
  180loPI    C1 2865  12.476   3.039  10.975 -0.1792  0.0575 -0.1141
  180loPI    C2 2866  12.281   2.704  10.879  0.0255 -0.0470 -0.1691
  180loPI    C3 2867  12.657   2.685  11.015  0.0729  0.1663 -0.2666
  180loPI   PO4 2868  12.399   3.146  10.757 -0.1282 -0.0375  0.1694
  180loPI   GL1 2869  12.327   3.416  10.444 -0.1751  0.1085  0.3130
  180loPI   GL2 2870  12.207   3.602  10.229 -0.0434 -0.2231  0.1807
  180loPI   C1A 2871  12.129   3.163  10.124  0.0503  0.1534 -0.0920
  180loPI   C2A 2872  12.032   3.135   9.693  0.0027 -0.0937 -0.0041
  180loPI   C3A 2873  12.100   3.159   9.261  0.0776  0.2036 -0.0312
  180loPI   C4A 2874  12.257   2.974   8.876 -0.4514  0.3545 -0.3871
  180loPI   C5A 2875  12.336   2.610   8.776 -0.0443  0.1209  0.0507
  180loPI   C6A 2876  12.193   2.349   8.403  0.0310  0.3900  0.4142
  180loPI   C1B 2877  12.114   3.616   9.814  0.0604 -0.1800 -0.0627
  180loPI   C2B 2878  12.193   3.702   9.360 -0.1758 -0.0454  0.3798
  180loPI   C3B 2879  11.888   3.529   9.010 -0.1614 -0.2708 -0.1290
  180loPI   C4B 2880  11.769   3.136   8.818  0.0872  0.0487  0.0953
  181loPI    C1 2881  11.228   2.520  11.208 -0.0344 -0.1895 -0.1097
  181loPI    C2 2882  11.616   2.528  11.302 -0.0646  0.1520  0.0006
  181loPI    C3 2883  11.344   2.449  11.584 -0.0820  0.0010 -0.0578
  181loPI   PO4 2884  11.209   2.432  10.928 -0.2175  0.2576 -0.0830
  181loPI   GL1 2885  11.257   2.605  10.566  0.0822  0.1059  0.2029
  181loPI   GL2 2886  11.479   2.330  10.438 -0.2249 -0.1179 -0.1130
  181loPI   C1A 2887  11.359   2.821  10.117 -0.0231  0.2927  0.2797
  181loPI   C2A 2888  11.509   2.829   9.798 -0.1337 -0.0257  0.0288
  181loPI   C3A 2889  11.729   2.800   9.468  0.1389 -0.3981  0.0613
  181loPI   C4A 2890  11.871   2.704   9.041 -0.1565  0.0991 -0.1865
  181loPI   C5A 2891  11.833   2.604   8.645  0.2051 -0.2817  0.2914
  181loPI   C6A 2892  11.936   2.691   8.149  0.2093  0.2610 -0.0693
  181loPI   C1B 2893  11.368   2.338   9.994  0.2321  0.2441 -0.0529
  181loPI   C2B 2894  11.465   2.381   9.581  0.1109 -0.1311 -0.0510
  181loPI   C3B 2895  11.464   2.380   9.162 -0.0848 -0.0102 -0.1747
  181loPI   C4B 2896  11.416   2.339   8.581  0.0165  0.0058  0.0652
  182loPI    C1 2897  17.484  11.027  10.976 -0.0222 -0.0689 -0.1507
  182loPI    C2 2898  17.191  11.224  10.788  0.0941  0.2639  0.0071
  182loPI    C3 2899  17.210  11.229  11.187  0.3003  0.2244 -0.0012
  182loPI   PO4 2900  17.517  10.875  10.699  0.1566  0.2880  0.2039
  182loPI   GL1 2901  17.574  10.878  10.292  0.1120  0.1453 -0.0071
  182loPI   GL2 2902  17.726  10.702  10.041 -0.3195 -0.0018 -0.0629
  182loPI   C1A 2903  17.578  11.240   9.958 -0.1948  0.1115 -0.3789
  182loPI   C2A 2904  17.550  11.250   9.543  0.2049  0.0511 -0.0462
  182loPI   C3A 2905  17.642  11.239   9.139  0.2043 -0.3115 -0.0543
  182loPI   C4A 2906  17.459  11.158   8.671  0.1253 -0.3856  0.0408
  182loPI   C5A 2907  17.467  11.312   8.278 -0.1878 -0.0814 -0.1974
  182loPI   C6A 2908  17.311  11.557   7.932  0.1119  0.0164 -0.0723
  182loPI   C1B 2909  17.611  10.773   9.681 -0.1278  0.1516  0.2260
  182loPI   C2B 2910  17.578  10.698   9.252  0.1206  0.1396 -0.0088
  182loPI   C3B 2911  17.642  10.671   8.767 -0.0274  0.1042  0.1310
  182loPI   C4B 2912  17.550  10.832   8.300  0.2089  0.1070  0.2489
  183loPI    C1 2913   0.637   8.932  10.947  0.1520 -0.0189 -0.1191
  183loPI    C2 2914   0.748   8.619  11.170  0.0946 -0.0175 -0.0885
  183loPI    C3 2915   0.499   8.893  11.320  0.1013  0.0138 -0.1344
  183loPI   PO4 2916   0.642   8.763  10.682 -0.2025  0.0041  0.1102
  183loPI   GL1 2917   0.370   8.523  10.405 -0.2420 -0.1490  0.0896
  183loPI   GL2 2918   0.633   8.308  10.352  0.2085  0.0762  0.1166
  183loPI   C1A 2919   0.378   8.719  10.030  0.0504  0.1298  0.0434
  183loPI   C2A 2920   0.326   8.738   9.629 -0.0675 -0.2366  0.0013
  183loPI   C3A 2921   0.431   8.601   9.304  0.0889  0.3381  0.0776
  183loPI   C4A 2922   0.444   8.604   8.856  0.1140 -0.0865 -0.0184
  183loPI   C5A 2923   0.662   8.329   8.539 -0.2029 -0.4104  0.3860
  183loPI   C6A 2924   0.979   8.092   8.321 -0.1467  0.0382 -0.0012
  183loPI   C1B 2925   0.725   8.348   9.922 -0.2519  0.3072  0.1596
  183loPI   C2B 2926   0.750   8.340   9.518 -0.1268 -0.2178 -0.3499
  183loPI   C3B 2927   0.924   8.088   9.274 -0.0009  0.0300 -0.1894
  183loPI   C4B 2928   0.990   8.072   8.883 -0.1980  0.0626  0.2876
  184loPI    C1 2929   1.089   5.799  10.804  0.1337 -0.1283  0.0126
  184loPI    C2 2930   0.949   5.989  11.127  0.1895  0.0966 -0.0930
  184loPI    C3 2931   1.333   5.879  11.111  0.0923 -0.2883  0.0881
  184loPI   PO4 2932   0.840   5.650  10.776 -0.2237 -0.0018  0.0078
  184loPI   GL1 2933   0.542   5.640  10.536  0.0078  0.3275 -0.1196
  184loPI   GL2 2934   0.744   5.646  10.263 -0.0795  0.1921 -0.3503
  184loPI   C1A 2935   0.174   5.508  10.196  0.0280  0.2901  0.2965
  184loPI   C2A 2936   0.255   5.422   9.745  0.4094  0.0233 -0.2581
  184loPI   C3A 2937   0.239   5.360   9.301 -0.1556 -0.0228  0.0324
  184loPI   C4A 2938   0.227   5.223   8.849  0.0201  0.1421 -0.0244
  184loPI   C5A 2939   0.174   5.019   8.505  0.0423 -0.1027  0.2506
  184loPI   C6A 2940  -0.091   4.652   8.430 -0.1448 -0.1057 -0.0757
  184loPI   C1B 2941   0.731   5.590   9.884  0.1399  0.2636  0.1759
  184loPI   C2B 2942   0.649   5.607   9.404 -0.0573  0.2111  0.1722
  184loPI   C3B 2943   0.684   5.464   8.948 -0.2400  0.1738 -0.0826
  184loPI   C4B 2944   0.513   5.547   8.567 -0.0982 -0.3129  0.1886
  185loPI    C1 2945   1.935  15.750  11.015 -0.2316  0.1451 -0.1171
  185loPI    C2 2946   2.325  15.728  11.101 -0.2513 -0.1417 -0.0918
  185loPI    C3 2947   2.124  16.066  11.173  0.0034  0.0272 -0.1568
  185loPI   PO4 2948   1.864  15.692  10.669 -0.1789  0.0494 -0.0487
  185loPI   GL1 2949   2.201  15.592  10.359  0.0891  0.1212  0.3310
  185loPI   GL2 2950   2.296  15.291  10.261  0.2125 -0.2887  0.4373
  185loPI   C1A 2951   2.085  15.738   9.979 -0.1538  0.2292 -0.2015
  185loPI   C2A 2952   2.097  15.858   9.627 -0.1556  0.0534  0.0489
  185loPI   C3A 2953   2.153  15.998   9.168  0.1157  0.0926  0.0164
  185loPI   C4A 2954   2.314  16.053   8.759  0.0288  0.1203  0.0851
  185loPI   C5A 2955   2.374  16.371   8.452 -0.1192 -0.0510 -0.3110
  185loPI   C6A 2956   2.315  16.745   8.570  0.0125  0.2549  0.1087
  185loPI   C1B 2957   2.112  15.236   9.792  0.1423 -0.1907  0.0495
  185loPI   C2B 2958   2.094  15.388   9.445  0.2569 -0.0102 -0.0807
  185loPI   C3B 2959   2.360  15.254   9.083  0.0727 -0.2772  0.3264
  185loPI   C4B 2960   2.769  15.307   8.730  0.1096 -0.1999  0.1924
  186loPI    C1 2961  12.054   9.712  10.793  0.2694 -0.1150 -0.1571
  186loPI    C2 2962  12.128   9.390  11.019  0.0090 -0.1445 -0.1105
  186loPI    C3 2963  11.957   9.714  11.181  0.2496  0.0118 -0.1622
  186loPI   PO4 2964  12.125   9.583  10.558  0.0597 -0.2025  0.2846
  186loPI   GL1 2965  12.207   9.675  10.169 -0.0801  0.2752  0.0472
  186loPI   GL2 2966  12.433   9.883  10.194 -0.2179  0.1619 -0.0820
  186loPI   C1A 2967  12.182   9.768   9.776 -0.1590  0.1072 -0.0772
  186loPI   C2A 2968  12.076   9.852   9.306  0.0219 -0.1198 -0.0886
  186loPI   C3A 2969  12.099   9.977   8.783  0.0795 -0.0372  0.0859
  186loPI   C4A 2970  11.984  10.164   8.337 -0.1765 -0.0044 -0.2515
  186loPI   C5A 2971  11.681  10.282   8.016  0.2231 -0.1930  0.0191
  186loPI   C6A 2972  11.452  10.595   7.834  0.0563 -0.0305  0.0844
  186loPI   C1B 2973  12.621   9.970   9.829 -0.3469 -0.0836  0.0789
  186loPI   C2B 2974  12.564  10.070   9.391 -0.2332 -0.0849  0.1036
  186loPI   C3B 2975  12.638  10.028   8.921  0.0051 -0.1251  0.1882
  186loPI   C4B 2976  12.518   9.963   8.436 -0.3052 -0.2568  0.0896
  187loPI    C1 2977  10.866  12.139  11.214  0.0259 -0.3424 -0.0683
  187loPI    C2 2978  11.115  12.397  11.391  0.1558 -0.2322 -0.4036
  187loPI    C3 2979  10.941  12.108  11.606  0.1673  0.0066 -0.0641
  187loPI   PO4 2980  11.027  12.105  10.976  0.0859  0.0765  0.4517
  187loPI   GL1 2981  10.832  12.196  10.627  0.1783  0.1845  0.0444
  187loPI   GL2 2982  11.064  12.338  10.527 -0.3281 -0.0414 -0.1583
  187loPI   C1A 2983  10.775  11.975  10.241 -0.2812 -0.1771  0.0851
  187loPI   C2A 2984  10.808  11.956   9.779  0.0883  0.2635 -0.4375
  187loPI   C3A 2985  10.810  11.878   9.384 -0.0979  0.1147 -0.0218
  187loPI   C4A 2986  10.854  11.881   8.981 -0.0374 -0.0489 -0.1231
  187loPI   C5A 2987  10.964  11.919   8.579 -0.0767 -0.0794  0.1108
  187loPI   C6A 2988  11.397  12.035   8.417 -0.3961 -0.1825 -0.0756
  187loPI   C1B 2989  11.085  12.314  10.098 -0.1128 -0.0352  0.3893
  187loPI   C2B 2990  11.133  12.374   9.721  0.0705 -0.2605 -0.0862
  187loPI   C3B 2991  11.128  12.316   9.296  0.1117  0.2206  0.2517
  187loPI   C4B 2992  11.135  12.316   8.818  0.0434  0.0629  0.0809
  188loPI    C1 2993  15.534   8.167  10.794  0.1253 -0.1741 -0.0411
  188loPI    C2 2994  15.882   8.085  10.974  0.1884 -0.2791 -0.2084
  188loPI    C3 2995  15.624   7.790  10.892  0.0696 -0.2046 -0.1059
  188loPI   PO4 2996  15.563   8.419  10.683 -0.3153 -0.1224 -0.1623
  188loPI   GL1 2997  15.639   8.458  10.312 -0.0678 -0.3538 -0.2430
  188loPI   GL2 2998  15.561   8.219  10.187 -0.4151  0.0213  0.0674
  188loPI   C1A 2999  15.605   8.656   9.884 -0.0698 -0.1307  0.0325
  188loPI   C2A 3000  15.509   8.808   9.466  0.1030 -0.2704 -0.1514
  188loPI   C3A 3001  15.337   9.002   9.147 -0.2264  0.2326  0.1083
  188loPI   C4A 3002  15.627   9.347   8.851  0.1916  0.0171 -0.0695
  188loPI   C5A 3003  15.769   9.441   8.426 -0.0134  0.1806 -0.0852
  188loPI   C6A 3004  15.895   9.303   8.016  0.1174  0.0395 -0.1169
  188loPI   C1B 3005  15.456   8.204   9.765  0.0182  0.1341 -0.0911
  188loPI   C2B 3006  15.292   8.209   9.336  0.0136 -0.1296  0.0747
  188loPI   C3B 3007  15.322   8.345   8.893  0.0794  0.4072 -0.0511
  188loPI   C4B 3008  15.161   8.607   8.535 -0.0256  0.0313  0.2983
  189loPI    C1 3009   8.646   3.899  10.659  0.2849  0.0787  0.0190
  189loPI    C2 3010   8.714   3.670  10.338 -0.1166  0.1419 -0.1171
  189loPI    C3 3011   8.580   3.504  10.676  0.0772  0.1091 -0.0550
  189loPI   PO4 3012   8.815   4.174  10.528 -0.0185  0.1433 -0.2321
  189loPI   GL1 3013   8.789   4.245  10.075  0.1310  0.3544  0.1222
  189loPI   GL2 3014   8.877   4.029  10.031 -0.0593 -0.2587 -0.2897
  189loPI   C1A 3015   8.724   4.226   9.620  0.0072 -0.3336  0.0640
  189loPI   C2A 3016   8.711   4.273   9.253  0.1829 -0.1451 -0.0088
  189loPI   C3A 3017   8.596   4.322   8.841  0.1398 -0.0821  0.0698
  189loPI   C4A 3018   8.454   4.436   8.561  0.1058  0.1006  0.2996
  189loPI   C5A 3019   8.553   4.830   8.378 -0.2417  0.2494  0.1984
  189loPI   C6A 3020   8.885   5.063   8.225 -0.2130  0.0901  0.0007
  189loPI   C1B 3021   8.571   3.735   9.821 -0.1721 -0.0404 -0.3279
  189loPI   C2B 3022   8.614   3.767   9.407 -0.2701 -0.1625  0.3402
  189loPI   C3B 3023   8.611   3.826   9.034 -0.0099 -0.3006  0.1337
  189loPI   C4B 3024   8.755   3.596   8.640 -0.0157 -0.2278 -0.1414
  190loPI    C1 3025   2.548   9.560  10.555 -0.0076 -0.0187 -0.0543
  190loPI    C2 3026   2.348   9.293  10.775 -0.0673  0.1860  0.1434
  190loPI    C3 3027   2.156   9.508  10.498  0.0003 -0.0441 -0.0863
  190loPI   PO4 3028   2.712   9.465  10.450 -0.0432 -0.1478  0.2265
  190loPI   GL1 3029   2.937   9.540  10.071 -0.0361 -0.0834 -0.0906
  190loPI   GL2 3030   3.201   9.344   9.979  0.0807 -0.0516  0.0637
  190loPI   C1A 3031   2.847   9.639   9.618 -0.3475 -0.3185 -0.1213
  190loPI   C2A 3032   2.843   9.557   9.333  0.1624 -0.0677  0.0619
  190loPI   C3A 3033   2.789   9.653   8.814  0.0014  0.1274  0.0695
  190loPI   C4A 3034   2.572   9.377   8.514  0.1394  0.0847  0.0672
  190loPI   C5A 3035   2.712   8.957   8.395  0.1897 -0.2252  0.0715
  190loPI   C6A 3036   2.858   8.574   8.257  0.1103  0.0766 -0.1302
  190loPI   C1B 3037   3.273   9.372   9.545 -0.1317  0.0771  0.1538
  190loPI   C2B 3038   3.270   9.319   9.154 -0.1176 -0.0280 -0.0162
  190loPI   C3B 3039   3.237   9.375   8.694 -0.1541  0.0377 -0.0857
  190loPI   C4B 3040   3.282   9.437   8.307  0.0104  0.0794 -0.1972
  191loPI    C1 3041  14.865  15.441  10.667  0.0938  0.0266 -0.1130
  191loPI    C2 3042  15.106  15.469  10.985 -0.0946  0.0494  0.0295
  191loPI    C3 3043  14.845  15.166  10.957  0.0456 -0.0534 -0.1915
  191loPI   PO4 3044  14.803  15.705  10.567  0.0947 -0.4015 -0.4245
  191loPI   GL1 3045  14.883  15.779  10.178 -0.0854  0.4049 -0.0066
  191loPI   GL2 3046  15.112  15.556  10.178 -0.0425  0.2001 -0.1967
  191loPI   C1A 3047  14.912  15.741   9.668 -0.0337 -0.1640 -0.0116
  191loPI   C2A 3048  14.840  15.573   9.239 -0.4024 -0.0424  0.1734
  191loPI   C3A 3049  14.897  15.772   8.897  0.2582 -0.0385  0.1987
  191loPI   C4A 3050  15.116  15.858   8.566  0.0937 -0.0356 -0.0575
  191loPI   C5A 3051  15.446  15.730   8.228  0.4285 -0.0463  0.0727
  191loPI   C6A 3052  15.450  15.734   7.822 -0.3252 -0.0039 -0.0538
  191loPI   C1B 3053  15.302  15.479   9.756  0.2048  0.2613  0.1042
  191loPI   C2B 3054  15.343  15.640   9.386  0.0156  0.1161 -0.0501
  191loPI   C3B 3055  15.294  15.535   8.969 -0.0039  0.1347 -0.1392
  191loPI   C4B 3056  15.337  15.389   8.572 -0.0326  0.0999  0.0689
  192loPI    C1 3057  16.136   7.642  10.970 -0.0059 -0.0385  0.0230
  192loPI    C2 3058  16.270   7.266  10.989  0.1375  0.0200  0.2021
  192loPI    C3 3059  15.890   7.347  11.082  0.0083 -0.1281 -0.1775
  192loPI   PO4 3060  16.276   7.705  10.774 -0.2824  0.0546 -0.1197
  192loPI   GL1 3061  16.339   7.633  10.353  0.2485  0.3665  0.0410
  192loPI   GL2 3062  16.508   7.489  10.153 -0.0576  0.1046 -0.2998
  192loPI   C1A 3063  16.085   7.790   9.996  0.0923  0.1849  0.0307
  192loPI   C2A 3064  15.756   7.779   9.738  0.1585 -0.1115  0.1585
  192loPI   C3A 3065  15.407   7.733   9.440  0.0562 -0.4366 -0.0929
  192loPI   C4A 3066  15.344   7.796   9.018  0.1691 -0.0128  0.1060
  192loPI   C5A 3067  15.535   7.963   8.607 -0.0426  0.0532  0.1626
  192loPI   C6A 3068  15.537   8.294   8.367 -0.0204  0.0657  0.0509
  192loPI   C1B 3069  16.519   7.704   9.783 -0.1586  0.1458  0.1184
  192loPI   C2B 3070  16.581   7.600   9.332  0.1708  0.2387 -0.0225
  192loPI   C3B 3071  16.791   7.789   9.044 -0.1853  0.0980 -0.1161
  192loPI   C4B 3072  16.981   7.766   8.612 -0.0157  0.0246 -0.0370
  193loPI    C1 3073   4.571  12.298  11.203  0.0593  0.1934 -0.2680
  193loPI    C2 3074   4.918  12.295  11.004  0.2009 -0.0947 -0.0240
  193loPI    C3 3075   4.915  12.263  11.403 -0.0948  0.1765 -0.0003
  193loPI   PO4 3076   4.392  12.357  10.926  0.0909  0.1148 -0.2192
  193loPI   GL1 3077   4.327  12.543  10.494  0.1970  0.0263 -0.3104
  193loPI   GL2 3078   4.472  12.721  10.314  0.5286  0.1474 -0.1587
  193loPI   C1A 3079   3.877  12.338  10.324 -0.0650 -0.2897  0.2525
  193loPI   C2A 3080   3.741  12.373   9.862 -0.0517  0.0884 -0.0455
  193loPI   C3A 3081   3.605  12.408   9.485 -0.1183  0.0110 -0.2021
  193loPI   C4A 3082   3.623  12.360   9.034 -0.0817  0.0763  0.2272
  193loPI   C5A 3083   3.636  12.068   8.691 -0.0157 -0.2739 -0.1564
  193loPI   C6A 3084   3.468  11.704   8.483  0.1069  0.1776  0.0534
  193loPI   C1B 3085   4.155  12.649  10.040 -0.0339 -0.0387  0.1993
  193loPI   C2B 3086   4.090  12.548   9.631  0.0362 -0.1527 -0.0183
  193loPI   C3B 3087   4.061  12.306   9.291 -0.1476 -0.1134  0.1798
  193loPI   C4B 3088   4.138  12.197   8.829  0.2450 -0.0743 -0.1983
  194loPI    C1 3089   9.285  14.298  11.024  0.0952  0.0954 -0.0066
  194loPI    C2 3090   9.003  14.298  11.308 -0.0705  0.0375 -0.1695
  194loPI    C3 3091   9.331  14.073  11.352 -0.0231  0.1454  0.0449
  194loPI   PO4 3092   9.191  14.256  10.858 -0.1827 -0.1521  0.2484
  194loPI   GL1 3093   9.130  14.316  10.517  0.1275 -0.0723  0.0549
  194loPI   GL2 3094   9.347  13.979  10.506 -0.0466  0.1467  0.1054
  194loPI   C1A 3095   9.143  14.263  10.064  0.4128 -0.0266 -0.1045
  194loPI   C2A 3096   9.229  14.143   9.634 -0.0410 -0.0828 -0.0753
  194loPI   C3A 3097   9.321  14.392   9.237  0.3889  0.2953  0.2076
  194loPI   C4A 3098   9.415  14.621   8.841  0.0957  0.0292 -0.0743
  194loPI   C5A 3099   9.495  14.662   8.400 -0.1510 -0.2566 -0.0434
  194loPI   C6A 3100   9.743  14.563   8.025 -0.2445  0.1107  0.3098
  194loPI   C1B 3101   9.229  13.723  10.171 -0.4323 -0.0794  0.3794
  194loPI   C2B 3102   9.308  13.636   9.708 -0.1168 -0.0381 -0.1428
  194loPI   C3B 3103   9.097  13.610   9.297  0.2892 -0.1305  0.0271
  194loPI   C4B 3104   9.294  13.913   9.032 -0.0535 -0.1052 -0.1023
  195loPI    C1 3105  12.869   6.653  10.815  0.0260 -0.1818  0.1249
  195loPI    C2 3106  12.558   6.419  10.905 -0.0331 -0.1385  0.0347
  195loPI    C3 3107  12.581   6.787  11.059 -0.1603 -0.0453 -0.1648
  195loPI   PO4 3108  12.956   6.727  10.497 -0.1242  0.0358  0.0435
  195loPI   GL1 3109  12.689   6.723  10.150  0.0579 -0.1021 -0.1523
  195loPI   GL2 3110  13.050   6.837  10.017 -0.0641  0.2192 -0.1992
  195loPI   C1A 3111  12.675   6.665   9.700  0.0597  0.4182 -0.2104
  195loPI   C2A 3112  12.493   6.709   9.310  0.0243  0.1190 -0.0071
  195loPI   C3A 3113  12.354   6.577   8.826 -0.0602  0.0904  0.0050
  195loPI   C4A 3114  12.331   6.508   8.470 -0.2577 -0.0351 -0.0553
  195loPI   C5A 3115  12.435   6.658   8.113 -0.2910 -0.3205 -0.1173
  195loPI   C6A 3116  12.646   6.943   7.932 -0.2206 -0.1268  0.1250
  195loPI   C1B 3117  13.161   6.805   9.607 -0.0375 -0.0436 -0.0626
  195loPI   C2B 3118  13.009   6.796   9.178 -0.0699  0.0822 -0.1073
  195loPI   C3B 3119  12.796   6.869   8.845  0.1365 -0.3936  0.0436
  195loPI   C4B 3120  12.933   6.961   8.362 -0.0487  0.1527  0.0359
  196loPI    C1 3121   4.728  14.577  11.036  0.0677  0.1853 -0.1535
  196loPI    C2 3122   4.835  14.211  11.158 -0.2685  0.0846 -0.1498
  196loPI    C3 3123   5.098  14.443  10.965 -0.0337 -0.1332 -0.0972
  196loPI   PO4 3124   4.490  14.613  10.936  0.1009 -0.2416 -0.1267
  196loPI   GL1 3125   4.416  14.542  10.466  0.2960  0.1093  0.3892
  196loPI   GL2 3126   4.799  14.564  10.512 -0.0096 -0.1393  0.0377
  196loPI   C1A 3127   4.421  14.635  10.039 -0.0714 -0.2266 -0.0786
  196loPI   C2A 3128   4.533  14.749   9.743  0.0588 -0.1760  0.0944
  196loPI   C3A 3129   4.485  14.764   9.347  0.1272 -0.1300  0.0650
  196loPI   C4A 3130   4.558  14.617   8.959  0.0454  0.1888  0.1236
  196loPI   C5A 3131   4.302  14.423   8.635  0.4315 -0.0384 -0.1875
  196loPI   C6A 3132   4.096  14.432   8.401 -0.0750 -0.0742  0.0242
  196loPI   C1B 3133   4.833  14.476  10.146 -0.1508  0.1233  0.3150
  196loPI   C2B 3134   4.829  14.382   9.742  0.0273 -0.2701  0.0597
  196loPI   C3B 3135   4.551  14.276   9.391  0.1313  0.0260 -0.1809
  196loPI   C4B 3136   4.387  14.129   9.040  0.2228  0.0069  0.0479
  197loPI    C1 3137   8.440   9.493  10.918 -0.0188  0.2490 -0.0795
  197loPI    C2 3138   8.779   9.581  11.111  0.0073 -0.0657  0.0242
  197loPI    C3 3139   8.586   9.241  11.193 -0.0478 -0.1464 -0.4171
  197loPI   PO4 3140   8.430   9.457  10.647  0.0725  0.2300  0.1737
  197loPI   GL1 3141   8.367   9.081  10.373  0.2440  0.0812  0.0529
  197loPI   GL2 3142   8.252   9.321  10.122 -0.0678 -0.3636  0.0017
  197loPI   C1A 3143   8.385   8.749  10.014 -0.0429 -0.0632  0.2976
  197loPI   C2A 3144   8.465   8.749   9.555 -0.0060  0.1874  0.0527
  197loPI   C3A 3145   8.518   8.901   9.246 -0.0513 -0.1216  0.1857
  197loPI   C4A 3146   8.492   8.822   8.921 -0.1578 -0.1283 -0.1428
  197loPI   C5A 3147   8.580   9.057   8.594 -0.1384  0.2321 -0.1934
  197loPI   C6A 3148   8.694   9.275   8.192 -0.1787  0.1276 -0.0241
  197loPI   C1B 3149   8.400   9.656   9.797 -0.0082 -0.0480 -0.2126
  197loPI   C2B 3150   8.275   9.773   9.380  0.2439 -0.1368  0.3652
  197loPI   C3B 3151   8.343   9.701   8.946 -0.1349  0.1410  0.0518
  197loPI   C4B 3152   8.302   9.581   8.440  0.3671  0.0582  0.0567
  198loPI    C1 3153  11.092   9.795  10.760  0.1468  0.2295  0.0075
  198loPI    C2 3154  11.274   9.772  11.115  0.0426  0.0498  0.0504
  198loPI    C3 3155  10.916   9.948  11.084 -0.0509 -0.1335  0.0766
  198loPI   PO4 3156  11.148   9.589  10.559  0.2435  0.0255 -0.0862
  198loPI   GL1 3157  11.054   9.711  10.164 -0.0405  0.1861  0.2501
  198loPI   GL2 3158  10.965   9.454   9.900 -0.0125  0.1963 -0.0407
  198loPI   C1A 3159  11.409   9.800   9.946  0.2469 -0.1963 -0.0320
  198loPI   C2A 3160  11.684   9.830   9.668 -0.0788  0.1286  0.0000
  198loPI   C3A 3161  11.611   9.903   9.184 -0.2185 -0.1694  0.2090
  198loPI   C4A 3162  11.643  10.084   8.780 -0.0971  0.0565 -0.0707
  198loPI   C5A 3163  11.677  10.471   8.556  0.1755  0.2520 -0.2419
  198loPI   C6A 3164  12.013  10.784   8.408 -0.0040  0.2822  0.1882
  198loPI   C1B 3165  10.837   9.284   9.423  0.0168 -0.1537 -0.0923
  198loPI   C2B 3166  10.905   9.241   8.961 -0.3402 -0.1224  0.1773
  198loPI   C3B 3167  10.832   8.963   8.591 -0.1452  0.0221 -0.2144
  198loPI   C4B 3168  10.612   9.011   8.200  0.1017  0.0899  0.1323
  199loPI    C1 3169  14.078   7.075  10.975 -0.0813 -0.2068 -0.0698
  199loPI    C2 3170  13.805   6.824  11.124 -0.1118 -0.2016 -0.1165
  199loPI    C3 3171  14.194   6.738  11.156 -0.1201 -0.2262 -0.0807
  199loPI   PO4 3172  14.031   7.045  10.643  0.3662  0.0963  0.3061
  199loPI   GL1 3173  13.712   6.954  10.287  0.1678  0.1638 -0.3507
  199loPI   GL2 3174  13.470   6.683  10.335 -0.1585  0.1021 -0.1697
  199loPI   C1A 3175  13.500   7.060   9.927  0.0120 -0.4608 -0.2210
  199loPI   C2A 3176  13.589   7.058   9.415  0.0473 -0.0103 -0.1406
  199loPI   C3A 3177  13.651   6.821   9.003  0.0065  0.0562  0.0734
  199loPI   C4A 3178  13.967   6.722   8.729 -0.0400 -0.0940  0.0454
  199loPI   C5A 3179  14.232   6.962   8.357 -0.1650  0.0257 -0.0766
  199loPI   C6A 3180  14.488   7.348   8.389 -0.1068 -0.0537  0.3761
  199loPI   C1B 3181  13.430   6.544   9.999 -0.0921 -0.1486 -0.4824
  199loPI   C2B 3182  13.662   6.614   9.613 -0.0912  0.2018 -0.0398
  199loPI   C3B 3183  13.386   6.460   9.249  0.0733  0.2293 -0.0808
  199loPI   C4B 3184  13.268   6.563   8.870 -0.1484 -0.1339  0.4151
  200loPI    C1 3185  12.110   1.495  11.068  0.1026 -0.0208  0.2656
  200loPI    C2 3186  11.734   1.463  10.935  0.1615  0.4036 -0.0234
  200loPI    C3 3187  11.815   1.694  11.251  0.1437  0.0771  0.2260
  200loPI   PO4 3188  12.277   1.627  10.929 -0.0496 -0.1917 -0.0372
  200loPI   GL1 3189  12.106   1.878  10.627 -0.0615 -0.1881  0.1781
  200loPI   GL2 3190  11.741   1.819  10.472  0.2248 -0.1048  0.0327
  200loPI   C1A 3191  12.140   1.795  10.240 -0.2538  0.0790  0.0525
  200loPI   C2A 3192  12.309   1.862   9.837  0.0173  0.0704  0.1074
  200loPI   C3A 3193  12.283   1.892   9.354 -0.0639  0.0295  0.2966
  200loPI   C4A 3194  12.392   1.836   8.912 -0.4211 -0.0567 -0.4487
  200loPI   C5A 3195  12.494   1.921   8.430  0.0394 -0.1295 -0.1428
  200loPI   C6A 3196  12.664   1.705   8.092 -0.0696  0.1617 -0.2182
  200loPI   C1B 3197  11.739   1.995  10.084 -0.2187 -0.0338  0.0336
  200loPI   C2B 3198  11.840   2.001   9.703  0.1375 -0.4898  0.1275
  200loPI   C3B 3199  11.732   1.941   9.220 -0.0853 -0.1408 -0.0462
  200loPI   C4B 3200  11.917   2.058   8.778 -0.0973  0.0259 -0.1530
  201loPI    C1 3201  15.693   1.195  10.761 -0.0810  0.1246 -0.0214
  201loPI    C2 3202  15.725   1.574  10.887 -0.0963  0.1549 -0.1082
  201loPI    C3 3203  15.378   1.440  10.738 -0.1216  0.0764  0.0198
  201loPI   PO4 3204  15.951   1.178  10.635 -0.1234 -0.0163  0.0986
  201loPI   GL1 3205  15.960   1.178  10.245 -0.0383  0.1487 -0.3175
  201loPI   GL2 3206  15.661   1.346  10.261 -0.1086 -0.1882  0.2208
  201loPI   C1A 3207  15.940   1.203   9.802  0.2094  0.0952  0.1243
  201loPI   C2A 3208  16.004   1.209   9.433  0.2031 -0.0784 -0.1112
  201loPI   C3A 3209  16.044   1.151   9.030  0.2775  0.3404  0.1308
  201loPI   C4A 3210  15.852   1.011   8.741  0.0536 -0.1403  0.0228
  201loPI   C5A 3211  15.640   1.005   8.271  0.3005 -0.0126 -0.0365
  201loPI   C6A 3212  15.694   1.073   7.840  0.2627 -0.0859 -0.1788
  201loPI   C1B 3213  15.298   1.602  10.273 -0.0241 -0.1084  0.2808
  201loPI   C2B 3214  15.284   1.904   9.916 -0.2753  0.1805 -0.1781
  201loPI   C3B 3215  15.486   1.919   9.564 -0.0114  0.1107 -0.1764
  201loPI   C4B 3216  15.815   1.788   9.373  0.2189  0.2072  0.1697
  202loPI    C1 3217   6.914   4.266  11.375  0.2303 -0.1438  0.0098
  202loPI    C2 3218   6.981   3.914  11.197  0.2147 -0.1965  0.1075
  202loPI    C3 3219   6.809   3.926  11.558  0.0301 -0.0792  0.0174
  202loPI   PO4 3220   6.837   4.415  11.116  0.0404 -0.1898 -0.2381
  202loPI   GL1 3221   6.965   4.475  10.642 -0.0662  0.1356 -0.0048
  202loPI   GL2 3222   6.980   4.162  10.326  0.1019  0.2177  0.2346
  202loPI   C1A 3223   7.044   4.631  10.203  0.0527  0.1306  0.1965
  202loPI   C2A 3224   7.205   4.670   9.780 -0.1848  0.3628  0.1466
  202loPI   C3A 3225   7.258   4.608   9.326  0.0307 -0.0469  0.4059
  202loPI   C4A 3226   7.353   4.535   8.863 -0.0002 -0.1552 -0.1663
  202loPI   C5A 3227   7.422   4.191   8.600  0.0029 -0.1843  0.1526
  202loPI   C6A 3228   7.757   3.860   8.478  0.0632 -0.0432 -0.0547
  202loPI   C1B 3229   6.856   4.300   9.907  0.1244 -0.1129 -0.0221
  202loPI   C2B 3230   6.903   4.343   9.460  0.0602 -0.2165 -0.2780
  202loPI   C3B 3231   6.960   4.246   9.123 -0.0882  0.1887 -0.0692
  202loPI   C4B 3232   7.109   3.938   8.912  0.1374  0.4588  0.0283
  203loPI    C1 3233   0.389   8.382  10.951 -0.0980  0.0146 -0.1931
  203loPI    C2 3234   0.008   8.285  10.878 -0.0728 -0.3617  0.1407
  203loPI    C3 3235   0.101   8.497  11.204 -0.0277  0.0281 -0.1190
  203loPI   PO4 3236   0.536   8.205  10.894  0.3117  0.2910 -0.4745
  203loPI   GL1 3237   0.749   7.972  10.652 -0.1585 -0.1380  0.0106
  203loPI   GL2 3238   0.618   7.723  10.715  0.0842 -0.1707  0.0664
  203loPI   C1A 3239   0.718   7.906  10.183 -0.1486  0.2323  0.3971
  203loPI   C2A 3240   0.717   7.783   9.749  0.1496 -0.1445  0.0464
  203loPI   C3A 3241   0.835   7.576   9.411  0.0321 -0.1746 -0.2296
  203loPI   C4A 3242   0.934   7.545   9.013  0.1981  0.1111 -0.2405
  203loPI   C5A 3243   0.747   7.677   8.598 -0.0519 -0.1795  0.1641
  203loPI   C6A 3244   0.760   7.500   8.215 -0.3379  0.0961  0.1302
  203loPI   C1B 3245   0.759   7.458  10.331  0.0237 -0.1027 -0.1097
  203loPI   C2B 3246   0.691   7.173  10.028  0.0788  0.1505  0.2464
  203loPI   C3B 3247   0.817   7.046   9.597 -0.0839  0.1866 -0.1110
  203loPI   C4B 3248   0.893   7.094   9.149  0.1510 -0.2481 -0.2091
  204loPI    C1 3249  13.399   2.154  10.832  0.1268  0.1498  0.1191
  204loPI    C2 3250  13.570   1.832  10.997 -0.0924  0.0356  0.1279
  204loPI    C3 3251  13.195   1.932  11.095 -0.1131  0.1501 -0.0630
  204loPI   PO4 3252  13.609   2.364  10.866 -0.0983  0.1734 -0.3681
  204loPI   GL1 3253  13.803   2.409  10.486  0.1762  0.2624  0.0235
  204loPI   GL2 3254  13.558   2.437  10.345  0.2524 -0.1392 -0.0929
  204loPI   C1A 3255  14.024   2.513  10.045  0.0052 -0.0577 -0.2044
  204loPI   C2A 3256  14.100   2.651   9.656  0.0326  0.0255 -0.0422
  204loPI   C3A 3257  14.355   2.573   9.292  0.1240  0.1550  0.0361
  204loPI   C4A 3258  14.540   2.191   9.164  0.0628 -0.1219 -0.0856
  204loPI   C5A 3259  14.523   1.823   9.050  0.1346 -0.1311  0.1041
  204loPI   C6A 3260  14.335   1.632   8.695 -0.1137  0.2670  0.1400
  204loPI   C1B 3261  13.492   2.623  10.010 -0.0560  0.0716 -0.0055
  204loPI   C2B 3262  13.152   2.663   9.724  0.0303 -0.0005  0.2282
  204loPI   C3B 3263  12.831   2.783   9.532  0.1235 -0.0730  0.1345
  204loPI   C4B 3264  12.558   2.724   9.213  0.0489 -0.0320 -0.0850
  205loPI    C1 3265   2.027  13.426  10.978  0.1518  0.0661  0.0960
  205loPI    C2 3266   1.704  13.658  10.930  0.1049 -0.0682 -0.2697
  205loPI    C3 3267   1.917  13.679  11.267 -0.3428 -0.0508  0.0205
  205loPI   PO4 3268   2.174  13.430  10.686 -0.2564 -0.1584  0.1649
  205loPI   GL1 3269   2.164  13.466  10.284  0.1272  0.1764  0.1833
  205loPI   GL2 3270   2.438  13.726  10.255  0.1911 -0.0905 -0.3020
  205loPI   C1A 3271   2.083  13.547   9.843 -0.0679  0.0061  0.1427
  205loPI   C2A 3272   2.121  13.645   9.496  0.1681 -0.1401  0.1944
  205loPI   C3A 3273   2.172  13.604   9.080 -0.1420  0.0105  0.1322
  205loPI   C4A 3274   2.392  13.966   8.838 -0.0479  0.3274  0.0761
  205loPI   C5A 3275   2.693  13.933   8.415  0.0222  0.2453 -0.0985
  205loPI   C6A 3276   3.024  13.925   8.399  0.0351 -0.1045  0.2377
  205loPI   C1B 3277   2.558  13.814   9.773  0.0015  0.0225 -0.0913
  205loPI   C2B 3278   2.635  13.868   9.238  0.0703  0.0246 -0.0670
  205loPI   C3B 3279   2.866  13.798   8.959  0.2941  0.0196 -0.0340
  205loPI   C4B 3280   2.845  13.485   8.707 -0.0207  0.1319 -0.0425
  206loPI    C1 3281  11.231  10.319  11.004 -0.0419 -0.0049 -0.0920
  206loPI    C2 3282  11.102  10.601  11.257  0.1272 -0.0421  0.0380
  206loPI    C3 3283  11.174  10.230  11.390  0.0817 -0.0990 -0.0946
  206loPI   PO4 3284  11.040  10.342  10.781  0.0789 -0.0209  0.0298
  206loPI   GL1 3285  11.032  10.207  10.365  0.0210 -0.3229 -0.0739
  206loPI   GL2 3286  10.711  10.208  10.242  0.0455 -0.0070  0.0136
  206loPI   C1A 3287  11.015  10.093   9.876  0.0088 -0.2241  0.1975
  206loPI   C2A 3288  11.224   9.922   9.478  0.2934 -0.1134 -0.1055
  206loPI   C3A 3289  11.194   9.657   9.152  0.1466  0.1985 -0.3223
  206loPI   C4A 3290  11.442   9.551   8.859 -0.0945  0.1691  0.0940
  206loPI   C5A 3291  11.225   9.324   8.527 -0.2374 -0.0420 -0.0156
  206loPI   C6A 3292  11.222   9.132   8.140  0.1681 -0.1354 -0.3417
  206loPI   C1B 3293  10.666  10.484   9.913 -0.1453  0.1059 -0.2528
  206loPI   C2B 3294  10.469  10.641   9.464 -0.0933  0.1380 -0.0807
  206loPI   C3B 3295  10.391  10.435   9.075  0.1182  0.0945  0.1344
  206loPI   C4B 3296  10.238  10.259   8.648 -0.3503  0.2459 -0.1082
  207loPI    C1 3297   8.307  13.297  10.862 -0.1204 -0.1542 -0.1950
  207loPI    C2 3298   8.301  13.125  11.223  0.0184  0.0198 -0.1082
  207loPI    C3 3299   7.966  13.143  11.004 -0.0033 -0.3384 -0.1105
  207loPI   PO4 3300   8.547  13.190  10.791  0.0122  0.1778 -0.3958
  207loPI   GL1 3301   8.783  13.166  10.444  0.0847 -0.0414 -0.0277
  207loPI   GL2 3302   8.469  13.026  10.337  0.1509  0.2142 -0.0075
  207loPI   C1A 3303   8.981  13.240  10.036  0.2930 -0.0492  0.0242
  207loPI   C2A 3304   8.957  13.195   9.566 -0.2046 -0.2782 -0.0885
  207loPI   C3A 3305   8.811  13.188   9.151 -0.1651  0.0681  0.1487
  207loPI   C4A 3306   8.716  13.027   8.717  0.0671 -0.4313 -0.3244
  207loPI   C5A 3307   8.538  12.709   8.617  0.0597  0.0834  0.2136
  207loPI   C6A 3308   8.351  12.312   8.595  0.0767  0.0383  0.0441
  207loPI   C1B 3309   8.558  13.041   9.894  0.1275 -0.1232  0.0753
  207loPI   C2B 3310   8.459  13.145   9.490 -0.1186 -0.0149  0.2632
  207loPI   C3B 3311   8.363  13.034   9.032 -0.2620 -0.0883  0.1637
  207loPI   C4B 3312   8.278  13.214   8.650 -0.0028 -0.2218  0.2703
  208loPI    C1 3313  10.557  14.361  11.098 -0.1255  0.3118  0.0294
  208loPI    C2 3314  10.878  14.362  11.338  0.0802 -0.0607 -0.2336
  208loPI    C3 3315  10.626  14.051  11.342 -0.1431  0.1180 -0.2079
  208loPI   PO4 3316  10.631  14.414  10.873  0.0959  0.0590  0.3087
  208loPI   GL1 3317  10.536  14.174  10.534  0.1680  0.4991  0.0028
  208loPI   GL2 3318  10.690  13.885  10.411  0.1933 -0.1074  0.0608
  208loPI   C1A 3319  10.438  14.349  10.144 -0.0626  0.0396 -0.1268
  208loPI   C2A 3320  10.518  14.387   9.704 -0.0363  0.2626  0.3346
  208loPI   C3A 3321  10.633  14.467   9.261  0.1732 -0.1017  0.0466
  208loPI   C4A 3322  10.645  14.308   8.916 -0.3937  0.1882  0.1092
  208loPI   C5A 3323  10.795  14.291   8.504  0.0075 -0.0728 -0.0249
  208loPI   C6A 3324  10.690  14.328   8.156  0.1269 -0.0696  0.0014
  208loPI   C1B 3325  10.628  13.866   9.973  0.0817  0.2239 -0.1395
  208loPI   C2B 3326  10.654  13.941   9.468  0.2046  0.4123 -0.3642
  208loPI   C3B 3327  10.585  13.852   9.093 -0.3075 -0.0128 -0.0987
  208loPI   C4B 3328  10.653  13.835   8.655 -0.3949  0.1500 -0.0123
  209loPI    C1 3329   2.648   6.283  11.160 -0.0728 -0.0678 -0.1438
  209loPI    C2 3330   2.263   6.226  11.069 -0.1140  0.2151 -0.1570
  209loPI    C3 3331   2.365   6.369  11.428 -0.0110  0.0139 -0.1044
  209loPI   PO4 3332   2.740   6.065  11.022  0.0938  0.2999 -0.0011
  209loPI   GL1 3333   2.801   6.029  10.608  0.1864 -0.0739 -0.1246
  209loPI   GL2 3334   2.444   6.185  10.515 -0.1890  0.0535  0.1891
  209loPI   C1A 3335   2.776   5.977  10.153  0.0561 -0.0425  0.0359
  209loPI   C2A 3336   2.765   6.051   9.802  0.1746 -0.1176  0.1851
  209loPI   C3A 3337   2.855   6.176   9.460  0.1192 -0.3150 -0.0292
  209loPI   C4A 3338   3.125   6.254   9.066  0.2719  0.0154  0.0881
  209loPI   C5A 3339   3.074   6.273   8.582  0.1238  0.0318 -0.0850
  209loPI   C6A 3340   2.824   6.317   8.218 -0.2808 -0.0165 -0.0756
  209loPI   C1B 3341   2.686   6.478  10.208  0.0532  0.2066 -0.0416
  209loPI   C2B 3342   2.588   6.612   9.848 -0.0549 -0.1128  0.0503
  209loPI   C3B 3343   2.640   6.600   9.439  0.0685 -0.3359  0.0324
  209loPI   C4B 3344   2.700   6.779   8.969  0.1893 -0.1017 -0.1686
  210loPI    C1 3345   7.733   3.809  10.891 -0.2466 -0.1231 -0.1366
  210loPI    C2 3346   7.727   3.503  11.149 -0.0363  0.0356  0.0613
  210loPI    C3 3347   7.595   3.863  11.263  0.2045  0.1454  0.0004
  210loPI   PO4 3348   7.717   3.694  10.675 -0.0559  0.1126  0.1496
  210loPI   GL1 3349   7.771   3.454  10.426  0.2093 -0.1131  0.0227
  210loPI   GL2 3350   8.133   3.588  10.382 -0.0919  0.0298  0.1199
  210loPI   C1A 3351   7.621   3.408  10.034 -0.0336  0.6195 -0.0476
  210loPI   C2A 3352   7.661   3.330   9.628 -0.0660 -0.1092  0.0402
  210loPI   C3A 3353   7.845   3.252   9.276  0.0979 -0.0211 -0.0056
  210loPI   C4A 3354   7.988   3.129   8.942 -0.1268  0.0285 -0.0400
  210loPI   C5A 3355   8.166   3.077   8.560 -0.0617  0.2083  0.0804
  210loPI   C6A 3356   8.144   3.104   8.179  0.0823  0.0893 -0.2163
  210loPI   C1B 3357   8.113   3.582   9.965  0.1295  0.3281 -0.0758
  210loPI   C2B 3358   8.181   3.596   9.520 -0.1538  0.1519 -0.2145
  210loPI   C3B 3359   8.310   3.410   9.137 -0.0134  0.2888  0.0120
  210loPI   C4B 3360   8.540   3.226   8.854 -0.0323 -0.1916  0.2716
  211loPI    C1 3361   3.299  16.116  10.843 -0.0148 -0.0821 -0.0122
  211loPI    C2 3362   3.456  16.381  11.098 -0.0717 -0.1904  0.1371
  211loPI    C3 3363   3.059  16.364  11.045 -0.0496 -0.0564 -0.0845
  211loPI   PO4 3364   3.372  16.152  10.611 -0.2660  0.0969  0.0956
  211loPI   GL1 3365   3.387  16.366  10.251  0.2370 -0.2443 -0.0409
  211loPI   GL2 3366   3.646  16.467  10.317 -0.2038  0.2070  0.1015
  211loPI   C1A 3367   3.370  16.232   9.888 -0.0819 -0.1918 -0.2150
  211loPI   C2A 3368   3.505  16.452   9.524  0.0775 -0.1711 -0.0183
  211loPI   C3A 3369   3.552  16.441   9.097 -0.1004 -0.0791  0.0123
  211loPI   C4A 3370   3.676  16.403   8.646  0.1729  0.2079 -0.0263
  211loPI   C5A 3371   3.412  16.354   8.264 -0.0553  0.1858  0.6007
  211loPI   C6A 3372   3.137  16.577   8.125  0.0047 -0.0338 -0.0331
  211loPI   C1B 3373   3.769  16.639   9.947  0.1129  0.2333  0.1284
  211loPI   C2B 3374   3.488  16.855   9.772  0.0448 -0.1926 -0.3072
  211loPI   C3B 3375   3.288  16.915   9.375 -0.3980 -0.4707  0.0139
  211loPI   C4B 3376   3.410  16.968   8.998  0.0295  0.0223 -0.0727
  212loPI    C1 3377   9.409  13.732  10.921 -0.0710 -0.3434  0.0870
  212loPI    C2 3378   9.224  13.547  11.224 -0.1852  0.0771  0.2817
  212loPI    C3 3379   9.034  13.833  11.018 -0.0337 -0.0590 -0.0548
  212loPI   PO4 3380   9.584  13.591  10.843 -0.1120  0.1541  0.0956
  212loPI   GL1 3381   9.582  13.434  10.483 -0.2665  0.1348  0.4940
  212loPI   GL2 3382   9.397  13.199  10.236  0.2949  0.1619 -0.0312
  212loPI   C1A 3383   9.720  13.523  10.065 -0.3086 -0.0699  0.0511
  212loPI   C2A 3384   9.816  13.531   9.635 -0.3106  0.3129 -0.0779
  212loPI   C3A 3385   9.680  13.595   9.164 -0.0998 -0.1080 -0.2589
  212loPI   C4A 3386   9.578  13.462   8.777  0.1040 -0.0214 -0.0487
  212loPI   C5A 3387   9.386  13.046   8.529 -0.1302 -0.0335 -0.1535
  212loPI   C6A 3388   9.558  12.651   8.291 -0.1707  0.2682  0.0935
  212loPI   C1B 3389   9.458  13.191   9.842  0.2592 -0.1529  0.0482
  212loPI   C2B 3390   9.471  13.248   9.416  0.0271  0.1743 -0.1338
  212loPI   C3B 3391   9.283  13.061   9.008  0.2079  0.0814 -0.1279
  212loPI   C4B 3392   9.130  12.697   8.709  0.2084  0.0857  0.1560
  213loPI    C1 3393   8.951  16.095  10.810 -0.1244 -0.1140  0.2086
  213loPI    C2 3394   9.150  15.751  10.757 -0.0414 -0.0215 -0.0993
  213loPI    C3 3395   9.119  15.910  11.122 -0.0233 -0.3209  0.0351
  213loPI   PO4 3396   8.955  16.248  10.615  0.0178 -0.1929 -0.1320
  213loPI   GL1 3397   8.753  16.245  10.221 -0.2165 -0.2494 -0.1434
  213loPI   GL2 3398   8.777  16.667  10.240  0.0313  0.1853  0.0411
  213loPI   C1A 3399   8.647  16.359   9.828 -0.2495  0.1508 -0.1061
  213loPI   C2A 3400   8.208  16.622   9.689  0.1103 -0.2134  0.2631
  213loPI   C3A 3401   7.843  16.864   9.433 -0.3454  0.0071 -0.0638
  213loPI   C4A 3402   7.711  16.937   9.047  0.0416 -0.1254  0.0763
  213loPI   C5A 3403   7.601  16.653   8.797  0.2396  0.1754 -0.6208
  213loPI   C6A 3404   7.286  16.678   8.537 -0.1176  0.1717  0.1965
  213loPI   C1B 3405   8.612  16.914   9.970  0.0358 -0.1286 -0.0279
  213loPI   C2B 3406   8.609  16.818   9.546 -0.4647  0.1183 -0.0937
  213loPI   C3B 3407   8.304  16.744   9.196 -0.1470 -0.1293  0.2635
  213loPI   C4B 3408   7.951  16.457   9.146  0.0841 -0.2362  0.1062
  214loPI    C1 3409  15.976   8.544  11.036 -0.0320  0.1712  0.0297
  214loPI    C2 3410  15.897   8.928  11.113  0.0340  0.1878  0.0158
  214loPI    C3 3411  16.143   8.723  11.353 -0.0605  0.1330  0.0665
  214loPI   PO4 3412  16.022   8.527  10.823 -0.1419 -0.2487  0.0062
  214loPI   GL1 3413  16.142   8.547  10.435  0.0408  0.0563  0.0917
  214loPI   GL2 3414  16.446   8.646  10.489  0.0153 -0.2444 -0.2024
  214loPI   C1A 3415  15.993   8.327  10.006  0.0928 -0.2201  0.1809
  214loPI   C2A 3416  15.940   8.387   9.512  0.0490 -0.1411  0.1871
  214loPI   C3A 3417  15.712   8.491   9.152 -0.1105  0.1270  0.2233
  214loPI   C4A 3418  15.644   8.697   8.735 -0.4911  0.1307 -0.1204
  214loPI   C5A 3419  15.932   9.031   8.586  0.1446  0.1069  0.4542
  214loPI   C6A 3420  16.225   8.920   8.344 -0.2793  0.0099 -0.2313
  214loPI   C1B 3421  16.438   8.660  10.019  0.3544  0.1694  0.2016
  214loPI   C2B 3422  16.441   8.656   9.549  0.2828  0.2445 -0.0679
  214loPI   C3B 3423  16.662   8.613   9.173 -0.0341 -0.2757 -0.0514
  214loPI   C4B 3424  16.855   8.288   8.840 -0.1201 -0.0919 -0.2401
  215loPI    C1 3425  13.663  14.420  11.284  0.0634  0.0675 -0.1258
  215loPI    C2 3426  13.534  14.655  11.581  0.2336  0.0181 -0.0110
  215loPI    C3 3427  13.398  14.280  11.550  0.1663  0.0443 -0.0347
  215loPI   PO4 3428  13.624  14.530  11.075  0.2546 -0.4763 -0.2019
  215loPI   GL1 3429  13.310  14.525  10.748 -0.1754  0.1330 -0.0992
  215loPI   GL2 3430  13.030  14.307  10.681 -0.1618  0.1042  0.2310
  215loPI   C1A 3431  13.515  14.542  10.295  0.1847  0.0001 -0.2283
  215loPI   C2A 3432  13.370  14.438   9.905  0.0747 -0.0410  0.2399
  215loPI   C3A 3433  13.318  14.434   9.545 -0.0054  0.0523 -0.2237
  215loPI   C4A 3434  13.456  14.297   9.227 -0.0094  0.2480  0.1636
  215loPI   C5A 3435  13.460  14.297   8.801  0.2372  0.1063  0.1533
  215loPI   C6A 3436  13.173  14.252   8.516  0.1263  0.1732 -0.1596
  215loPI   C1B 3437  12.982  14.319  10.210 -0.2232  0.0586  0.0206
  215loPI   C2B 3438  12.838  14.381   9.838 -0.1782 -0.0445 -0.1666
  215loPI   C3B 3439  12.887  14.414   9.439  0.0203  0.2045 -0.1033
  215loPI   C4B 3440  12.987  14.425   8.955 -0.0898  0.2751 -0.0133
  216loPI    C1 3441   4.984  16.628  10.902 -0.0972  0.0755 -0.0069
  216loPI    C2 3442   4.676  16.858  10.790 -0.1716  0.0309  0.1048
  216loPI    C3 3443   4.866  16.932  11.134 -0.0136  0.1002  0.0033
  216loPI   PO4 3444   4.859  16.346  10.865 -0.3384  0.0232 -0.2325
  216loPI   GL1 3445   4.679  16.390  10.508 -0.0354  0.0212 -0.0503
  216loPI   GL2 3446   4.664  16.029  10.461  0.0249 -0.1264 -0.1004
  216loPI   C1A 3447   4.611  16.833  10.287  0.0875  0.0498 -0.5601
  216loPI   C2A 3448   4.512  16.976   9.921 -0.1683  0.3111  0.1607
  216loPI   C3A 3449   4.354  17.400   9.672 -0.2175  0.1927  0.2537
  216loPI   C4A 3450   4.335  17.413   9.252 -0.0163  0.2045  0.1560
  216loPI   C5A 3451   4.593  17.574   9.098  0.1261  0.1076 -0.2549
  216loPI   C6A 3452   4.522  17.628   8.715 -0.1488 -0.3896 -0.4337
  216loPI   C1B 3453   4.356  16.027  10.109 -0.0165  0.1793 -0.0192
  216loPI   C2B 3454   4.314  16.084   9.667 -0.2138 -0.0955 -0.0701
  216loPI   C3B 3455   4.436  16.063   9.203  0.1223  0.0977  0.4071
  216loPI   C4B 3456   4.438  16.012   8.892 -0.0075 -0.1460 -0.2084
  217loPI    C1 3457   3.504  12.599  10.869  0.0542 -0.2586 -0.0516
  217loPI    C2 3458   3.592  12.604  11.259 -0.0044  0.0348 -0.0402
  217loPI    C3 3459   3.373  12.306  11.107 -0.2570  0.0869  0.2137
  217loPI   PO4 3460   3.436  12.895  10.808  0.1952  0.0701  0.0688
  217loPI   GL1 3461   3.272  13.146  10.474 -0.0694  0.1956  0.4009
  217loPI   GL2 3462   3.430  13.284  10.497  0.2701  0.1796 -0.2793
  217loPI   C1A 3463   3.115  13.044  10.151 -0.2564  0.0062  0.0604
  217loPI   C2A 3464   3.048  13.132   9.739  0.0522  0.1331  0.2135
  217loPI   C3A 3465   3.162  13.080   9.284 -0.2281 -0.3550 -0.4474
  217loPI   C4A 3466   3.018  12.957   8.887  0.1630  0.0291  0.0940
  217loPI   C5A 3467   2.763  13.022   8.521 -0.1181  0.0737  0.2091
  217loPI   C6A 3468   2.597  12.698   8.188 -0.1222 -0.3681  0.0635
  217loPI   C1B 3469   3.410  13.484  10.128 -0.0483  0.1233 -0.1265
  217loPI   C2B 3470   3.386  13.516   9.668  0.0029 -0.0456  0.1232
  217loPI   C3B 3471   3.220  13.982   9.423 -0.0960 -0.0446 -0.1945
  217loPI   C4B 3472   3.280  14.064   8.922 -0.2664 -0.3539 -0.0036
  218loPI    C1 3473  16.654  11.526  10.735  0.1934  0.0258  0.0481
  218loPI    C2 3474  16.752  11.289  11.042  0.0527  0.0217  0.0907
  218loPI    C3 3475  16.384  11.272  10.886  0.1472 -0.0332 -0.1310
  218loPI   PO4 3476  16.799  11.468  10.540 -0.0814  0.0870  0.3061
  218loPI   GL1 3477  16.964  11.349  10.098  0.0103 -0.1264 -0.2010
  218loPI   GL2 3478  17.185  11.230  10.294  0.2033 -0.2394  0.0253
  218loPI   C1A 3479  17.062  11.430   9.702  0.1812 -0.3605 -0.0064
  218loPI   C2A 3480  17.153  11.384   9.306  0.0582 -0.2037 -0.0736
  218loPI   C3A 3481  17.040  11.332   8.877 -0.0689 -0.0178 -0.1826
  218loPI   C4A 3482  17.037  11.433   8.421 -0.0941 -0.2521  0.3337
  218loPI   C5A 3483  16.800  11.601   8.113 -0.4119 -0.1932  0.1667
  218loPI   C6A 3484  16.516  11.734   7.810 -0.1550 -0.2261 -0.2460
  218loPI   C1B 3485  17.150  10.939   9.943  0.1225  0.1038 -0.1327
  218loPI   C2B 3486  17.168  10.919   9.484 -0.1261  0.2654 -0.1001
  218loPI   C3B 3487  17.186  10.870   9.024  0.0362 -0.1352 -0.0829
  218loPI   C4B 3488  17.122  10.809   8.587  0.0740  0.1133  0.1657
  219loPI    C1 3489  12.806  11.520  11.067 -0.2861 -0.0215  0.0294
  219loPI    C2 3490  12.770  11.151  11.218 -0.0999 -0.0324  0.0494
  219loPI    C3 3491  13.095  11.369  11.298 -0.1658  0.1003 -0.0406
  219loPI   PO4 3492  12.660  11.418  10.805  0.1421 -0.0738  0.0940
  219loPI   GL1 3493  12.591  11.104  10.568  0.2473  0.0115 -0.0135
  219loPI   GL2 3494  12.605  10.827  10.668  0.1228  0.1150  0.0410
  219loPI   C1A 3495  12.530  11.279  10.203  0.1403 -0.0248  0.0908
  219loPI   C2A 3496  12.564  11.203   9.754 -0.1666 -0.0937  0.0385
  219loPI   C3A 3497  12.601  11.318   9.269 -0.0162 -0.1185 -0.1462
  219loPI   C4A 3498  12.686  11.375   8.871 -0.0596  0.0846  0.1819
  219loPI   C5A 3499  12.585  11.546   8.374 -0.2277 -0.0205 -0.1748
  219loPI   C6A 3500  12.843  11.794   8.146 -0.0055 -0.2314  0.1159
  219loPI   C1B 3501  12.888  10.786  10.320 -0.1105  0.4099  0.1725
  219loPI   C2B 3502  12.931  10.854   9.883 -0.0565  0.2894  0.2658
  219loPI   C3B 3503  12.826  10.928   9.466 -0.1685 -0.1911 -0.3678
  219loPI   C4B 3504  12.793  10.962   9.046 -0.0054 -0.2854 -0.0856
  220loPI    C1 3505  16.718   9.957  10.756  0.1238  0.0845  0.1123
  220loPI    C2 3506  16.700   9.639  10.997  0.1293  0.0409  0.0556
  220loPI    C3 3507  16.381   9.876  10.955  0.1524  0.0918  0.1638
  220loPI   PO4 3508  16.773   9.926  10.558 -0.0087  0.1577  0.0605
  220loPI   GL1 3509  16.549   9.820  10.166 -0.0297  0.2713  0.1083
  220loPI   GL2 3510  16.210   9.757  10.044 -0.0216  0.0463 -0.1028
  220loPI   C1A 3511  16.467  10.042   9.664 -0.0684 -0.0799  0.1903
  220loPI   C2A 3512  16.456  10.156   9.313 -0.0325 -0.1516 -0.1055
  220loPI   C3A 3513  16.302  10.561   9.198 -0.1188 -0.1518  0.0748
  220loPI   C4A 3514  16.227  10.743   8.697  0.0656 -0.1188  0.2078
  220loPI   C5A 3515  16.569  10.645   8.391 -0.0052  0.0691 -0.0329
  220loPI   C6A 3516  16.902  10.555   8.070  0.0394 -0.2381 -0.2221
  220loPI   C1B 3517  16.137   9.568   9.706  0.3926  0.2599  0.2415
  220loPI   C2B 3518  16.292   9.683   9.362  0.0517  0.0774  0.0396
  220loPI   C3B 3519  16.287   9.892   8.949 -0.2008  0.1779 -0.3595
  220loPI   C4B 3520  16.392  10.221   8.694  0.3043  0.1167  0.0909
  221loPI    C1 3521   7.361   4.676  10.949 -0.0729  0.1247 -0.0132
  221loPI    C2 3522   7.180   4.718  11.304 -0.3062  0.0777 -0.1248
  221loPI    C3 3523   7.369   4.377  11.215  0.1064  0.2371  0.1106
  221loPI   PO4 3524   7.587   5.003  10.877  0.0257 -0.0333 -0.3346
  221loPI   GL1 3525   7.714   5.100  10.497  0.2832  0.0151  0.1907
  221loPI   GL2 3526   8.025   4.995  10.291  0.1317 -0.3066 -0.0725
  221loPI   C1A 3527   7.619   4.928  10.059  0.0983 -0.0816 -0.2627
  221loPI   C2A 3528   7.538   4.976   9.588 -0.3153  0.2318  0.2627
  221loPI   C3A 3529   7.621   4.971   9.174 -0.1593 -0.1711  0.0647
  221loPI   C4A 3530   7.983   5.019   8.915 -0.1764  0.2370 -0.1938
  221loPI   C5A 3531   8.062   4.884   8.478 -0.3152 -0.4366  0.0907
  221loPI   C6A 3532   7.891   4.727   8.186 -0.1995 -0.1328  0.3471
  221loPI   C1B 3533   8.068   4.877   9.822 -0.4696 -0.1655 -0.2278
  221loPI   C2B 3534   8.092   4.717   9.314 -0.1132 -0.0760 -0.1173
  221loPI   C3B 3535   8.085   4.468   8.938 -0.1394 -0.0275 -0.0576
  221loPI   C4B 3536   7.858   4.411   8.584 -0.1901 -0.1641  0.0748
  222loPI    C1 3537  10.968  11.631  11.379  0.1126 -0.1327  0.1327
  222loPI    C2 3538  10.710  11.361  11.523  0.0854 -0.1266  0.0955
  222loPI    C3 3539  11.102  11.323  11.596  0.1006 -0.2733 -0.0571
  222loPI   PO4 3540  10.929  11.580  11.087  0.1547 -0.2161  0.0049
  222loPI   GL1 3541  10.795  11.621  10.669 -0.0554  0.0514 -0.2427
  222loPI   GL2 3542  10.504  11.618  10.486  0.0529 -0.2094 -0.2266
  222loPI   C1A 3543  10.993  11.502  10.319 -0.2992 -0.2559  0.1559
  222loPI   C2A 3544  10.939  11.500   9.905  0.1571 -0.0259  0.0768
  222loPI   C3A 3545  11.070  11.403   9.584  0.1646 -0.0803 -0.1895
  222loPI   C4A 3546  11.097  11.447   9.214  0.3463  0.2431 -0.0647
  222loPI   C5A 3547  10.974  11.381   8.865  0.2045  0.0712 -0.0975
  222loPI   C6A 3548  10.973  10.966   8.718  0.1739 -0.2645  0.1331
  222loPI   C1B 3549  10.391  11.530  10.073  0.0792 -0.0780 -0.0657
  222loPI   C2B 3550  10.499  11.540   9.653  0.2263  0.1238 -0.0305
  222loPI   C3B 3551  10.525  11.481   9.329  0.1141  0.1279  0.1813
  222loPI   C4B 3552  10.407  11.516   8.999 -0.0268  0.2750  0.0772
  223loPI    C1 3553   1.106   0.351  11.191  0.0001 -0.0181 -0.0056
  223loPI    C2 3554   1.002   0.284  11.571  0.2225 -0.0116  0.0580
  223loPI    C3 3555   1.353   0.456  11.488  0.1150  0.1129 -0.1457
  223loPI   PO4 3556   0.877   0.337  11.029  0.2607  0.0434 -0.0403
  223loPI   GL1 3557   0.666   0.471  10.651 -0.0267  0.0277  0.1467
  223loPI   GL2 3558   0.619   0.737  10.522 -0.0778 -0.0720 -0.0671
  223loPI   C1A 3559   0.588   0.258  10.232  0.0185 -0.0545 -0.1161
  223loPI   C2A 3560   0.471   0.335   9.895 -0.0743  0.1092  0.0272
  223loPI   C3A 3561   0.376   0.426   9.567  0.1249 -0.0604 -0.1734
  223loPI   C4A 3562   0.390   0.352   9.225  0.0622  0.1356 -0.0494
  223loPI   C5A 3563   0.336   0.358   8.828  0.1219  0.0935 -0.1021
  223loPI   C6A 3564   0.179   0.312   8.447  0.1540 -0.0007 -0.1858
  223loPI   C1B 3565   0.401   0.775  10.114 -0.2202  0.0546 -0.0689
  223loPI   C2B 3566   0.345   0.894   9.734 -0.1052 -0.1443 -0.0969
  223loPI   C3B 3567   0.167   1.163   9.357 -0.0263 -0.0291  0.0352
  223loPI   C4B 3568   0.272   1.301   8.988  0.0454 -0.0915 -0.0632
  224loPI    C1 3569   5.765  17.265  11.089 -0.3292  0.2022 -0.0235
  224loPI    C2 3570   5.814  17.621  11.264 -0.1704  0.1420  0.0566
  224loPI    C3 3571   6.058  17.317  11.357 -0.2072  0.0556 -0.1262
  224loPI   PO4 3572   5.801  17.252  10.782 -0.0097 -0.2106 -0.2577
  224loPI   GL1 3573   5.900  17.569  10.493 -0.1074  0.0956 -0.3931
  224loPI   GL2 3574   5.906  17.791  10.445 -0.0215  0.2819  0.2270
  224loPI   C1A 3575   5.811  17.361  10.147 -0.1330  0.0243 -0.0978
  224loPI   C2A 3576   5.882  17.407   9.710  0.1373 -0.1041 -0.1770
  224loPI   C3A 3577   5.852  17.477   9.380 -0.0461 -0.0685 -0.0509
  224loPI   C4A 3578   6.199  17.328   9.217 -0.0962 -0.0780 -0.2754
  224loPI   C5A 3579   6.246  17.013   8.924  0.3769  0.1313 -0.0165
  224loPI   C6A 3580   6.072  16.794   8.561  0.0119  0.1041  0.0852
  224loPI   C1B 3581   5.826  17.839  10.026  0.0040 -0.0428  0.1844
  224loPI   C2B 3582   5.765  17.919   9.704 -0.1150 -0.2617 -0.2071
  224loPI   C3B 3583   5.822  18.132   9.374  0.0821  0.0317  0.0364
  224loPI   C4B 3584   6.063  17.791   9.031 -0.3306 -0.0040  0.0312
  225loPI    C1 3585   1.961  15.249  10.805 -0.2073  0.2563  0.0493
  225loPI    C2 3586   2.341  15.367  10.764 -0.1057 -0.0581  0.0585
  225loPI    C3 3587   2.214  15.220  11.114 -0.1276 -0.3222 -0.0574
  225loPI   PO4 3588   1.935  15.152  10.574  0.2847 -0.1397 -0.0760
  225loPI   GL1 3589   1.767  14.917  10.356  0.0236 -0.0576 -0.1660
  225loPI   GL2 3590   2.075  14.669  10.290  0.0179 -0.1308  0.0244
  225loPI   C1A 3591   1.636  14.933   9.857  0.0196  0.0994 -0.2320
  225loPI   C2A 3592   1.714  15.079   9.447  0.2240  0.2772 -0.1863
  225loPI   C3A 3593   1.844  15.208   9.020  0.2816  0.1104 -0.0181
  225loPI   C4A 3594   2.070  15.551   8.813  0.1549 -0.3297 -0.0281
  225loPI   C5A 3595   2.346  15.678   8.426  0.1533  0.0556  0.3523
  225loPI   C6A 3596   2.501  15.973   8.164  0.1525  0.0814 -0.0269
  225loPI   C1B 3597   2.146  14.733   9.828 -0.0640  0.3413  0.0140
  225loPI   C2B 3598   2.180  14.864   9.435  0.0764 -0.2442  0.1145
  225loPI   C3B 3599   2.269  14.809   8.924  0.0742  0.0581  0.1570
  225loPI   C4B 3600   2.284  14.455   8.699 -0.0027  0.1214 -0.0726
  226loPI    C1 3601   8.257   0.632  10.941 -0.1367 -0.0572 -0.0535
  226loPI    C2 3602   8.191   0.750  11.318 -0.0244 -0.1083 -0.0173
  226loPI    C3 3603   8.320   0.379  11.244 -0.2144 -0.1558 -0.1191
  226loPI   PO4 3604   7.942   0.691  10.801 -0.1687  0.0160 -0.1386
  226loPI   GL1 3605   7.546   0.796  10.453 -0.0065  0.1659 -0.3802
  226loPI   GL2 3606   7.742   1.064  10.516  0.1049  0.2352 -0.2887
  226loPI   C1A 3607   7.513   0.781  10.036 -0.1087 -0.1249 -0.4342
  226loPI   C2A 3608   7.512   0.893   9.587  0.0363  0.3709  0.3276
  226loPI   C3A 3609   7.570   0.928   9.205 -0.0938  0.1832  0.0255
  226loPI   C4A 3610   7.722   0.967   8.801  0.2057  0.0075  0.0478
  226loPI   C5A 3611   7.902   0.957   8.515 -0.1011 -0.0941  0.1479
  226loPI   C6A 3612   8.312   0.995   8.332 -0.2389  0.1494 -0.2190
  226loPI   C1B 3613   7.935   1.049  10.116 -0.0790 -0.2418 -0.0774
  226loPI   C2B 3614   7.998   0.901   9.645 -0.0635 -0.2239 -0.1669
  226loPI   C3B 3615   8.101   0.944   9.230  0.1139  0.0495 -0.0415
  226loPI   C4B 3616   8.276   0.942   8.858 -0.1182 -0.2183 -0.0007
  227loPI    C1 3617  12.986   5.312  11.165  0.0900  0.0133  0.0914
  227loPI    C2 3618  12.974   5.711  11.145  0.1760  0.0138  0.0418
  227loPI    C3 3619  12.681   5.510  11.329  0.2201  0.1100  0.2196
  227loPI   PO4 3620  13.017   5.302  10.900  0.2580 -0.0510  0.0113
  227loPI   GL1 3621  13.073   5.149  10.474 -0.0485  0.0799  0.0815
  227loPI   GL2 3622  13.379   5.363  10.414 -0.0039  0.0301 -0.2430
  227loPI   C1A 3623  12.987   5.227  10.084 -0.1153  0.0093  0.0453
  227loPI   C2A 3624  12.838   5.298   9.686  0.2143 -0.3796  0.3196
  227loPI   C3A 3625  12.868   5.225   9.207  0.1512 -0.1137 -0.0339
  227loPI   C4A 3626  12.870   5.288   8.809 -0.0644 -0.0179 -0.0125
  227loPI   C5A 3627  13.115   5.040   8.567 -0.0394 -0.3736  0.1903
  227loPI   C6A 3628  13.186   5.066   8.172 -0.3220 -0.0029  0.1490
  227loPI   C1B 3629  13.294   5.560   9.988 -0.4317 -0.3674 -0.1548
  227loPI   C2B 3630  13.310   5.594   9.536 -0.0603  0.4210  0.2813
  227loPI   C3B 3631  13.391   5.570   9.100 -0.0711 -0.0363 -0.1090
  227loPI   C4B 3632  13.352   5.484   8.701  0.2385  0.0195  0.2987
  228loPI    C1 3633  17.679   7.132  10.995  0.1438  0.1323 -0.0970
  228loPI    C2 3634  17.387   7.101  11.266  0.0052 -0.2302 -0.2813
  228loPI    C3 3635  17.418   7.431  11.043  0.0195  0.0014  0.0547
  228loPI   PO4 3636  17.639   6.905  10.837  0.0813 -0.2454  0.1656
  228loPI   GL1 3637  17.485   6.853  10.444  0.2168 -0.2112 -0.1142
  228loPI   GL2 3638  17.289   6.616  10.303  0.1386 -0.0227 -0.0318
  228loPI   C1A 3639  17.514   7.215  10.091  0.0658 -0.1770 -0.0770
  228loPI   C2A 3640  17.569   7.134   9.574  0.0465  0.0797  0.0751
  228loPI   C3A 3641  17.712   7.145   9.148 -0.2360  0.1397 -0.0231
  228loPI   C4A 3642  17.830   7.105   8.734  0.0652  0.0629  0.1747
  228loPI   C5A 3643  17.849   7.062   8.354  0.3758 -0.2040  0.1166
  228loPI   C6A 3644  17.557   7.143   8.073  0.2842 -0.2557  0.1483
  228loPI   C1B 3645  17.520   6.721   9.888 -0.2313  0.0072 -0.0498
  228loPI   C2B 3646  17.600   6.630   9.435  0.2923 -0.2937 -0.1690
  228loPI   C3B 3647  17.649   6.691   8.994 -0.0510  0.1799  0.2408
  228loPI   C4B 3648  17.428   6.912   8.674  0.0487 -0.0149 -0.3743
  229loPI    C1 3649  16.132   6.424  10.625  0.3124  0.2310  0.1776
  229loPI    C2 3650  16.156   6.297  11.004 -0.0450 -0.1355  0.0839
  229loPI    C3 3651  15.807   6.429  10.859  0.0595 -0.1136 -0.1530
  229loPI   PO4 3652  16.425   6.608  10.630  0.1102  0.1409 -0.1562
  229loPI   GL1 3653  16.670   6.735  10.204  0.1136  0.0085 -0.0490
  229loPI   GL2 3654  16.470   6.489  10.092  0.2748  0.2394 -0.3343
  229loPI   C1A 3655  16.482   7.044   9.940 -0.1672  0.3137 -0.1220
  229loPI   C2A 3656  16.275   6.925   9.627 -0.0235 -0.0878  0.0090
  229loPI   C3A 3657  16.247   6.706   9.220  0.0706 -0.0751  0.2625
  229loPI   C4A 3658  16.028   6.815   8.808 -0.1793 -0.2522 -0.0950
  229loPI   C5A 3659  15.739   7.063   8.717  0.0519 -0.0248 -0.1475
  229loPI   C6A 3660  15.295   7.018   8.757  0.2168 -0.1552  0.0513
  229loPI   C1B 3661  16.587   6.589   9.743  0.1022  0.1035 -0.0145
  229loPI   C2B 3662  16.734   6.678   9.246  0.4235  0.2112 -0.3339
  229loPI   C3B 3663  16.514   6.654   8.834 -0.1235  0.0884  0.1439
  229loPI   C4B 3664  16.519   6.964   8.498  0.0266  0.3062  0.1256
  230loPI    C1 3665   1.673   2.552  11.481 -0.0564  0.2099 -0.2346
  230loPI    C2 3666   1.715   2.892  11.687  0.2017  0.0907 -0.0847
  230loPI    C3 3667   1.837   2.546  11.846 -0.0433 -0.0714 -0.2426
  230loPI   PO4 3668   1.618   2.624  11.286  0.1552  0.0417 -0.0630
  230loPI   GL1 3669   1.574   2.415  10.855 -0.0761  0.3854  0.1035
  230loPI   GL2 3670   1.779   2.725  10.681  0.0567  0.3568  0.1922
  230loPI   C1A 3671   1.526   2.396  10.413 -0.0149  0.0292 -0.3454
  230loPI   C2A 3672   1.148   2.292  10.172 -0.3178  0.1471  0.0902
  230loPI   C3A 3673   0.914   2.401   9.772 -0.0699  0.1070  0.2493
  230loPI   C4A 3674   0.906   2.585   9.355 -0.0906 -0.2317  0.0040
  230loPI   C5A 3675   0.893   2.649   8.836 -0.1320  0.0285  0.1283
  230loPI   C6A 3676   0.565   2.866   8.604 -0.0403 -0.0885  0.1858
  230loPI   C1B 3677   1.390   2.892  10.622  0.3817  0.1279  0.1638
  230loPI   C2B 3678   1.303   3.231  10.223 -0.1914  0.3620  0.0621
  230loPI   C3B 3679   1.167   3.178   9.791 -0.0616 -0.1215  0.0644
  230loPI   C4B 3680   1.114   2.896   9.665  0.0825  0.1620 -0.0731
  231loPI    C1 3681  12.968   2.365  11.203 -0.2021 -0.0014 -0.1421
  231loPI    C2 3682  12.634   2.281  11.406 -0.0452 -0.1759  0.0487
  231loPI    C3 3683  12.976   2.096  11.499  0.1923  0.2814  0.1156
  231loPI   PO4 3684  12.889   2.260  10.911  0.1495 -0.2462 -0.0035
  231loPI   GL1 3685  12.971   1.898  10.624  0.1277  0.0619  0.2307
  231loPI   GL2 3686  12.628   1.725  10.561  0.0772  0.1125  0.4083
  231loPI   C1A 3687  13.045   1.477  10.409 -0.2801  0.0089  0.0843
  231loPI   C2A 3688  13.093   1.504   9.890 -0.2238 -0.1713  0.0455
  231loPI   C3A 3689  13.291   1.756   9.538  0.1020 -0.2438 -0.2684
  231loPI   C4A 3690  13.250   1.572   9.041 -0.0221 -0.2183  0.0025
  231loPI   C5A 3691  13.254   1.310   8.677  0.0378  0.2666 -0.1258
  231loPI   C6A 3692  13.436   1.274   8.231  0.0892 -0.1182  0.0021
  231loPI   C1B 3693  12.730   1.809  10.201 -0.4403  0.3115 -0.0331
  231loPI   C2B 3694  12.784   1.830   9.655  0.2839 -0.2629 -0.0042
  231loPI   C3B 3695  12.793   1.681   9.199  0.0505 -0.2526 -0.1798
  231loPI   C4B 3696  12.858   1.668   8.717  0.0557 -0.0379  0.3065
  232loPI    C1 3697  13.144   4.666  11.089  0.3129 -0.0654  0.0653
  232loPI    C2 3698  13.296   4.979  11.287  0.2540 -0.1005  0.1667
  232loPI    C3 3699  13.080   4.704  11.482  0.1246 -0.0915  0.0380
  232loPI   PO4 3700  13.287   4.635  10.867 -0.3725 -0.1085  0.0552
  232loPI   GL1 3701  13.218   4.278  10.525 -0.4009  0.1229 -0.0300
  232loPI   GL2 3702  13.496   4.332  10.371  0.1742 -0.0644 -0.1539
  232loPI   C1A 3703  13.071   4.587  10.255  0.0219 -0.1601  0.1184
  232loPI   C2A 3704  12.884   4.719   9.855 -0.2500 -0.0373 -0.1133
  232loPI   C3A 3705  12.967   4.701   9.418 -0.0777 -0.1720 -0.0474
  232loPI   C4A 3706  13.036   4.784   9.072  0.2986  0.2414  0.4044
  232loPI   C5A 3707  12.869   4.613   8.767  0.1412 -0.2465  0.1727
  232loPI   C6A 3708  12.552   4.665   8.450  0.0279  0.0478  0.0175
  232loPI   C1B 3709  13.470   4.461   9.972 -0.0571  0.0430  0.2792
  232loPI   C2B 3710  13.420   4.624   9.639 -0.3009  0.0596  0.2072
  232loPI   C3B 3711  13.486   4.667   9.161 -0.0596  0.0235  0.1687
  232loPI   C4B 3712  13.465   4.684   8.738 -0.2116 -0.1710 -0.0265
  233loPI    C1 3713   0.710  13.532  10.500  0.1167  0.0367  0.0520
  233loPI    C2 3714   0.624  13.892  10.349  0.1083  0.0027 -0.0241
  233loPI    C3 3715   0.675  13.849  10.743 -0.1367  0.0403  0.0134
  233loPI   PO4 3716   0.771  13.373  10.172 -0.1239  0.0101 -0.0366
  233loPI   GL1 3717   1.068  13.245   9.976  0.0490 -0.1268  0.3129
  233loPI   GL2 3718   0.927  13.443   9.716  0.1293 -0.0459  0.0051
  233loPI   C1A 3719   1.108  12.945   9.750  0.2311 -0.3039 -0.0884
  233loPI   C2A 3720   1.063  12.851   9.333  0.2620  0.0808  0.1092
  233loPI   C3A 3721   0.973  12.808   8.940  0.0134  0.0854 -0.1839
  233loPI   C4A 3722   0.991  13.066   8.607 -0.0305  0.2088 -0.4163
  233loPI   C5A 3723   0.759  13.311   8.317  0.0935 -0.2641 -0.0740
  233loPI   C6A 3724   0.437  13.580   8.122  0.1002  0.2952  0.0621
  233loPI   C1B 3725   1.235  13.379   9.394  0.0435 -0.3188  0.0260
  233loPI   C2B 3726   1.104  13.493   8.995  0.1783  0.0765 -0.1699
  233loPI   C3B 3727   1.287  13.455   8.507 -0.2070 -0.2569  0.1328
  233loPI   C4B 3728   1.531  13.461   8.259 -0.1047 -0.0646 -0.0920
  234loPI    C1 3729   1.575  12.549  10.794  0.2900  0.2704  0.0322
  234loPI    C2 3730   1.513  12.750  11.135 -0.0948  0.0302  0.1095
  234loPI    C3 3731   1.622  12.365  11.146 -0.0274  0.0443 -0.0388
  234loPI   PO4 3732   1.412  12.714  10.675  0.2126  0.4144 -0.2663
  234loPI   GL1 3733   1.538  12.917  10.336  0.2641 -0.2535 -0.0758
  234loPI   GL2 3734   1.573  13.067  10.137  0.0965  0.2776  0.0475
  234loPI   C1A 3735   1.536  12.801   9.749  0.1703 -0.0413 -0.0466
  234loPI   C2A 3736   1.546  12.986   9.371  0.2433  0.0344  0.0661
  234loPI   C3A 3737   1.460  13.016   8.958 -0.1168  0.0101  0.0006
  234loPI   C4A 3738   1.639  13.062   8.641  0.3918 -0.0797 -0.0657
  234loPI   C5A 3739   1.944  13.268   8.499 -0.1432 -0.0712 -0.0444
  234loPI   C6A 3740   1.998  13.438   8.020 -0.0112 -0.0828  0.1361
  234loPI   C1B 3741   1.662  13.291   9.748  0.2882 -0.2202 -0.0616
  234loPI   C2B 3742   1.742  13.467   9.315  0.1943  0.1173  0.0191
  234loPI   C3B 3743   1.619  13.498   8.890 -0.0914 -0.3595 -0.2251
  234loPI   C4B 3744   1.748  13.705   8.604 -0.3441  0.2650 -0.1944
  235loPI    C1 3745   6.620   0.421  11.331  0.3603 -0.1705  0.0374
  235loPI    C2 3746   6.766   0.780  11.430 -0.0434  0.0461 -0.1282
  235loPI    C3 3747   6.762   0.484  11.700  0.1943  0.1951  0.0429
  235loPI   PO4 3748   6.686   0.373  11.076 -0.3422  0.1378 -0.1332
  235loPI   GL1 3749   6.945   0.481  10.717  0.0507  0.1110 -0.1930
  235loPI   GL2 3750   6.849   0.212  10.538 -0.0661  0.2244 -0.2427
  235loPI   C1A 3751   6.714   0.643  10.317 -0.1640 -0.2358 -0.2871
  235loPI   C2A 3752   6.758   0.671   9.837 -0.2065  0.0849  0.0841
  235loPI   C3A 3753   6.943   0.901   9.494  0.0784  0.0423  0.2038
  235loPI   C4A 3754   7.120   1.064   9.060  0.0132  0.2208 -0.1238
  235loPI   C5A 3755   7.350   1.225   8.597 -0.1895  0.1172  0.3386
  235loPI   C6A 3756   7.564   1.356   8.272  0.0821  0.1650 -0.0305
  235loPI   C1B 3757   6.732   0.136  10.069 -0.3000 -0.0394  0.4658
  235loPI   C2B 3758   6.780   0.167   9.650  0.1296 -0.0392 -0.0202
  235loPI   C3B 3759   6.914   0.327   9.327  0.2998 -0.0446 -0.0368
  235loPI   C4B 3760   6.872   0.638   9.023  0.1198  0.2046 -0.1643
  236loPI    C1 3761   5.636   5.745  10.792  0.0694 -0.0420  0.0192
  236loPI    C2 3762   5.566   5.511  11.109  0.4400 -0.0741  0.0811
  236loPI    C3 3763   5.671   5.893  11.162 -0.0987  0.0959 -0.0183
  236loPI   PO4 3764   5.403   5.637  10.627 -0.2753 -0.0206  0.0826
  236loPI   GL1 3765   5.483   5.487  10.313  0.0537  0.3110 -0.0579
  236loPI   GL2 3766   5.556   5.180  10.211  0.1175  0.1244 -0.1985
  236loPI   C1A 3767   5.616   5.659   9.938 -0.0466 -0.3326  0.2572
  236loPI   C2A 3768   5.866   5.745   9.483  0.0962 -0.0279 -0.2089
  236loPI   C3A 3769   5.949   5.836   9.029  0.1036  0.1278 -0.0009
  236loPI   C4A 3770   5.836   5.729   8.536 -0.2966  0.2307  0.0704
  236loPI   C5A 3771   5.520   5.412   8.283  0.1079  0.0820  0.1152
  236loPI   C6A 3772   5.104   5.285   8.446  0.0469 -0.0816 -0.3115
  236loPI   C1B 3773   5.665   5.212   9.751  0.0829 -0.1645 -0.1156
  236loPI   C2B 3774   5.681   5.189   9.304  0.0322  0.1788 -0.0460
  236loPI   C3B 3775   5.877   5.023   8.919  0.1807 -0.1297  0.3372
  236loPI   C4B 3776   5.947   5.174   8.501  0.2473  0.1553  0.1927
  237loPI    C1 3777  12.496   3.943  10.967 -0.2886  0.1549 -0.0068
  237loPI    C2 3778  12.399   3.575  11.090  0.0884  0.0183 -0.1031
  237loPI    C3 3779  12.741   3.742  11.212 -0.1614  0.4117  0.0806
  237loPI   PO4 3780  12.404   3.858  10.670  0.1426  0.1959  0.2102
  237loPI   GL1 3781  12.257   4.169  10.366  0.0135 -0.0825  0.0240
  237loPI   GL2 3782  11.991   3.967  10.398  0.0085 -0.4516 -0.3010
  237loPI   C1A 3783  12.072   4.217   9.993 -0.0211 -0.3399  0.1812
  237loPI   C2A 3784  12.205   4.070   9.630 -0.0899  0.0957 -0.1628
  237loPI   C3A 3785  12.032   4.164   9.336 -0.0404  0.0794 -0.1504
  237loPI   C4A 3786  11.713   4.020   9.046 -0.1756  0.3004  0.0285
  237loPI   C5A 3787  11.654   4.054   8.509 -0.0594 -0.0881 -0.3384
  237loPI   C6A 3788  11.354   4.214   8.160 -0.1191 -0.1791  0.0518
  237loPI   C1B 3789  11.669   3.873  10.030 -0.0559  0.0322 -0.2662
  237loPI   C2B 3790  11.716   3.811   9.543 -0.2288  0.0860 -0.1490
  237loPI   C3B 3791  11.375   3.735   9.268 -0.1187  0.0546 -0.0503
  237loPI   C4B 3792  11.124   3.640   8.901 -0.2456 -0.0196  0.2426
  238loPI    C1 3793   3.714   8.339  10.545 -0.2823  0.1344 -0.2653
  238loPI    C2 3794   3.860   8.306  10.916 -0.0026 -0.0693 -0.3900
  238loPI    C3 3795   3.714   7.984  10.729 -0.3691  0.0801 -0.3689
  238loPI   PO4 3796   3.919   8.515  10.497 -0.1758  0.0491  0.1826
  238loPI   GL1 3797   4.008   8.891  10.239  0.2308  0.0817  0.2507
  238loPI   GL2 3798   4.234   9.067  10.047  0.0756 -0.0787 -0.0505
  238loPI   C1A 3799   3.870   8.679   9.865  0.1591  0.2181  0.0633
  238loPI   C2A 3800   3.649   8.657   9.537  0.1067 -0.0740 -0.0320
  238loPI   C3A 3801   3.688   8.614   9.117  0.0001  0.2593 -0.1216
  238loPI   C4A 3802   3.566   8.604   8.731 -0.0478 -0.0356  0.0721
  238loPI   C5A 3803   3.462   8.457   8.401  0.4469  0.1177  0.2194
  238loPI   C6A 3804   3.120   8.169   8.328  0.4401  0.1945  0.4867
  238loPI   C1B 3805   4.209   8.916   9.612  0.1815 -0.0348  0.0625
  238loPI   C2B 3806   4.131   8.823   9.211 -0.0624 -0.3792  0.0128
  238loPI   C3B 3807   4.161   8.713   8.880 -0.1154 -0.0314  0.0658
  238loPI   C4B 3808   3.922   8.645   8.401 -0.0209 -0.0024  0.0368
  239loPI    C1 3809  10.087  10.390  10.551  0.0029 -0.0698 -0.0568
  239loPI    C2 3810  10.109  10.516  10.930 -0.0419 -0.1336 -0.0328
  239loPI    C3 3811  10.043  10.778  10.635 -0.2485 -0.1149  0.0282
  239loPI   PO4 3812  10.209  10.169  10.534  0.0949 -0.0318  0.0359
  239loPI   GL1 3813  10.279   9.873  10.250 -0.0067  0.0380  0.4684
  239loPI   GL2 3814  10.059   9.692  10.189 -0.1855  0.1285 -0.1452
  239loPI   C1A 3815  10.535   9.925   9.921 -0.0691 -0.0208  0.1341
  239loPI   C2A 3816  10.375  10.132   9.588 -0.1754  0.1718 -0.1636
  239loPI   C3A 3817  10.245   9.955   9.279 -0.0437  0.0636 -0.1853
  239loPI   C4A 3818  10.100   9.811   8.904 -0.1300  0.2288 -0.0114
  239loPI   C5A 3819  10.256   9.799   8.496 -0.1533 -0.1733  0.0839
  239loPI   C6A 3820  10.465   9.600   8.193  0.1266  0.3287  0.2104
  239loPI   C1B 3821   9.966   9.716   9.784 -0.1374  0.1126 -0.0038
  239loPI   C2B 3822   9.818   9.667   9.339  0.0069 -0.0089 -0.0399
  239loPI   C3B 3823   9.651   9.554   8.929  0.0211  0.2816  0.0602
  239loPI   C4B 3824   9.820   9.450   8.596  0.2479 -0.1880  0.1729
  240loPI    C1 3825  12.012  17.374  11.231  0.0869  0.1246 -0.1684
  240loPI    C2 3826  11.632  17.478  11.164 -0.0123 -0.0231  0.1428
  240loPI    C3 3827  11.827  17.628  11.479  0.2661  0.2319 -0.1427
  240loPI   PO4 3828  12.132  17.394  10.993  0.1160  0.3278  0.0510
  240loPI   GL1 3829  12.266  17.212  10.556 -0.0316  0.0628 -0.0871
  240loPI   GL2 3830  11.939  17.403  10.408 -0.3687  0.2354 -0.1324
  240loPI   C1A 3831  12.347  17.299  10.160  0.1521  0.0745 -0.0474
  240loPI   C2A 3832  12.286  17.284   9.747  0.2304 -0.0612 -0.2880
  240loPI   C3A 3833  12.214  17.220   9.364  0.0358 -0.0280 -0.0151
  240loPI   C4A 3834  12.163  17.237   9.020 -0.0505 -0.1448  0.2402
  240loPI   C5A 3835  12.147  17.452   8.585  0.0499  0.1373 -0.4004
  240loPI   C6A 3836  12.403  17.589   8.309 -0.2319  0.1694 -0.2615
  240loPI   C1B 3837  11.769  17.350  10.069 -0.3969  0.2398 -0.2469
  240loPI   C2B 3838  11.633  17.411   9.727  0.0432 -0.4455  0.1124
  240loPI   C3B 3839  11.692  17.219   9.409 -0.0975 -0.0304  0.1989
  240loPI   C4B 3840  11.533  17.277   8.960 -0.2554 -0.1052 -0.0131
  241loPI    C1 3841  10.524   8.669  10.863  0.1924  0.0891 -0.2175
  241loPI    C2 3842  10.780   8.902  11.065  0.0614 -0.0334  0.0967
  241loPI    C3 3843  10.663   8.552  11.220 -0.3799  0.0688  0.0082
  241loPI   PO4 3844  10.378   8.854  10.721 -0.0154 -0.0684 -0.0841
  241loPI   GL1 3845  10.507   8.932  10.339 -0.2119 -0.1665  0.0097
  241loPI   GL2 3846  10.781   8.962  10.092 -0.2714 -0.1860 -0.0160
  241loPI   C1A 3847  10.311   8.647   9.983 -0.0100  0.0675 -0.0155
  241loPI   C2A 3848  10.242   8.505   9.535  0.0676 -0.2197  0.0821
  241loPI   C3A 3849   9.980   8.631   9.260 -0.0200 -0.2072 -0.0915
  241loPI   C4A 3850   9.808   8.613   8.792 -0.0718  0.0391  0.0589
  241loPI   C5A 3851   9.573   8.792   8.426  0.2167  0.0076 -0.0308
  241loPI   C6A 3852   9.622   9.217   8.174  0.1948 -0.0304  0.3160
  241loPI   C1B 3853  10.663   8.899   9.675  0.0130  0.2260 -0.1706
  241loPI   C2B 3854  10.456   8.995   9.287 -0.3964  0.0717  0.3018
  241loPI   C3B 3855  10.451   9.045   8.868  0.2879  0.0281  0.4608
  241loPI   C4B 3856  10.337   9.305   8.561 -0.0986 -0.1104 -0.3422
  242loPI    C1 3857   5.543  13.817  10.916  0.0003  0.1359  0.1201
  242loPI    C2 3858   5.571  13.475  11.121  0.2001 -0.0137 -0.1509
  242loPI    C3 3859   5.778  13.796  11.239 -0.3076  0.1458  0.3495
  242loPI   PO4 3860   5.554  13.763  10.604 -0.3671 -0.1922  0.0428
  242loPI   GL1 3861   5.307  13.653  10.269  0.2838 -0.1380 -0.3076
  242loPI   GL2 3862   5.592  13.491  10.209 -0.0878  0.0440  0.1430
  242loPI   C1A 3863   5.170  13.545   9.879  0.0507  0.1758  0.0177
  242loPI   C2A 3864   5.048  13.478   9.485  0.2428  0.2081 -0.0511
  242loPI   C3A 3865   5.006  13.266   9.090  0.1286  0.0276 -0.0604
  242loPI   C4A 3866   4.740  13.105   8.807  0.0448 -0.1016  0.1190
  242loPI   C5A 3867   4.919  12.772   8.565  0.1073  0.0689 -0.1667
  242loPI   C6A 3868   4.694  12.364   8.601 -0.0426 -0.0580 -0.0983
  242loPI   C1B 3869   5.657  13.427   9.768 -0.0008 -0.2146  0.0423
  242loPI   C2B 3870   5.490  13.388   9.366  0.0000  0.0875  0.1933
  242loPI   C3B 3871   5.428  13.414   8.931  0.2237 -0.0933 -0.1273
  242loPI   C4B 3872   5.170  13.279   8.569  0.2804  0.4493 -0.1369
  243loPI    C1 3873   6.446  13.915  10.863 -0.0919 -0.1723  0.1370
  243loPI    C2 3874   6.740  14.185  10.882 -0.1524 -0.0807 -0.1676
  243loPI    C3 3875   6.746  13.865  11.122 -0.0665  0.1745  0.1793
  243loPI   PO4 3876   6.461  13.896  10.614  0.0195  0.0879 -0.3398
  243loPI   GL1 3877   6.504  13.583  10.287  0.2931  0.2156  0.0776
  243loPI   GL2 3878   6.707  13.285  10.245 -0.0598 -0.2082  0.1675
  243loPI   C1A 3879   6.507  13.668   9.862 -0.0031 -0.2379 -0.1024
  243loPI   C2A 3880   6.413  13.727   9.382  0.0800 -0.0589  0.0296
  243loPI   C3A 3881   6.563  13.695   9.009 -0.0356  0.3302 -0.1844
  243loPI   C4A 3882   6.878  13.425   8.797  0.3046 -0.0522 -0.2096
  243loPI   C5A 3883   7.145  13.113   8.598 -0.0441  0.0723 -0.2117
  243loPI   C6A 3884   7.092  12.852   8.158 -0.0872  0.0830  0.0565
  243loPI   C1B 3885   7.072  13.320   9.923 -0.2302 -0.0558 -0.2380
  243loPI   C2B 3886   7.359  13.512   9.710  0.1376 -0.0576  0.1874
  243loPI   C3B 3887   7.584  13.460   9.351 -0.1957  0.1291 -0.1939
  243loPI   C4B 3888   7.630  13.344   8.868 -0.0873  0.1497 -0.1118
  244loPI    C1 3889   1.764   1.684  11.419 -0.0168  0.0919  0.0945
  244loPI    C2 3890   1.694   2.052  11.561 -0.1088  0.0665  0.1157
  244loPI    C3 3891   1.598   1.731  11.780  0.0961  0.0307  0.1548
  244loPI   PO4 3892   1.693   1.671  11.182  0.1451  0.1719  0.0563
  244loPI   GL1 3893   1.801   1.723  10.761 -0.0908 -0.4110 -0.1350
  244loPI   GL2 3894   1.815   2.064  10.545 -0.2101  0.0971 -0.3874
  244loPI   C1A 3895   1.833   1.634  10.253  0.0637 -0.1735 -0.2534
  244loPI   C2A 3896   1.922   1.573   9.874  0.2434  0.2866  0.0076
  244loPI   C3A 3897   2.116   1.711   9.430  0.0876  0.1960 -0.1585
  244loPI   C4A 3898   2.386   1.622   8.983 -0.1104 -0.2813 -0.2962
  244loPI   C5A 3899   2.711   1.534   8.739 -0.1244 -0.3355 -0.1992
  244loPI   C6A 3900   3.196   1.596   8.578 -0.1506 -0.0334  0.1038
  244loPI   C1B 3901   1.732   2.058  10.055  0.2659 -0.2689  0.1323
  244loPI   C2B 3902   1.453   2.150   9.708  0.0825  0.1243  0.0649
  244loPI   C3B 3903   1.271   2.263   9.364  0.1662  0.1243 -0.0438
  244loPI   C4B 3904   1.248   2.320   9.002  0.0223 -0.2785  0.1574
  245loPI    C1 3905   1.462   7.931  11.094  0.0266 -0.0711  0.2066
  245loPI    C2 3906   1.520   7.539  11.043  0.1034 -0.0426  0.0709
  245loPI    C3 3907   1.367   7.675  11.387 -0.1088 -0.2087  0.0444
  245loPI   PO4 3908   1.371   7.994  10.690 -0.2742  0.1527  0.0650
  245loPI   GL1 3909   1.180   8.027  10.376  0.4197 -0.1106  0.1008
  245loPI   GL2 3910   1.205   8.292  10.172  0.0509  0.1179  0.1290
  245loPI   C1A 3911   1.154   7.910   9.857 -0.0102  0.0106 -0.3598
  245loPI   C2A 3912   1.355   7.922   9.458  0.1630 -0.1602  0.0484
  245loPI   C3A 3913   1.374   7.736   9.059  0.0508 -0.0265 -0.0282
  245loPI   C4A 3914   1.310   7.651   8.653 -0.2772 -0.0211 -0.0300
  245loPI   C5A 3915   1.262   7.712   8.262  0.2651 -0.0139  0.0361
  245loPI   C6A 3916   1.098   7.658   7.877 -0.1235 -0.0824  0.1954
  245loPI   C1B 3917   1.220   8.388   9.684 -0.1853  0.1673  0.1694
  245loPI   C2B 3918   1.312   8.392   9.219 -0.1006  0.1572  0.0467
  245loPI   C3B 3919   1.493   8.260   8.822  0.1261  0.0656  0.0661
  245loPI   C4B 3920   1.500   8.469   8.385 -0.1772 -0.1313  0.1221
  246loPI    C1 3921  11.580  12.935  11.403 -0.1713 -0.1683  0.1631
  246loPI    C2 3922  11.649  12.558  11.519  0.0861 -0.1826 -0.0272
  246loPI    C3 3923  11.841  12.860  11.698  0.0557 -0.1601 -0.0326
  246loPI   PO4 3924  11.571  12.934  11.109 -0.0979  0.2347  0.0865
  246loPI   GL1 3925  11.296  13.122  10.783 -0.0482 -0.2294 -0.1680
  246loPI   GL2 3926  11.419  12.776  10.638  0.0430  0.2884  0.0845
  246loPI   C1A 3927  11.291  13.254  10.329  0.2388 -0.1226 -0.0916
  246loPI   C2A 3928  11.333  13.336   9.940  0.0811 -0.1247 -0.0549
  246loPI   C3A 3929  11.292  13.312   9.546 -0.2916 -0.0091  0.0368
  246loPI   C4A 3930  11.227  13.160   9.189  0.4664  0.1789  0.1200
  246loPI   C5A 3931  11.468  13.320   8.837 -0.1479 -0.0233 -0.0400
  246loPI   C6A 3932  11.486  13.721   8.527 -0.1627 -0.0532 -0.3935
  246loPI   C1B 3933  11.443  12.705  10.152 -0.0990  0.0761  0.0204
  246loPI   C2B 3934  11.454  12.845   9.746  0.0591 -0.1943 -0.3239
  246loPI   C3B 3935  11.457  12.751   9.290 -0.2298  0.2582 -0.1255
  246loPI   C4B 3936  11.471  12.798   8.867  0.0697 -0.1268 -0.2931
  247loPI    C1 3937   7.157  11.193  11.054  0.1082 -0.1269  0.0536
  247loPI    C2 3938   6.833  11.152  11.284  0.0625  0.0158  0.0157
  247loPI    C3 3939   7.187  11.017  11.412  0.0153 -0.0105  0.1194
  247loPI   PO4 3940   7.109  11.431  10.858 -0.1411 -0.1501 -0.2703
  247loPI   GL1 3941   7.239  11.520  10.463 -0.0903 -0.0855  0.3116
  247loPI   GL2 3942   7.538  11.535  10.308 -0.0496  0.0005 -0.0025
  247loPI   C1A 3943   7.124  11.789  10.182  0.0006  0.2356 -0.2642
  247loPI   C2A 3944   6.998  11.966   9.819 -0.1516 -0.1248 -0.2888
  247loPI   C3A 3945   7.077  11.853   9.403 -0.0872  0.4038  0.0505
  247loPI   C4A 3946   6.906  11.806   9.053 -0.0309 -0.2049  0.0776
  247loPI   C5A 3947   6.700  11.683   8.647  0.0853  0.1306  0.1165
  247loPI   C6A 3948   6.241  11.560   8.485 -0.0339 -0.0302  0.2296
  247loPI   C1B 3949   7.405  11.440   9.994  0.0311  0.2088  0.4089
  247loPI   C2B 3950   7.405  11.443   9.562  0.0593 -0.2326  0.1347
  247loPI   C3B 3951   7.341  11.501   9.084 -0.1597  0.0442 -0.1348
  247loPI   C4B 3952   7.280  11.466   8.726 -0.2640  0.1297  0.3007
  248loPI    C1 3953  17.550  16.700  10.809  0.0694 -0.0597  0.1009
  248loPI    C2 3954  17.873  16.719  10.574  0.0001 -0.0883  0.0029
  248loPI    C3 3955  17.916  16.674  10.969  0.1144 -0.1663 -0.0179
  248loPI   PO4 3956  17.404  16.905  10.656  0.1016  0.0243  0.0309
  248loPI   GL1 3957  17.589  16.959  10.227  0.1791 -0.2890  0.0265
  248loPI   GL2 3958  17.704  17.229  10.136 -0.0552 -0.1246  0.2018
  248loPI   C1A 3959  17.391  16.829   9.913 -0.0340  0.2749 -0.1152
  248loPI   C2A 3960  17.137  16.806   9.616  0.0446 -0.1487  0.1290
  248loPI   C3A 3961  17.053  16.684   9.217 -0.0153 -0.2105 -0.0701
  248loPI   C4A 3962  16.966  16.376   8.866  0.0603  0.1091  0.1066
  248loPI   C5A 3963  16.812  16.110   8.540  0.2465 -0.0551 -0.1757
  248loPI   C6A 3964  16.350  16.139   8.166 -0.2701  0.0194 -0.4990
  248loPI   C1B 3965  17.748  17.177   9.738  0.0852  0.1733 -0.0831
  248loPI   C2B 3966  17.821  17.370   9.294  0.2859 -0.0819 -0.3122
  248loPI   C3B 3967  17.731  17.130   8.929 -0.0051 -0.3940 -0.1453
  248loPI   C4B 3968  17.638  16.762   8.671 -0.0477  0.0232  0.0225
  249loPI    C1 3969   6.692   2.881  10.962 -0.0690  0.0061  0.1941
  249loPI    C2 3970   6.878   2.921  11.314  0.1842 -0.1473  0.0804
  249loPI    C3 3971   6.801   2.556  11.169  0.1333 -0.0851 -0.0505
  249loPI   PO4 3972   6.781   2.961  10.795  0.0129  0.0604  0.0913
  249loPI   GL1 3973   6.682   3.226  10.450 -0.1654 -0.1497  0.1929
  249loPI   GL2 3974   6.414   3.441  10.380  0.0288 -0.0173  0.0261
  249loPI   C1A 3975   6.642   3.130  10.051 -0.1792  0.1137 -0.1176
  249loPI   C2A 3976   6.794   3.335   9.639  0.0503 -0.0786  0.3702
  249loPI   C3A 3977   6.802   3.122   9.184 -0.2470 -0.0449  0.0881
  249loPI   C4A 3978   6.953   2.888   8.816 -0.1531  0.0043 -0.0288
  249loPI   C5A 3979   7.313   2.758   8.635  0.2201 -0.0208  0.4629
  249loPI   C6A 3980   7.737   2.839   8.575 -0.1514  0.0759  0.3027
  249loPI   C1B 3981   6.748   3.613  10.082  0.1882 -0.1131  0.0037
  249loPI   C2B 3982   6.748   3.846   9.716  0.1431 -0.1813  0.5892
  249loPI   C3B 3983   6.604   3.935   9.335 -0.3061  0.0883 -0.1282
  249loPI   C4B 3984   6.450   4.388   9.172 -0.2391  0.1381 -0.0529
  250loPI    C1 3985   1.042   9.092  11.232 -0.1745  0.0269 -0.0365
  250loPI    C2 3986   1.318   9.377  11.178 -0.1278 -0.0544 -0.2355
  250loPI    C3 3987   1.217   9.264  11.548 -0.0132  0.0905 -0.1590
  250loPI   PO4 3988   1.126   8.967  10.913  0.0467 -0.4063  0.1900
  250loPI   GL1 3989   0.946   9.037  10.424 -0.0232  0.2545  0.1374
  250loPI   GL2 3990   0.913   8.704  10.225 -0.2099 -0.0900  0.0033
  250loPI   C1A 3991   1.103   9.273  10.021 -0.2462  0.4219 -0.0638
  250loPI   C2A 3992   1.169   9.284   9.568 -0.1790 -0.2451 -0.1395
  250loPI   C3A 3993   1.127   9.273   9.158  0.2799 -0.1470 -0.2076
  250loPI   C4A 3994   0.892   9.044   8.903 -0.1185 -0.0427  0.3300
  250loPI   C5A 3995   0.808   8.863   8.482 -0.1411 -0.2517 -0.3454
  250loPI   C6A 3996   0.736   8.947   8.087 -0.2149  0.0421  0.0532
  250loPI   C1B 3997   0.954   8.797   9.810  0.6241 -0.1060  0.0249
  250loPI   C2B 3998   0.852   8.847   9.408 -0.1650  0.1662 -0.0368
  250loPI   C3B 3999   0.906   8.604   9.046  0.1498  0.1203 -0.0492
  250loPI   C4B 4000   1.145   8.612   8.696 -0.1481 -0.0825 -0.3820
  251loPI    C1 4001  11.743   0.860  11.104 -0.0100 -0.0306  0.0142
  251loPI    C2 4002  11.685   1.177  11.342  0.0646 -0.0000 -0.0079
  251loPI    C3 4003  11.570   0.813  11.462 -0.0397  0.0382  0.0093
  251loPI   PO4 4004  11.694   0.924  10.834  0.1691  0.2738 -0.1394
  251loPI   GL1 4005  11.822   0.817  10.416  0.0119  0.0460 -0.0773
  251loPI   GL2 4006  12.082   0.906  10.381 -0.1920  0.2544  0.1394
  251loPI   C1A 4007  11.431   0.664  10.279 -0.2051  0.3479  0.0436
  251loPI   C2A 4008  11.258   0.708   9.931 -0.3338  0.1103 -0.0016
  251loPI   C3A 4009  11.240   0.592   9.428 -0.0652 -0.3267  0.2267
  251loPI   C4A 4010  11.224   0.495   8.898 -0.2441  0.2182  0.0313
  251loPI   C5A 4011  11.198   0.455   8.485  0.0137 -0.1198 -0.0433
  251loPI   C6A 4012  11.069   0.438   8.049  0.0169  0.1122  0.1062
  251loPI   C1B 4013  12.154   0.971   9.990 -0.0422 -0.1868  0.2267
  251loPI   C2B 4014  12.177   0.975   9.541 -0.0085  0.2086  0.0820
  251loPI   C3B 4015  11.940   1.030   9.125  0.0618 -0.0963  0.1733
  251loPI   C4B 4016  11.956   1.125   8.749  0.3990  0.2801 -0.0432
  252loPI    C1 4017  10.258  16.096  10.980  0.0114  0.0916 -0.1375
  252loPI    C2 4018  10.209  15.704  11.043  0.1423  0.0967  0.0023
  252loPI    C3 4019  10.577  15.857  11.017  0.0917  0.2171 -0.0107
  252loPI   PO4 4020  10.098  16.232  10.752 -0.2867 -0.0039  0.2523
  252loPI   GL1 4021  10.170  16.277  10.418  0.1802  0.1074  0.0714
  252loPI   GL2 4022  10.146  16.084  10.224 -0.1349 -0.1464 -0.3135
  252loPI   C1A 4023  10.023  16.575  10.026  0.1279  0.3023 -0.1173
  252loPI   C2A 4024  10.029  16.699   9.538 -0.1281  0.1671  0.3721
  252loPI   C3A 4025  10.095  16.605   9.040 -0.1676  0.1016  0.0046
  252loPI   C4A 4026  10.104  16.303   8.691 -0.1700 -0.0406 -0.2449
  252loPI   C5A 4027  10.366  16.043   8.376  0.1811 -0.2525  0.0160
  252loPI   C6A 4028  10.653  15.716   8.363  0.0958  0.0253 -0.1712
  252loPI   C1B 4029  10.150  16.158   9.801 -0.1109 -0.1116  0.0813
  252loPI   C2B 4030  10.113  16.149   9.342  0.0189 -0.0019 -0.0486
  252loPI   C3B 4031   9.947  15.882   9.125  0.0951  0.0518  0.0457
  252loPI   C4B 4032   9.684  16.089   8.925  0.2101  0.1993  0.2171
  253loPI    C1 4033   1.787  10.600  10.647  0.0605 -0.1306  0.1935
  253loPI    C2 4034   1.462  10.385  10.738 -0.0162  0.0472  0.3467
  253loPI    C3 4035   1.650  10.593  11.023  0.1173  0.1018  0.2201
  253loPI   PO4 4036   1.620  10.710  10.392 -0.0672 -0.0282  0.2080
  253loPI   GL1 4037   1.487  10.798   9.956 -0.0521 -0.1488 -0.1792
  253loPI   GL2 4038   1.217  10.813   9.804 -0.3811 -0.1229  0.3599
  253loPI   C1A 4039   1.745  10.470   9.732  0.2136  0.0716 -0.0474
  253loPI   C2A 4040   1.760  10.069   9.622  0.1639  0.0046  0.1910
  253loPI   C3A 4041   1.876   9.903   9.341 -0.1359 -0.0945  0.1514
  253loPI   C4A 4042   1.850   9.685   8.875  0.1933  0.4502  0.4716
  253loPI   C5A 4043   1.673   9.626   8.432  0.3201  0.0163 -0.3521
  253loPI   C6A 4044   1.594   9.394   8.035  0.1741 -0.2845  0.2776
  253loPI   C1B 4045   1.221  10.786   9.459  0.1437 -0.2625 -0.1097
  253loPI   C2B 4046   1.115  10.891   9.044  0.2689  0.1803 -0.2373
  253loPI   C3B 4047   1.294  10.793   8.725  0.0100  0.0749 -0.2123
  253loPI   C4B 4048   1.524  10.516   8.350 -0.3736  0.0777 -0.1298
  254loPI    C1 4049   2.062  10.995  10.457  0.2236  0.3217 -0.1023
  254loPI    C2 4050   2.308  10.900  10.758 -0.0127 -0.0923 -0.0317
  254loPI    C3 4051   2.256  10.645  10.454 -0.1994  0.0805 -0.1470
  254loPI   PO4 4052   2.071  11.277  10.406 -0.2719 -0.0302 -0.1779
  254loPI   GL1 4053   2.237  11.375  10.132  0.1215  0.0992 -0.1969
  254loPI   GL2 4054   2.686  11.419  10.010 -0.2628  0.2823 -0.0553
  254loPI   C1A 4055   2.168  11.435   9.815 -0.0177 -0.0366  0.1864
  254loPI   C2A 4056   1.986  11.565   9.394  0.2195 -0.1812  0.0620
  254loPI   C3A 4057   1.722  11.553   9.089 -0.3400 -0.2210  0.0911
  254loPI   C4A 4058   1.587  11.141   8.955 -0.1069  0.1011 -0.2702
  254loPI   C5A 4059   1.630  10.825   9.140  0.0466 -0.2533  0.0345
  254loPI   C6A 4060   1.689  10.961   9.539  0.1329  0.0958 -0.1090
  254loPI   C1B 4061   2.570  11.463   9.515 -0.2258 -0.1959 -0.2273
  254loPI   C2B 4062   2.365  11.504   9.115 -0.1053  0.2337 -0.1095
  254loPI   C3B 4063   2.080  11.725   8.837 -0.0262 -0.1234 -0.1105
  254loPI   C4B 4064   1.683  11.766   8.604  0.2065  0.1587  0.1581
  255loPI    C1 4065   3.787   5.653  10.763 -0.2174 -0.0028  0.1284
  255loPI    C2 4066   3.826   5.265  10.676  0.0220  0.0749 -0.1271
  255loPI    C3 4067   3.600   5.501  10.445 -0.0523  0.1065 -0.0231
  255loPI   PO4 4068   3.942   5.773  10.766 -0.1489  0.2845  0.0260
  255loPI   GL1 4069   4.122   5.821  10.432  0.0705  0.2200 -0.1537
  255loPI   GL2 4070   3.803   5.932  10.282  0.0416 -0.4766 -0.2748
  255loPI   C1A 4071   4.165   5.799   9.959 -0.2244 -0.1619  0.1282
  255loPI   C2A 4072   4.283   5.620   9.550  0.2937  0.0280  0.3659
  255loPI   C3A 4073   4.502   5.825   9.151 -0.0210 -0.0060  0.0065
  255loPI   C4A 4074   4.600   5.847   8.727 -0.0553 -0.1402 -0.0417
  255loPI   C5A 4075   4.531   5.796   8.255  0.0448 -0.0455 -0.0229
  255loPI   C6A 4076   4.457   5.744   7.829 -0.0262 -0.0572  0.0444
  255loPI   C1B 4077   3.636   5.658   9.994  0.1797  0.1733 -0.1099
  255loPI   C2B 4078   3.539   5.649   9.650  0.0158 -0.2868  0.0713
  255loPI   C3B 4079   3.441   5.734   9.189  0.0603  0.0055 -0.0072
  255loPI   C4B 4080   3.571   6.033   8.929  0.3826 -0.1447 -0.1432
  256loPI    C1 4081   9.048   7.636  10.953  0.2815  0.1083 -0.0712
  256loPI    C2 4082   9.203   7.295  10.815  0.3359  0.0741  0.0728
  256loPI    C3 4083   9.093   7.323  11.198 -0.0175  0.0969 -0.0267
  256loPI   PO4 4084   8.948   7.714  10.733  0.0087  0.0401 -0.1803
  256loPI   GL1 4085   8.746   7.577  10.389  0.1259 -0.1796  0.1589
  256loPI   GL2 4086   8.567   7.567  10.160  0.0703  0.1028 -0.0546
  256loPI   C1A 4087   9.006   7.445  10.065 -0.0153  0.1526  0.1200
  256loPI   C2A 4088   9.093   7.446   9.639 -0.0428 -0.0012 -0.0517
  256loPI   C3A 4089   9.046   7.517   9.293  0.0579  0.0044 -0.0282
  256loPI   C4A 4090   9.019   7.495   8.882 -0.0236 -0.1368  0.1241
  256loPI   C5A 4091   8.893   7.523   8.378 -0.2581 -0.2116  0.0621
  256loPI   C6A 4092   9.062   7.521   7.991  0.1255  0.1199 -0.0587
  256loPI   C1B 4093   8.607   7.546   9.719 -0.3434 -0.1791 -0.0161
  256loPI   C2B 4094   8.584   7.573   9.302  0.0979 -0.0605 -0.1614
  256loPI   C3B 4095   8.507   7.701   8.942 -0.0833 -0.0168 -0.2865
  256loPI   C4B 4096   8.342   7.574   8.506 -0.0414 -0.0741  0.1650
  257loPI    C1 4097  14.352   1.650  10.900 -0.1661 -0.2393 -0.0896
  257loPI    C2 4098  14.502   1.429  11.198  0.0525 -0.0158 -0.0307
  257loPI    C3 4099  14.400   1.810  11.264 -0.0968 -0.0268 -0.1904
  257loPI   PO4 4100  14.425   1.614  10.685  0.0540 -0.1479  0.0867
  257loPI   GL1 4101  14.348   1.534  10.308 -0.1821  0.2784 -0.3900
  257loPI   GL2 4102  14.578   1.321  10.261 -0.2171  0.0742  0.0773
  257loPI   C1A 4103  14.275   1.717   9.954  0.1223  0.1695 -0.1506
  257loPI   C2A 4104  14.268   1.723   9.550 -0.4886  0.1013 -0.0863
  257loPI   C3A 4105  14.038   1.661   9.199 -0.0148 -0.1628  0.1312
  257loPI   C4A 4106  13.950   1.938   8.830  0.2813 -0.0541  0.0593
  257loPI   C5A 4107  13.866   2.051   8.482  0.0990 -0.0213  0.2770
  257loPI   C6A 4108  14.045   2.413   8.294  0.2698 -0.3006 -0.0817
  257loPI   C1B 4109  14.569   1.257   9.886 -0.0053  0.2937 -0.1357
  257loPI   C2B 4110  14.632   1.384   9.501 -0.0172 -0.0926  0.2758
  257loPI   C3B 4111  14.678   1.288   9.036 -0.0851 -0.1195 -0.0338
  257loPI   C4B 4112  15.023   1.369   8.726  0.2097  0.1278  0.0972
  258loPI    C1 4113   3.014  12.679  11.089  0.0950  0.1526  0.0534
  258loPI    C2 4114   3.217  12.949  11.303  0.2173  0.0434  0.0758
  258loPI    C3 4115   3.082  12.615  11.477 -0.1457  0.2015  0.1050
  258loPI   PO4 4116   2.879  12.824  10.802  0.2062 -0.1120  0.0657
  258loPI   GL1 4117   3.038  12.648  10.419  0.0655 -0.0053 -0.0043
  258loPI   GL2 4118   2.839  12.243  10.274  0.1185 -0.1601 -0.2928
  258loPI   C1A 4119   3.247  12.558  10.064  0.0330 -0.0034  0.1066
  258loPI   C2A 4120   3.104  12.629   9.654  0.1736 -0.1100  0.0800
  258loPI   C3A 4121   3.225  12.635   9.190 -0.0992 -0.1643 -0.0453
  258loPI   C4A 4122   3.340  12.613   8.783 -0.1561 -0.2384  0.0120
  258loPI   C5A 4123   3.221  12.262   8.461 -0.2199 -0.2748 -0.0586
  258loPI   C6A 4124   3.048  12.423   8.105 -0.0093  0.0347 -0.1555
  258loPI   C1B 4125   2.807  12.312   9.910 -0.0746 -0.2721  0.1580
  258loPI   C2B 4126   2.648  12.346   9.478 -0.0464 -0.0252 -0.2626
  258loPI   C3B 4127   2.768  12.369   9.039  0.0878  0.1321  0.0452
  258loPI   C4B 4128   2.795  12.494   8.652 -0.1223 -0.2087 -0.1233
  259loPI    C1 4129   6.840  10.694  10.952 -0.1221  0.0756 -0.3039
  259loPI    C2 4130   6.689  10.356  11.103 -0.0967  0.1069 -0.2077
  259loPI    C3 4131   7.000  10.341  10.852 -0.1253  0.0560 -0.2404
  259loPI   PO4 4132   6.587  10.794  10.837 -0.4214  0.0321  0.0738
  259loPI   GL1 4133   6.564  11.179  10.587  0.0218  0.0774  0.0253
  259loPI   GL2 4134   6.466  10.990  10.321  0.2653 -0.1417 -0.0171
  259loPI   C1A 4135   6.702  11.448  10.139  0.1294  0.2742 -0.3158
  259loPI   C2A 4136   6.950  11.444   9.724  0.2248  0.0715  0.2664
  259loPI   C3A 4137   6.877  11.350   9.293 -0.2590  0.4055 -0.0376
  259loPI   C4A 4138   6.819  11.312   8.923 -0.2802  0.0571 -0.1328
  259loPI   C5A 4139   7.074  10.920   8.577  0.0878  0.1220 -0.0574
  259loPI   C6A 4140   7.298  10.570   8.380  0.0864  0.1714 -0.2969
  259loPI   C1B 4141   6.652  10.918  10.018  0.0190 -0.0605  0.2555
  259loPI   C2B 4142   6.727  10.921   9.559 -0.1641  0.0830 -0.0672
  259loPI   C3B 4143   6.756  10.828   9.154 -0.1943 -0.0593 -0.2138
  259loPI   C4B 4144   6.546  10.791   8.741 -0.1144  0.0327  0.0776
  260loPI    C1 4145   3.462  14.738  10.863  0.0745 -0.0334 -0.1146
  260loPI    C2 4146   3.115  14.711  10.667  0.1096 -0.2798 -0.1449
  260loPI    C3 4147   3.119  14.812  11.054  0.0287  0.0445 -0.2263
  260loPI   PO4 4148   3.535  14.501  10.812  0.0757  0.0055  0.2303
  260loPI   GL1 4149   3.444  14.312  10.448  0.3794 -0.1814 -0.4247
  260loPI   GL2 4150   3.263  14.442  10.145  0.2118 -0.0138  0.1417
  260loPI   C1A 4151   3.432  14.006  10.103 -0.3042 -0.1198 -0.4931
  260loPI   C2A 4152   3.617  13.963   9.713 -0.0469  0.1917  0.3189
  260loPI   C3A 4153   3.643  13.887   9.373 -0.2901 -0.2137  0.0507
  260loPI   C4A 4154   3.781  13.961   8.961 -0.4537 -0.2529 -0.0436
  260loPI   C5A 4155   4.006  13.972   8.612  0.3036 -0.0635  0.0647
  260loPI   C6A 4156   4.383  13.912   8.534 -0.0911  0.0664 -0.1921
  260loPI   C1B 4157   3.410  14.389   9.682 -0.0297 -0.2871  0.0731
  260loPI   C2B 4158   3.535  14.433   9.260 -0.1728  0.0428 -0.0206
  260loPI   C3B 4159   3.600  14.427   8.847 -0.0861  0.1431  0.2107
  260loPI   C4B 4160   3.539  14.646   8.443  0.0690 -0.0764 -0.0814
  261loPI    C1 4161  17.067   5.232  11.147 -0.0374  0.0386 -0.2170
  261loPI    C2 4162  16.683   5.148  11.222  0.0013  0.1248  0.0938
  261loPI    C3 4163  16.859   5.456  11.405  0.1729  0.1924 -0.1788
  261loPI   PO4 4164  17.014   5.237  10.880 -0.0295  0.2811  0.3338
  261loPI   GL1 4165  17.321   5.139  10.525  0.1099  0.0676  0.2165
  261loPI   GL2 4166  17.604   5.257  10.543 -0.1358  0.0124 -0.3495
  261loPI   C1A 4167  17.541   5.142  10.073 -0.2112 -0.1657  0.0068
  261loPI   C2A 4168  17.456   5.272   9.568  0.2488  0.1143  0.1933
  261loPI   C3A 4169  17.543   5.157   9.154 -0.0186 -0.0385 -0.2898
  261loPI   C4A 4170  17.466   5.110   8.750 -0.1634 -0.2581  0.0648
  261loPI   C5A 4171  17.265   5.006   8.461  0.0123  0.0727  0.2468
  261loPI   C6A 4172  16.829   4.767   8.444  0.1278  0.2578 -0.2487
  261loPI   C1B 4173  17.400   5.652  10.246 -0.0051  0.1521 -0.0193
  261loPI   C2B 4174  17.464   5.694   9.876  0.1379 -0.0337 -0.1742
  261loPI   C3B 4175  17.561   5.705   9.419 -0.1016  0.0232  0.0076
  261loPI   C4B 4176  17.527   5.679   9.046 -0.0717 -0.0896 -0.2591
  262loPI    C1 4177   0.725   2.070  11.276 -0.2981  0.1613 -0.0850
  262loPI    C2 4178   0.730   1.738  11.499  0.0545  0.1007 -0.1760
  262loPI    C3 4179   0.795   2.094  11.670  0.0828  0.0799 -0.1433
  262loPI   PO4 4180   0.867   1.999  11.017  0.2809  0.0229  0.1148
  262loPI   GL1 4181   0.882   2.059  10.543 -0.0857 -0.1705 -0.1874
  262loPI   GL2 4182   1.085   2.070  10.556 -0.0426  0.1519  0.0018
  262loPI   C1A 4183   0.572   2.167  10.222 -0.2061 -0.1807 -0.0195
  262loPI   C2A 4184   0.386   2.330   9.838 -0.0986  0.1314 -0.0822
  262loPI   C3A 4185   0.342   2.369   9.350  0.1945 -0.0142  0.0608
  262loPI   C4A 4186   0.366   2.317   8.952  0.1246  0.0257  0.1736
  262loPI   C5A 4187   0.574   2.133   8.704  0.0816 -0.2108  0.1575
  262loPI   C6A 4188   0.977   2.347   8.467  0.0741  0.2101  0.0125
  262loPI   C1B 4189   1.280   1.795  10.254  0.3747 -0.3598  0.3018
  262loPI   C2B 4190   1.406   1.669   9.920 -0.2714 -0.2629  0.2163
  262loPI   C3B 4191   1.582   1.637   9.489 -0.0514 -0.0784 -0.0777
  262loPI   C4B 4192   1.531   1.899   9.091 -0.1601 -0.1753 -0.1300
  263loPI    C1 4193  13.313  16.287  10.996  0.1485  0.0288  0.1201
  263loPI    C2 4194  13.702  16.368  10.948  0.1051  0.2839  0.1824
  263loPI    C3 4195  13.552  16.313  11.315  0.0646  0.2763  0.1648
  263loPI   PO4 4196  13.240  16.099  10.843  0.2498 -0.1607 -0.1820
  263loPI   GL1 4197  13.322  16.203  10.431 -0.1202  0.1190  0.0900
  263loPI   GL2 4198  13.510  16.353  10.516  0.0185  0.1419 -0.1208
  263loPI   C1A 4199  13.114  16.267  10.000  0.2359  0.2907 -0.1604
  263loPI   C2A 4200  13.150  16.312   9.550 -0.0865  0.2367 -0.0709
  263loPI   C3A 4201  13.051  16.201   9.183  0.2111  0.2827  0.0138
  263loPI   C4A 4202  13.156  16.256   8.786 -0.1206  0.3500 -0.0916
  263loPI   C5A 4203  13.259  16.498   8.495 -0.0082  0.1461 -0.1810
  263loPI   C6A 4204  13.310  16.966   8.380 -0.3202  0.0828  0.2503
  263loPI   C1B 4205  13.619  16.638  10.211  0.0597 -0.2339  0.2056
  263loPI   C2B 4206  13.505  16.642   9.823 -0.0679 -0.2344 -0.1557
  263loPI   C3B 4207  13.470  16.750   9.399  0.2394  0.2076  0.2202
  263loPI   C4B 4208  13.401  16.693   8.957 -0.0277 -0.1501 -0.1224
  264loPI    C1 4209   7.018   7.290  10.751 -0.0247  0.0656  0.0736
  264loPI    C2 4210   6.947   7.086  11.088  0.0456 -0.2491 -0.0986
  264loPI    C3 4211   7.169   7.419  11.098 -0.0338 -0.2024  0.1790
  264loPI   PO4 4212   6.760   7.291  10.666 -0.1473  0.2960  0.0092
  264loPI   GL1 4213   6.408   7.341  10.463 -0.0640  0.0562 -0.3359
  264loPI   GL2 4214   6.250   7.091  10.500  0.2293 -0.0344 -0.0010
  264loPI   C1A 4215   6.232   7.616  10.195  0.2495 -0.0561 -0.2229
  264loPI   C2A 4216   6.229   7.536   9.762 -0.1164 -0.3938  0.2364
  264loPI   C3A 4217   6.254   7.559   9.313 -0.0689 -0.0066 -0.1160
  264loPI   C4A 4218   6.476   7.655   8.920  0.1748  0.1739 -0.3296
  264loPI   C5A 4219   6.563   7.722   8.584  0.0750  0.1691  0.0853
  264loPI   C6A 4220   6.643   7.549   8.227  0.3664  0.1245  0.1850
  264loPI   C1B 4221   6.439   7.118  10.038  0.0369  0.4638 -0.2344
  264loPI   C2B 4222   6.407   7.074   9.541 -0.1535 -0.1674 -0.0109
  264loPI   C3B 4223   6.452   7.047   9.126 -0.0785 -0.4687  0.1732
  264loPI   C4B 4224   6.390   7.210   8.682 -0.1244  0.0193  0.0467
  265loPI    C1 4225  15.698   3.945  11.285 -0.1054 -0.0407  0.1694
  265loPI    C2 4226  15.793   4.193  11.585  0.0540 -0.0770  0.1500
  265loPI    C3 4227  15.436   4.012  11.579 -0.0096  0.0449  0.2360
  265loPI   PO4 4228  15.851   4.102  11.026  0.1270  0.2774  0.1327
  265loPI   GL1 4229  15.998   4.054  10.631 -0.3376 -0.0302  0.5455
  265loPI   GL2 4230  15.731   4.066  10.504  0.1762 -0.1705 -0.0190
  265loPI   C1A 4231  16.200   4.082  10.236 -0.1714  0.1505 -0.1971
  265loPI   C2A 4232  16.222   4.094   9.786 -0.2411  0.1016 -0.0137
  265loPI   C3A 4233  16.186   4.212   9.361  0.0649  0.0761 -0.1220
  265loPI   C4A 4234  16.231   4.170   8.910  0.2737  0.3489  0.1211
  265loPI   C5A 4235  16.466   3.986   8.584  0.1088 -0.0211 -0.2774
  265loPI   C6A 4236  16.396   3.703   8.211 -0.0634 -0.0495  0.0179
  265loPI   C1B 4237  15.554   4.002  10.174  0.1124 -0.2343 -0.0419
  265loPI   C2B 4238  15.354   3.860   9.758  0.0676  0.1346 -0.2116
  265loPI   C3B 4239  15.387   3.771   9.370 -0.0922 -0.0199 -0.0388
  265loPI   C4B 4240  15.333   3.623   8.949  0.0936 -0.0807  0.2412
  266loPI    C1 4241   0.443  17.100  10.996 -0.0774  0.0828 -0.0026
  266loPI    C2 4242   0.257  17.435  11.112 -0.0428  0.2049 -0.2911
  266loPI    C3 4243   0.597  17.322  11.292 -0.1323  0.2444 -0.0944
  266loPI   PO4 4244   0.492  17.144  10.728 -0.2104  0.1815 -0.1634
  266loPI   GL1 4245   0.464  17.003  10.316  0.1794 -0.0528 -0.0053
  266loPI   GL2 4246   0.510  16.658  10.233 -0.2394  0.1633  0.0147
  266loPI   C1A 4247   0.528  17.071   9.857  0.1421 -0.0454 -0.1652
  266loPI   C2A 4248   0.710  17.230   9.454  0.1136 -0.0680  0.1246
  266loPI   C3A 4249   0.590  17.510   9.045 -0.0904 -0.1006  0.1825
  266loPI   C4A 4250   0.336  17.460   8.749  0.0056  0.2422  0.0069
  266loPI   C5A 4251   0.018  17.229   8.468 -0.1195  0.3958  0.1302
  266loPI   C6A 4252  -0.087  16.875   8.153  0.5134  0.1158  0.3143
  266loPI   C1B 4253   0.649  16.545   9.786 -0.0833  0.1814  0.1558
  266loPI   C2B 4254   0.712  16.716   9.370 -0.3138 -0.0782  0.1355
  266loPI   C3B 4255   0.788  16.621   8.884 -0.0634  0.3443 -0.1944
  266loPI   C4B 4256   0.477  16.469   8.534  0.0574  0.0505  0.1464
  267loPI    C1 4257  17.177  17.322  10.934 -0.1982  0.0321  0.0850
  267loPI    C2 4258  17.395  17.533  11.195 -0.0315 -0.2106  0.1445
  267loPI    C3 4259  17.018  17.433  11.284 -0.0054 -0.2137  0.2534
  267loPI   PO4 4260  17.229  17.439  10.740 -0.4781  0.3546 -0.1435
  267loPI   GL1 4261  17.201  17.446  10.312 -0.1202  0.1487 -0.0314
  267loPI   GL2 4262  16.933  17.665  10.159 -0.0555  0.1319  0.1001
  267loPI   C1A 4263  17.245  17.275   9.851 -0.0190 -0.3361  0.1276
  267loPI   C2A 4264  17.363  17.337   9.469 -0.0686  0.3306 -0.0657
  267loPI   C3A 4265  17.244  17.192   9.159  0.1976  0.2441 -0.0045
  267loPI   C4A 4266  17.214  16.922   8.844  0.1697  0.0049 -0.0959
  267loPI   C5A 4267  17.178  16.977   8.443 -0.3130  0.1150 -0.3417
  267loPI   C6A 4268  16.750  16.983   8.086  0.1372  0.0627  0.1192
  267loPI   C1B 4269  16.993  17.717   9.698 -0.2184 -0.0625  0.2898
  267loPI   C2B 4270  17.088  17.721   9.291 -0.2030 -0.0991 -0.0912
  267loPI   C3B 4271  17.018  17.770   8.969 -0.0907  0.2968 -0.0600
  267loPI   C4B 4272  16.871  17.764   8.638 -0.1735  0.0241  0.0400
  268loPI    C1 4273  15.990  12.051  10.746  0.0682  0.0728 -0.0158
  268loPI    C2 4274  15.593  12.022  10.787  0.0431  0.2284 -0.1395
  268loPI    C3 4275  15.826  12.056  11.110 -0.0430  0.1269 -0.0662
  268loPI   PO4 4276  16.063  12.170  10.587  0.0121 -0.1162 -0.0686
  268loPI   GL1 4277  15.902  12.192  10.266  0.1648 -0.2416  0.3167
  268loPI   GL2 4278  15.698  11.876  10.322 -0.2212 -0.0631  0.0198
  268loPI   C1A 4279  16.143  12.382   9.917  0.2860  0.1686 -0.1234
  268loPI   C2A 4280  16.124  12.479   9.543  0.4943  0.2487 -0.1659
  268loPI   C3A 4281  16.286  12.516   9.142 -0.2915 -0.3506  0.3797
  268loPI   C4A 4282  16.216  12.763   8.844 -0.0265  0.1426 -0.1118
  268loPI   C5A 4283  16.377  13.104   8.545  0.0990  0.2007 -0.1512
  268loPI   C6A 4284  16.198  13.486   8.428  0.0174 -0.4952  0.2306
  268loPI   C1B 4285  15.733  11.995   9.827 -0.3325 -0.4086  0.2394
  268loPI   C2B 4286  15.658  12.108   9.401 -0.2591 -0.2085 -0.1405
  268loPI   C3B 4287  15.830  12.111   9.017 -0.1157  0.2853  0.2085
  268loPI   C4B 4288  16.051  12.282   8.818  0.2142 -0.0490  0.1634
  269loPI    C1 4289  17.090   2.037  11.136 -0.1204  0.0049  0.0442
  269loPI    C2 4290  16.752   1.824  11.121 -0.2564  0.2112  0.1357
  269loPI    C3 4291  16.803   2.098  11.408  0.1267 -0.0462  0.3217
  269loPI   PO4 4292  17.063   2.108  10.796 -0.1672 -0.4297  0.0839
  269loPI   GL1 4293  16.907   1.852  10.567 -0.0633 -0.1598 -0.0818
  269loPI   GL2 4294  16.676   1.659  10.532  0.1199  0.1779 -0.1387
  269loPI   C1A 4295  17.079   1.697  10.173  0.2341  0.3087  0.0078
  269loPI   C2A 4296  17.040   1.423   9.857  0.1775  0.0739  0.3968
  269loPI   C3A 4297  16.984   1.372   9.451 -0.0506  0.2730 -0.0137
  269loPI   C4A 4298  17.019   1.403   8.970  0.0748  0.2198  0.0295
  269loPI   C5A 4299  16.937   1.469   8.578  0.0795 -0.3521  0.3750
  269loPI   C6A 4300  17.000   1.077   8.401  0.4873 -0.0585  0.0679
  269loPI   C1B 4301  16.579   1.834  10.148 -0.2801  0.1245  0.1413
  269loPI   C2B 4302  16.694   1.757   9.821  0.0449  0.2485 -0.0264
  269loPI   C3B 4303  16.715   1.764   9.378 -0.0141 -0.3906  0.2456
  269loPI   C4B 4304  16.769   1.856   8.902  0.1418 -0.0758 -0.1222
  270loPI    C1 4305   8.171   7.145  10.956  0.0894 -0.1043 -0.0167
  270loPI    C2 4306   7.931   6.867  11.115 -0.1224  0.1129  0.0499
  270loPI    C3 4307   8.221   7.031  11.336 -0.0092 -0.0396  0.0162
  270loPI   PO4 4308   8.049   7.292  10.796  0.1435  0.0266 -0.1008
  270loPI   GL1 4309   8.050   7.449  10.333 -0.4006  0.2210  0.2951
  270loPI   GL2 4310   7.768   7.423  10.262  0.1970 -0.1965  0.0481
  270loPI   C1A 4311   8.174   7.368   9.928 -0.0552 -0.0908 -0.2566
  270loPI   C2A 4312   8.168   7.443   9.585 -0.0194  0.3434 -0.2026
  270loPI   C3A 4313   8.162   7.388   9.131 -0.1854  0.1020 -0.1535
  270loPI   C4A 4314   8.023   7.694   8.842  0.1422 -0.1152  0.0474
  270loPI   C5A 4315   7.909   7.816   8.382 -0.0062  0.2198  0.0832
  270loPI   C6A 4316   8.136   7.725   8.010 -0.1246 -0.1206 -0.4708
  270loPI   C1B 4317   7.657   7.297   9.856  0.0394  0.0281  0.2143
  270loPI   C2B 4318   7.698   7.286   9.424  0.1234  0.1892 -0.0719
  270loPI   C3B 4319   7.720   7.293   8.953  0.1687 -0.2431  0.2277
  270loPI   C4B 4320   7.454   7.517   8.619 -0.2222 -0.0748  0.1208
  271loPI    C1 4321   1.181  11.010  10.292  0.1264  0.2608  0.0077
  271loPI    C2 4322   1.102  11.282  10.575  0.1485  0.0432  0.2272
  271loPI    C3 4323   1.481  11.207  10.470  0.1414  0.1091  0.1524
  271loPI   PO4 4324   0.907  10.893  10.300 -0.2774 -0.0056  0.1233
  271loPI   GL1 4325   0.583  10.820  10.081 -0.2044 -0.1741 -0.3984
  271loPI   GL2 4326   0.726  10.535   9.937  0.0123  0.1901 -0.2411
  271loPI   C1A 4327   0.415  10.922   9.699 -0.3367  0.2865 -0.1201
  271loPI   C2A 4328   0.295  10.906   9.402 -0.2138 -0.0318 -0.0668
  271loPI   C3A 4329   0.325  10.900   8.985  0.0053 -0.0122  0.3341
  271loPI   C4A 4330   0.281  11.012   8.592  0.2296 -0.0685 -0.0892
  271loPI   C5A 4331   0.235  11.325   8.458 -0.1337 -0.0208 -0.1281
  271loPI   C6A 4332   0.190  11.543   8.046  0.2557 -0.1539  0.1562
  271loPI   C1B 4333   0.764  10.595   9.575  0.0720  0.1203  0.0181
  271loPI   C2B 4334   0.676  10.592   9.163 -0.0954  0.0987 -0.2817
  271loPI   C3B 4335   0.700  10.666   8.779  0.0352 -0.1843  0.2194
  271loPI   C4B 4336   0.662  10.812   8.311 -0.1233 -0.0186  0.1810
  272loPI    C1 4337   9.964   1.203  10.814 -0.1890  0.1239 -0.0452
  272loPI    C2 4338  10.058   1.091  11.186 -0.0685  0.0804 -0.0882
  272loPI    C3 4339   9.796   0.876  10.973  0.0820 -0.0617 -0.1325
  272loPI   PO4 4340  10.221   1.197  10.663 -0.0625 -0.1579  0.1097
  272loPI   GL1 4341  10.464   1.013  10.487 -0.0398 -0.0621 -0.1141
  272loPI   GL2 4342  10.742   1.169  10.525  0.0991 -0.2030 -0.4839
  272loPI   C1A 4343  10.291   0.793  10.144 -0.1117 -0.0756  0.0142
  272loPI   C2A 4344  10.359   0.633   9.775 -0.0570  0.0706 -0.0111
  272loPI   C3A 4345  10.257   0.822   9.386  0.2168 -0.4204 -0.1381
  272loPI   C4A 4346  10.021   0.864   9.064 -0.0062 -0.1904  0.1012
  272loPI   C5A 4347   9.848   1.172   8.738 -0.1824  0.1889 -0.0854
  272loPI   C6A 4348   9.566   1.571   8.773 -0.0452 -0.0279 -0.1743
  272loPI   C1B 4349  10.773   1.251  10.071  0.3520  0.2157 -0.2745
  272loPI   C2B 4350  10.587   1.093   9.684 -0.1156 -0.2135  0.0292
  272loPI   C3B 4351  10.513   1.223   9.249 -0.1932  0.3001  0.1274
  272loPI   C4B 4352  10.328   1.101   8.777 -0.2057 -0.0213  0.4564
  273loPI    C1 4353   0.659  15.574  11.091 -0.1145  0.0483 -0.1371
  273loPI    C2 4354   0.521  15.910  10.923 -0.0539  0.2095  0.1277
  273loPI    C3 4355   0.703  15.925  11.278  0.1345 -0.0783  0.0472
  273loPI   PO4 4356   0.490  15.378  10.863  0.2041  0.1781  0.2293
  273loPI   GL1 4357   0.358  15.449  10.481 -0.1608 -0.0866 -0.0572
  273loPI   GL2 4358   0.381  15.852  10.472  0.2046  0.1965  0.1887
  273loPI   C1A 4359   0.395  15.182  10.052 -0.0394  0.1628  0.1074
  273loPI   C2A 4360   0.110  15.184   9.725 -0.1174  0.0454  0.2207
  273loPI   C3A 4361  -0.066  15.183   9.230  0.1210  0.0163  0.2979
  273loPI   C4A 4362   0.060  15.149   8.841  0.3657 -0.2854  0.1104
  273loPI   C5A 4363  -0.042  15.037   8.425  0.1369  0.0245  0.0213
  273loPI   C6A 4364  -0.158  14.631   8.451  0.0224 -0.1294  0.0471
  273loPI   C1B 4365   0.308  16.082  10.166  0.0378  0.4676  0.0487
  273loPI   C2B 4366   0.237  16.216   9.815 -0.0639  0.0200 -0.1780
  273loPI   C3B 4367   0.216  16.386   9.342  0.0822 -0.1463  0.0971
  273loPI   C4B 4368   0.299  16.586   8.970  0.4477 -0.1743 -0.0735
  274loPI    C1 4369  13.979  10.860  10.981  0.0268 -0.1681 -0.1203
  274loPI    C2 4370  14.156  10.612  11.240  0.1549  0.0521  0.0071
  274loPI    C3 4371  13.791  10.756  11.319  0.2020  0.1347  0.0759
  274loPI   PO4 4372  14.069  10.645  10.715  0.1787  0.2010 -0.4238
  274loPI   GL1 4373  14.146  10.540  10.264 -0.3869  0.1196  0.0474
  274loPI   GL2 4374  13.829  10.709  10.305  0.1001 -0.3263 -0.1048
  274loPI   C1A 4375  14.326  10.762   9.913 -0.0865  0.2029 -0.0748
  274loPI   C2A 4376  14.243  10.761   9.561  0.1069 -0.0889 -0.2052
  274loPI   C3A 4377  14.238  10.923   9.256  0.2557 -0.1954 -0.0493
  274loPI   C4A 4378  14.224  10.962   8.813 -0.1563 -0.1770  0.0198
  274loPI   C5A 4379  13.996  11.164   8.477  0.1644  0.1720 -0.1728
  274loPI   C6A 4380  13.863  11.488   8.209  0.3314  0.0433  0.1737
  274loPI   C1B 4381  13.877  10.879   9.921  0.2001 -0.3489 -0.1483
  274loPI   C2B 4382  13.757  10.921   9.533 -0.2947  0.0508  0.1657
  274loPI   C3B 4383  13.758  10.771   9.042  0.0638 -0.1604  0.0941
  274loPI   C4B 4384  13.739  10.725   8.635 -0.0461  0.2313  0.3754
  275loPI    C1 4385  16.286  16.108  11.251 -0.1025  0.3441  0.1283
  275loPI    C2 4386  16.651  16.162  11.406  0.0078 -0.2108  0.0826
  275loPI    C3 4387  16.334  16.126  11.648 -0.0145  0.2190  0.1241
  275loPI   PO4 4388  16.299  16.226  10.995 -0.2083 -0.0799 -0.1190
  275loPI   GL1 4389  16.183  16.111  10.528  0.3178 -0.0244  0.1934
  275loPI   GL2 4390  16.492  15.902  10.590 -0.2233  0.2336 -0.3042
  275loPI   C1A 4391  16.320  16.190  10.092  0.0649  0.1709  0.3087
  275loPI   C2A 4392  16.303  16.184   9.647  0.0905 -0.0500  0.1099
  275loPI   C3A 4393  16.140  16.312   9.314 -0.0170  0.0962  0.1363
  275loPI   C4A 4394  16.128  16.476   8.968  0.1498  0.1332  0.0879
  275loPI   C5A 4395  16.394  16.462   8.576 -0.1028  0.2088  0.0456
  275loPI   C6A 4396  16.211  16.614   8.128 -0.2534  0.0032 -0.5184
  275loPI   C1B 4397  16.655  15.787  10.088  0.1162 -0.3341 -0.1280
  275loPI   C2B 4398  16.666  15.933   9.789 -0.0161 -0.1010  0.0455
  275loPI   C3B 4399  16.623  15.858   9.401 -0.3301  0.0137 -0.1060
  275loPI   C4B 4400  16.876  15.817   9.020 -0.2350 -0.0401  0.0515
  276loPI    C1 4401  16.912  14.561  10.813 -0.5547  0.1374  0.2153
  276loPI    C2 4402  16.765  14.220  10.663  0.0714 -0.0915  0.0908
  276loPI    C3 4403  16.646  14.348  11.023 -0.1136 -0.4829  0.1741
  276loPI   PO4 4404  17.207  14.575  10.695  0.4623 -0.0731  0.1325
  276loPI   GL1 4405  17.495  14.520  10.391 -0.1430 -0.0842 -0.1007
  276loPI   GL2 4406  17.829  14.523  10.197  0.1283 -0.2832 -0.2236
  276loPI   C1A 4407  17.450  14.740   9.948  0.0465  0.1302  0.0200
  276loPI   C2A 4408  17.597  14.750   9.524 -0.0271 -0.0472 -0.3383
  276loPI   C3A 4409  17.630  14.683   9.102 -0.1339  0.1038  0.2717
  276loPI   C4A 4410  17.717  14.242   8.888  0.0359 -0.2750  0.1837
  276loPI   C5A 4411  17.476  14.122   8.533 -0.0332 -0.1823  0.1476
  276loPI   C6A 4412  17.018  13.931   8.506  0.1319 -0.4382 -0.2345
  276loPI   C1B 4413  18.031  14.730   9.850  0.2270  0.0388 -0.2639
  276loPI   C2B 4414  18.121  14.728   9.328 -0.1435 -0.2874  0.0163
  276loPI   C3B 4415  18.053  14.663   8.818  0.1387 -0.3888 -0.0659
  276loPI   C4B 4416  18.200  14.595   8.374  0.2786  0.0703  0.2397
  277loPI    C1 4417   6.695  15.975  11.164 -0.0077  0.0082  0.0241
  277loPI    C2 4418   6.892  16.269  11.349 -0.1230  0.1262 -0.0389
  277loPI    C3 4419   6.704  15.989  11.563  0.3325 -0.1412  0.0256
  277loPI   PO4 4420   6.564  16.085  10.956 -0.0698 -0.3214  0.1497
  277loPI   GL1 4421   6.774  16.084  10.608 -0.0129 -0.3886  0.1854
  277loPI   GL2 4422   6.627  16.050  10.412 -0.1127 -0.1771 -0.1641
  277loPI   C1A 4423   7.047  15.893  10.259 -0.1318  0.0727 -0.1097
  277loPI   C2A 4424   7.034  15.776   9.926  0.2787 -0.3153  0.1415
  277loPI   C3A 4425   6.987  15.673   9.482 -0.2384 -0.2439 -0.0042
  277loPI   C4A 4426   6.781  15.658   9.059 -0.0713 -0.0452 -0.1494
  277loPI   C5A 4427   6.781  15.427   8.697 -0.2311  0.1892 -0.0708
  277loPI   C6A 4428   6.818  15.046   8.563  0.0361  0.1681  0.3470
  277loPI   C1B 4429   6.807  16.207   9.898 -0.1531  0.0678 -0.0138
  277loPI   C2B 4430   7.047  16.164   9.470 -0.0509 -0.1576 -0.0038
  277loPI   C3B 4431   6.994  16.104   9.095  0.1866 -0.4293 -0.2891
  277loPI   C4B 4432   6.992  15.898   8.689  0.2351  0.0628  0.0522
  278loPI    C1 4433  14.194  10.053  10.625  0.2080  0.2052 -0.1754
  278loPI    C2 4434  14.460   9.869  10.861  0.0145  0.0692 -0.0596
  278loPI    C3 4435  14.382  10.258  10.912 -0.0135  0.0444  0.0909
  278loPI   PO4 4436  14.266   9.874  10.408 -0.4083  0.2395  0.1111
  278loPI   GL1 4437  14.294   9.777  10.004  0.0507 -0.2571  0.0716
  278loPI   GL2 4438  14.621   9.610  10.015 -0.3428  0.2345  0.0517
  278loPI   C1A 4439  14.371   9.841   9.565 -0.1220  0.3039  0.1632
  278loPI   C2A 4440  14.369   9.666   9.223 -0.1784 -0.0854  0.0201
  278loPI   C3A 4441  14.330   9.739   8.845 -0.2949  0.3288  0.0379
  278loPI   C4A 4442  14.329   9.661   8.468  0.0661  0.0976  0.0401
  278loPI   C5A 4443  14.276   9.485   8.057 -0.0766 -0.1783 -0.0547
  278loPI   C6A 4444  14.431   9.115   7.987  0.2977  0.0365  0.1166
  278loPI   C1B 4445  14.840   9.277   9.837 -0.1470  0.4626  0.0789
  278loPI   C2B 4446  14.833   9.135   9.448  0.1494 -0.1621  0.0449
  278loPI   C3B 4447  14.909   9.357   9.036 -0.2790  0.0106 -0.0256
  278loPI   C4B 4448  15.192   9.233   8.654  0.1350  0.3520  0.3953
  279loPI    C1 4449  10.368  12.847  10.962  0.0542 -0.2021  0.2710
  279loPI    C2 4450  10.038  13.039  11.081 -0.0796 -0.2656  0.0114
  279loPI    C3 4451  10.010  12.673  10.924  0.1002 -0.2189 -0.1334
  279loPI   PO4 4452  10.465  13.111  10.834 -0.3129  0.0462 -0.2474
  279loPI   GL1 4453  10.455  13.408  10.510 -0.1953  0.0588 -0.0504
  279loPI   GL2 4454  10.250  13.543  10.391  0.0915 -0.0385 -0.0229
  279loPI   C1A 4455  10.799  13.307  10.225  0.1466 -0.4192  0.1485
  279loPI   C2A 4456  10.853  13.349   9.776 -0.0652  0.0013 -0.2407
  279loPI   C3A 4457  10.768  13.268   9.317  0.2142  0.1122  0.0013
  279loPI   C4A 4458  10.724  13.317   8.939 -0.0295  0.1377 -0.0695
  279loPI   C5A 4459  10.516  13.361   8.505 -0.2082 -0.1850  0.0117
  279loPI   C6A 4460  10.526  13.378   8.099 -0.0472  0.0012  0.0284
  279loPI   C1B 4461  10.350  13.454  10.015 -0.0227 -0.1632  0.0757
  279loPI   C2B 4462  10.347  13.453   9.632  0.1082  0.2275  0.0285
  279loPI   C3B 4463  10.273  13.509   9.262 -0.0269  0.0259 -0.3186
  279loPI   C4B 4464  10.141  13.560   8.783 -0.0239 -0.2441  0.0376
  280loPI    C1 4465   5.539  14.695  11.017 -0.1519 -0.0057  0.3322
  280loPI    C2 4466   5.356  15.021  11.160  0.1465  0.2591  0.1257
  280loPI    C3 4467   5.675  14.872  11.349  0.0078  0.0810  0.2223
  280loPI   PO4 4468   5.511  14.748  10.742  0.0858 -0.0809  0.3514
  280loPI   GL1 4469   5.247  14.788  10.364 -0.4387 -0.1280  0.0368
  280loPI   GL2 4470   5.542  14.592  10.210 -0.0319 -0.0492  0.0396
  280loPI   C1A 4471   5.127  14.857   9.998  0.0477 -0.0561 -0.2058
  280loPI   C2A 4472   4.993  14.918   9.488 -0.2928  0.2331  0.1551
  280loPI   C3A 4473   4.788  15.054   9.116 -0.1174 -0.0788 -0.1029
  280loPI   C4A 4474   4.597  14.994   8.650  0.2384  0.0070 -0.0312
  280loPI   C5A 4475   4.062  14.871   8.545 -0.1555  0.2801  0.2659
  280loPI   C6A 4476   3.690  15.107   8.440 -0.3146 -0.0165  0.0766
  280loPI   C1B 4477   5.430  14.560   9.764 -0.0733 -0.1054 -0.0477
  280loPI   C2B 4478   5.233  14.515   9.359 -0.0466 -0.0852 -0.4380
  280loPI   C3B 4479   4.966  14.222   9.166  0.1063 -0.2316  0.2248
  280loPI   C4B 4480   4.782  14.201   8.799 -0.0295  0.0467 -0.3266
  281loPI    C1 4481   5.844   1.137  11.121  0.0648  0.1031  0.1401
  281loPI    C2 4482   5.667   1.308  11.437  0.1762  0.0515  0.2310
  281loPI    C3 4483   5.511   0.978  11.274  0.0114  0.1872  0.1115
  281loPI   PO4 4484   5.882   1.345  10.916  0.0860 -0.0458 -0.3052
  281loPI   GL1 4485   5.820   1.304  10.462 -0.1754 -0.0243 -0.1416
  281loPI   GL2 4486   5.459   1.311  10.532 -0.2630 -0.1319 -0.0519
  281loPI   C1A 4487   5.757   1.648  10.199 -0.0918 -0.3582 -0.0366
  281loPI   C2A 4488   5.713   1.674   9.824 -0.0382  0.0866  0.1380
  281loPI   C3A 4489   5.634   1.791   9.400  0.2889  0.0241  0.1361
  281loPI   C4A 4490   5.589   2.087   9.152  0.0223 -0.1091  0.2634
  281loPI   C5A 4491   5.615   2.429   8.750 -0.2721 -0.0445 -0.2235
  281loPI   C6A 4492   5.523   2.824   8.662  0.1288  0.3047  0.3755
  281loPI   C1B 4493   5.432   1.287  10.073 -0.1925 -0.0129  0.4583
  281loPI   C2B 4494   5.385   1.345   9.571  0.0371  0.0775  0.2029
  281loPI   C3B 4495   5.344   1.379   9.225 -0.1310  0.0319 -0.0177
  281loPI   C4B 4496   5.491   1.569   8.850 -0.0076 -0.1037  0.2394
  282loPI    C1 4497  17.019   1.056  11.027  0.2617 -0.1069 -0.0357
  282loPI    C2 4498  17.058   0.685  10.882  0.0422 -0.1441 -0.0023
  282loPI    C3 4499  16.959   0.741  11.266  0.0029 -0.0522 -0.0256
  282loPI   PO4 4500  16.872   1.188  10.816 -0.2924 -0.2932 -0.2104
  282loPI   GL1 4501  16.909   1.225  10.420  0.1685 -0.0917  0.0328
  282loPI   GL2 4502  17.181   0.905  10.433 -0.0495 -0.2225 -0.0112
  282loPI   C1A 4503  16.596   1.307  10.151 -0.3225  0.1627 -0.0387
  282loPI   C2A 4504  16.459   1.291   9.678  0.1484  0.0621  0.0359
  282loPI   C3A 4505  16.495   1.287   9.228  0.0189  0.1645  0.0262
  282loPI   C4A 4506  16.391   1.464   8.927  0.0880 -0.1591 -0.1264
  282loPI   C5A 4507  15.901   1.625   8.941  0.2618  0.1312 -0.0827
  282loPI   C6A 4508  15.525   1.468   8.751  0.3647 -0.0558 -0.1651
  282loPI   C1B 4509  17.329   1.104  10.066  0.1859 -0.2182  0.2874
  282loPI   C2B 4510  17.421   1.085   9.632  0.1965 -0.3011  0.0430
  282loPI   C3B 4511  17.382   1.073   9.196  0.2715  0.1923  0.0839
  282loPI   C4B 4512  17.403   0.991   8.776 -0.0615  0.0983 -0.1642
  283loPI    C1 4513  15.789  11.559  10.743  0.1589  0.0955 -0.1078
  283loPI    C2 4514  15.692  11.565  11.131 -0.4421  0.0066 -0.2465
  283loPI    C3 4515  15.853  11.236  10.970 -0.1737  0.0503 -0.0723
  283loPI   PO4 4516  15.537  11.549  10.647 -0.2099 -0.2242 -0.2445
  283loPI   GL1 4517  15.439  11.382  10.291 -0.1030 -0.2036 -0.2139
  283loPI   GL2 4518  15.157  11.239  10.195  0.1662 -0.0272 -0.0347
  283loPI   C1A 4519  15.475  11.523   9.886  0.2255 -0.0866 -0.3411
  283loPI   C2A 4520  15.411  11.541   9.478  0.0125  0.0392 -0.0905
  283loPI   C3A 4521  15.513  11.726   9.091 -0.0752  0.0693 -0.1215
  283loPI   C4A 4522  15.608  11.649   8.709  0.1043  0.1767  0.0115
  283loPI   C5A 4523  15.788  11.825   8.340  0.2128 -0.3006  0.0832
  283loPI   C6A 4524  16.035  11.598   7.993 -0.0855 -0.0283  0.1612
  283loPI   C1B 4525  15.136  11.164   9.768 -0.0970  0.0435 -0.3581
  283loPI   C2B 4526  15.098  11.111   9.299  0.0250 -0.2376 -0.1340
  283loPI   C3B 4527  15.173  11.351   8.922 -0.2076  0.0121  0.3305
  283loPI   C4B 4528  15.011  11.387   8.601 -0.0866  0.0581 -0.1020
  284loPI    C1 4529   6.084   5.615  11.035 -0.1772  0.0519  0.0248
  284loPI    C2 4530   6.372   5.662  11.308 -0.2547  0.0981  0.0995
  284loPI    C3 4531   5.993   5.615  11.424 -0.2425 -0.2453  0.0117
  284loPI   PO4 4532   6.138   5.600  10.848 -0.2092 -0.0689  0.0891
  284loPI   GL1 4533   6.336   5.446  10.425 -0.0425 -0.3082 -0.1932
  284loPI   GL2 4534   5.982   5.593  10.323 -0.1162 -0.0560 -0.1296
  284loPI   C1A 4535   6.475   5.358  10.070  0.2862  0.1106  0.0866
  284loPI   C2A 4536   6.653   5.227   9.769  0.0375  0.1121 -0.2916
  284loPI   C3A 4537   6.615   5.338   9.432 -0.3389 -0.1408  0.4483
  284loPI   C4A 4538   6.653   5.274   8.992  0.2377  0.0337  0.0349
  284loPI   C5A 4539   6.718   5.396   8.544 -0.0087  0.0438  0.1886
  284loPI   C6A 4540   6.954   5.688   8.264  0.2066  0.0655 -0.2467
  284loPI   C1B 4541   6.127   5.709   9.918 -0.1622  0.1776 -0.1293
  284loPI   C2B 4542   6.467   5.712   9.703 -0.0038 -0.0682  0.0760
  284loPI   C3B 4543   6.434   5.790   9.254 -0.2267  0.0916  0.1923
  284loPI   C4B 4544   6.586   5.861   8.793 -0.1193  0.1877  0.0908
  285loPI    C1 4545   6.259   6.505  10.894  0.0942  0.0577  0.0384
  285loPI    C2 4546   6.028   6.830  10.919  0.1595  0.1254 -0.2176
  285loPI    C3 4547   5.904   6.485  11.078  0.0561  0.2554 -0.0115
  285loPI   PO4 4548   6.325   6.475  10.719 -0.4833  0.0073  0.1409
  285loPI   GL1 4549   6.271   6.629  10.337  0.0325  0.1495 -0.0196
  285loPI   GL2 4550   6.081   6.652  10.161 -0.0340 -0.2499  0.2695
  285loPI   C1A 4551   6.534   6.612   9.987  0.0442 -0.1126  0.1300
  285loPI   C2A 4552   6.563   6.564   9.496  0.1966  0.2389  0.0632
  285loPI   C3A 4553   6.614   6.619   9.050  0.0760  0.1157  0.0411
  285loPI   C4A 4554   6.675   6.822   8.606 -0.0332  0.0074  0.1353
  285loPI   C5A 4555   6.858   7.021   8.301 -0.0370  0.0165  0.1278
  285loPI   C6A 4556   7.179   7.313   8.221  0.1532  0.2087  0.0329
  285loPI   C1B 4557   6.136   6.701   9.738 -0.2476  0.2655  0.1195
  285loPI   C2B 4558   6.131   6.715   9.235 -0.1931  0.0051 -0.0725
  285loPI   C3B 4559   6.217   6.718   8.750 -0.0561  0.1861 -0.3750
  285loPI   C4B 4560   6.352   6.556   8.283 -0.0829  0.1363  0.0714
  286loPI    C1 4561   6.365  12.283  11.163  0.0262 -0.0645 -0.0463
  286loPI    C2 4562   6.631  12.557  11.044 -0.1275  0.1235  0.0370
  286loPI    C3 4563   6.668  12.384  11.403 -0.0506  0.0603 -0.0009
  286loPI   PO4 4564   6.420  12.144  10.938  0.0247 -0.2855  0.0468
  286loPI   GL1 4565   6.269  12.085  10.526 -0.0223  0.4349 -0.4055
  286loPI   GL2 4566   6.084  12.061  10.197  0.0019 -0.0452  0.0173
  286loPI   C1A 4567   6.568  11.930  10.226  0.2481  0.1739 -0.3112
  286loPI   C2A 4568   6.549  11.764   9.796 -0.0040  0.2053 -0.2127
  286loPI   C3A 4569   6.566  11.714   9.440 -0.0180  0.2819  0.0572
  286loPI   C4A 4570   6.385  11.758   9.046 -0.0373 -0.0986  0.0878
  286loPI   C5A 4571   5.985  11.844   8.835  0.0611  0.0347 -0.2330
  286loPI   C6A 4572   5.782  11.882   8.466 -0.1784  0.1547 -0.0121
  286loPI   C1B 4573   6.090  11.993   9.799 -0.0069 -0.2952 -0.0283
  286loPI   C2B 4574   6.137  12.078   9.383 -0.2753 -0.1502 -0.0416
  286loPI   C3B 4575   6.275  12.256   9.024 -0.3881  0.0691  0.0833
  286loPI   C4B 4576   6.347  12.555   8.674 -0.0653  0.3624 -0.1071
  287loPI    C1 4577   6.013  13.563  10.830 -0.1992  0.2137  0.0335
  287loPI    C2 4578   5.988  13.243  11.068 -0.2456  0.2104  0.0243
  287loPI    C3 4579   6.225  13.549  11.169  0.0178  0.0532 -0.1055
  287loPI   PO4 4580   6.011  13.535  10.643  0.3133 -0.1117  0.0937
  287loPI   GL1 4581   6.018  13.799  10.347  0.0220 -0.2111 -0.2107
  287loPI   GL2 4582   5.712  14.053  10.240 -0.1672 -0.1126  0.1780
  287loPI   C1A 4583   6.040  13.752   9.882 -0.0293 -0.0688 -0.2555
  287loPI   C2A 4584   5.918  13.759   9.502  0.0645 -0.0070 -0.1103
  287loPI   C3A 4585   5.713  13.767   9.177 -0.1563 -0.1247  0.0055
  287loPI   C4A 4586   5.632  13.863   8.815 -0.0140 -0.2152 -0.1019
  287loPI   C5A 4587   5.464  13.676   8.404  0.2638  0.2777  0.2303
  287loPI   C6A 4588   5.422  13.451   8.104  0.0204 -0.1079 -0.3048
  287loPI   C1B 4589   5.804  14.212   9.879  0.0081  0.1276  0.0243
  287loPI   C2B 4590   5.786  14.255   9.456  0.0489  0.2212 -0.0753
  287loPI   C3B 4591   5.610  14.249   9.090 -0.0813  0.2409 -0.0430
  287loPI   C4B 4592   5.296  14.226   8.739 -0.1449 -0.1853  0.1016
  288loPI    C1 4593  11.771   4.773  11.309 -0.0422 -0.1250  0.1130
  288loPI    C2 4594  11.412   4.703  11.472 -0.2631  0.2854 -0.1779
  288loPI    C3 4595  11.622   5.027  11.580  0.1745 -0.1173  0.2272
  288loPI   PO4 4596  11.731   4.542  10.994  0.0117  0.2625 -0.0878
  288loPI   GL1 4597  11.722   4.405  10.491 -0.0673 -0.1172  0.0441
  288loPI   GL2 4598  11.985   4.612  10.436 -0.1240 -0.1749  0.0002
  288loPI   C1A 4599  11.615   4.444  10.041 -0.1936  0.1670  0.1043
  288loPI   C2A 4600  11.643   4.365   9.654 -0.1548 -0.0207  0.4169
  288loPI   C3A 4601  11.535   4.453   9.163 -0.3163 -0.1351  0.2088
  288loPI   C4A 4602  11.493   4.454   8.746 -0.1967 -0.2501  0.3875
  288loPI   C5A 4603  11.136   4.533   8.463  0.0495 -0.3827 -0.4074
  288loPI   C6A 4604  10.773   4.417   8.214 -0.0143  0.0303 -0.3636
  288loPI   C1B 4605  12.092   4.732  10.046  0.0275  0.0965  0.1957
  288loPI   C2B 4606  12.057   4.713   9.623 -0.0213  0.2944  0.0539
  288loPI   C3B 4607  12.009   4.897   9.246  0.2007 -0.1037 -0.2902
  288loPI   C4B 4608  11.870   4.748   8.888  0.0440 -0.3354  0.0989
  289loPI    C1 4609   6.839   9.833  11.003 -0.0280 -0.0642  0.0566
  289loPI    C2 4610   7.069   9.525  10.892 -0.0267  0.0217 -0.1851
  289loPI    C3 4611   7.210   9.797  11.148 -0.0417 -0.1974  0.0598
  289loPI   PO4 4612   6.715   9.862  10.743 -0.0598 -0.1333 -0.0382
  289loPI   GL1 4613   6.701  10.066  10.397  0.0264 -0.1086 -0.0871
  289loPI   GL2 4614   6.421  10.018  10.278  0.3005  0.1098  0.0668
  289loPI   C1A 4615   6.795   9.921  10.008 -0.1133  0.0096 -0.1550
  289loPI   C2A 4616   6.894   9.893   9.516  0.1222 -0.0126 -0.0041
  289loPI   C3A 4617   6.815   9.773   9.142  0.0445  0.0292  0.1414
  289loPI   C4A 4618   6.839   9.889   8.782 -0.5342 -0.0229 -0.2309
  289loPI   C5A 4619   6.778   9.761   8.393  0.0895  0.0523 -0.0960
  289loPI   C6A 4620   6.804   9.342   8.233  0.0634  0.3010 -0.0384
  289loPI   C1B 4621   6.370  10.013   9.769  0.1382 -0.1296  0.1551
  289loPI   C2B 4622   6.372  10.033   9.356 -0.1080  0.2466 -0.1081
  289loPI   C3B 4623   6.373  10.009   8.928 -0.0005 -0.3687  0.3488
  289loPI   C4B 4624   6.338  10.118   8.474  0.1772 -0.0792 -0.1462
  290loPI    C1 4625  10.845  17.051  11.372  0.1361 -0.0557 -0.2406
  290loPI    C2 4626  10.963  16.876  11.711 -0.4058 -0.0755 -0.0524
  290loPI    C3 4627  10.900  17.271  11.701 -0.2576 -0.0541 -0.1707
  290loPI   PO4 4628  10.785  16.811  11.192 -0.1312  0.0532  0.5100
  290loPI   GL1 4629  11.008  16.734  10.827  0.1662 -0.0360  0.0182
  290loPI   GL2 4630  10.684  16.820  10.596  0.0981 -0.1124 -0.1178
  290loPI   C1A 4631  11.082  16.532  10.412 -0.1438  0.2645  0.1539
  290loPI   C2A 4632  11.191  16.449   9.999  0.0630  0.0919 -0.5038
  290loPI   C3A 4633  11.129  16.382   9.605  0.1143  0.0614  0.2734
  290loPI   C4A 4634  10.999  16.376   9.112  0.2869  0.0048 -0.1480
  290loPI   C5A 4635  11.098  16.420   8.722 -0.1572  0.0293 -0.1765
  290loPI   C6A 4636  10.952  16.778   8.512  0.1215  0.0308  0.2096
  290loPI   C1B 4637  10.621  16.544  10.205  0.3020 -0.0476  0.4437
  290loPI   C2B 4638  10.502  16.459   9.757  0.0467  0.0950 -0.1126
  290loPI   C3B 4639  10.488  16.463   9.303 -0.2002  0.1472  0.0671
  290loPI   C4B 4640  10.532  16.563   8.837  0.0594  0.0737  0.0110
  291loPI    C1 4641   5.417   7.265  11.107 -0.1155  0.0840 -0.1507
  291loPI    C2 4642   5.666   7.369  11.403 -0.0656 -0.2343 -0.0770
  291loPI    C3 4643   5.464   7.651  11.203  0.2049  0.0132 -0.0087
  291loPI   PO4 4644   5.567   7.006  11.027  0.0945  0.4267 -0.2290
  291loPI   GL1 4645   5.552   6.890  10.689  0.0701 -0.0291 -0.0509
  291loPI   GL2 4646   5.766   7.153  10.599 -0.0168  0.5279 -0.2156
  291loPI   C1A 4647   5.580   6.803  10.254 -0.1535 -0.1259 -0.1353
  291loPI   C2A 4648   5.693   6.802   9.914  0.1105 -0.0328 -0.1672
  291loPI   C3A 4649   5.571   6.843   9.571 -0.1635 -0.3184 -0.0689
  291loPI   C4A 4650   5.557   6.896   9.102  0.0403  0.0806  0.0449
  291loPI   C5A 4651   5.479   6.736   8.713  0.1436  0.0427 -0.2039
  291loPI   C6A 4652   5.235   6.401   8.446  0.1075 -0.0740  0.0912
  291loPI   C1B 4653   5.963   7.250  10.097  0.3220  0.2833 -0.2559
  291loPI   C2B 4654   5.894   7.210   9.740 -0.2674  0.4146  0.0255
  291loPI   C3B 4655   5.917   7.157   9.376  0.0636 -0.1240 -0.1754
  291loPI   C4B 4656   5.979   7.112   9.014 -0.1489  0.0563 -0.1486
  292loPI    C1 4657   9.824   2.236  10.828  0.2124 -0.0246 -0.2357
  292loPI    C2 4658   9.605   2.004  10.586 -0.0248 -0.0719  0.0196
  292loPI    C3 4659   9.509   2.037  10.973  0.3197  0.0434  0.0990
  292loPI   PO4 4660   9.752   2.574  10.640  0.2466 -0.0390  0.2437
  292loPI   GL1 4661   9.713   2.596  10.152  0.1193 -0.0218  0.2255
  292loPI   GL2 4662   9.999   2.681  10.228  0.0554 -0.2814 -0.1152
  292loPI   C1A 4663   9.919   2.280   9.909  0.0963  0.1252 -0.1388
  292loPI   C2A 4664  10.029   1.955   9.537  0.1223 -0.0139 -0.1356
  292loPI   C3A 4665  10.345   1.849   9.236 -0.0075 -0.1374 -0.0103
  292loPI   C4A 4666  10.619   2.067   8.995 -0.0096 -0.0539  0.1141
  292loPI   C5A 4667  10.883   2.179   8.685  0.4997  0.0162  0.1311
  292loPI   C6A 4668  10.725   2.320   8.304 -0.0688 -0.1088 -0.1002
  292loPI   C1B 4669  10.140   2.758   9.804 -0.0323 -0.1265 -0.2239
  292loPI   C2B 4670  10.213   2.920   9.335 -0.0483  0.0494 -0.3521
  292loPI   C3B 4671  10.416   2.982   8.881  0.0013 -0.1176  0.1660
  292loPI   C4B 4672  10.533   3.016   8.462 -0.2363  0.1448  0.2193
  293loPI    C1 4673  15.004   7.173  10.751  0.1786  0.2528  0.0964
  293loPI    C2 4674  14.945   7.496  10.522  0.1903  0.3429  0.2199
  293loPI    C3 4675  15.305   7.427  10.682  0.2595  0.1273 -0.0205
  293loPI   PO4 4676  14.996   6.994  10.643 -0.0934  0.0878 -0.0199
  293loPI   GL1 4677  14.674   7.067  10.273  0.0901  0.0384  0.0767
  293loPI   GL2 4678  15.007   7.149  10.162 -0.2060 -0.1201 -0.0723
  293loPI   C1A 4679  14.592   7.266   9.831 -0.0555 -0.2425 -0.1329
  293loPI   C2A 4680  14.351   7.425   9.505 -0.1471  0.2270 -0.0009
  293loPI   C3A 4681  14.324   7.455   9.152 -0.2733  0.1509  0.0382
  293loPI   C4A 4682  14.164   7.535   8.735  0.0883  0.2056  0.0077
  293loPI   C5A 4683  14.011   7.934   8.470  0.1918 -0.1913 -0.1897
  293loPI   C6A 4684  14.270   8.215   8.277  0.1441 -0.0037 -0.4428
  293loPI   C1B 4685  15.145   7.385   9.731  0.2676 -0.3655 -0.0037
  293loPI   C2B 4686  14.855   7.332   9.434 -0.3086  0.0644  0.0002
  293loPI   C3B 4687  14.611   7.036   9.256 -0.2933  0.0131 -0.1068
  293loPI   C4B 4688  14.806   6.724   8.963  0.0582  0.3602  0.1136
  294loPI    C1 4689  14.609   5.365  11.169  0.1061 -0.2175  0.1024
  294loPI    C2 4690  14.898   5.638  11.129 -0.0197 -0.1185 -0.1485
  294loPI    C3 4691  14.701   5.606  11.475  0.1658 -0.0629 -0.0359
  294loPI   PO4 4692  14.422   5.433  10.872 -0.0196 -0.0286 -0.1872
  294loPI   GL1 4693  14.439   5.340  10.554 -0.1087 -0.2542 -0.1402
  294loPI   GL2 4694  14.373   5.339  10.342  0.2334 -0.0549 -0.0631
  294loPI   C1A 4695  14.755   5.589  10.213 -0.4877 -0.4183 -0.2602
  294loPI   C2A 4696  14.678   5.694   9.809  0.1446  0.3713 -0.3054
  294loPI   C3A 4697  14.717   5.656   9.413 -0.0975 -0.0190 -0.0417
  294loPI   C4A 4698  14.692   5.750   8.990  0.2109 -0.1496  0.1106
  294loPI   C5A 4699  14.515   6.012   8.559  0.0600 -0.1969  0.0040
  294loPI   C6A 4700  14.231   6.233   8.273 -0.3289 -0.0610 -0.1613
  294loPI   C1B 4701  14.237   5.522   9.976  0.0071 -0.0105  0.2119
  294loPI   C2B 4702  14.258   5.359   9.602 -0.0958 -0.0492  0.2467
  294loPI   C3B 4703  14.361   5.179   9.116  0.4015 -0.0139 -0.0641
  294loPI   C4B 4704  14.629   5.266   8.770 -0.1074 -0.3367 -0.0603
  295loPI    C1 4705  15.468  13.444  10.779 -0.1642  0.0798 -0.0420
  295loPI    C2 4706  15.432  13.051  10.848  0.0991  0.0706  0.0546
  295loPI    C3 4707  15.487  13.304  11.153  0.3206  0.1373 -0.0385
  295loPI   PO4 4708  15.627  13.475  10.621 -0.1997  0.0183  0.2582
  295loPI   GL1 4709  15.727  13.300  10.226 -0.5037  0.0590 -0.2403
  295loPI   GL2 4710  15.479  13.103  10.379  0.0462 -0.0253  0.2132
  295loPI   C1A 4711  15.732  13.452   9.861  0.1104 -0.2107  0.2546
  295loPI   C2A 4712  15.536  13.516   9.497 -0.5341 -0.0226  0.3801
  295loPI   C3A 4713  15.472  13.500   9.072 -0.2122  0.2124 -0.0899
  295loPI   C4A 4714  15.406  13.474   8.530  0.1595  0.0716 -0.2998
  295loPI   C5A 4715  15.293  13.387   8.122 -0.0523  0.0525  0.2541
  295loPI   C6A 4716  15.074  13.014   8.043  0.0928 -0.0203 -0.1934
  295loPI   C1B 4717  15.415  13.081   9.823 -0.1775 -0.0302  0.5379
  295loPI   C2B 4718  15.356  13.031   9.371  0.1217  0.3205 -0.1888
  295loPI   C3B 4719  15.352  12.975   8.917  0.0040  0.0303 -0.0576
  295loPI   C4B 4720  15.389  12.977   8.480 -0.0910  0.2348 -0.2041
  296loPI    C1 4721  14.738  16.559  10.984  0.1040 -0.1699  0.0121
  296loPI    C2 4722  15.048  16.700  10.774  0.0011  0.0209 -0.0143
  296loPI    C3 4723  14.993  16.817  11.153 -0.1052  0.0807 -0.0476
  296loPI   PO4 4724  14.544  16.620  10.656 -0.1461  0.0718  0.0679
  296loPI   GL1 4725  14.398  16.507  10.278 -0.0450 -0.0667  0.2377
  296loPI   GL2 4726  14.520  16.298  10.143 -0.0008  0.1723 -0.0658
  296loPI   C1A 4727  14.101  16.695   9.997  0.3135 -0.1556  0.1339
  296loPI   C2A 4728  13.946  16.677   9.576 -0.2673  0.0678  0.0025
  296loPI   C3A 4729  13.899  16.563   9.154 -0.0250  0.2270 -0.1647
  296loPI   C4A 4730  13.866  16.672   8.809 -0.0719  0.1082  0.0394
  296loPI   C5A 4731  13.702  16.692   8.421 -0.1871  0.2190  0.3945
  296loPI   C6A 4732  13.670  16.863   8.015  0.2185  0.1970 -0.2356
  296loPI   C1B 4733  14.345  16.244   9.834  0.2108 -0.1713 -0.1087
  296loPI   C2B 4734  14.105  16.226   9.426 -0.2457  0.1081 -0.1791
  296loPI   C3B 4735  14.103  16.108   9.043  0.0098  0.0156  0.1383
  296loPI   C4B 4736  14.093  15.868   8.639 -0.0548  0.0057  0.3004
  297loPI    C1 4737   1.065  17.281  11.110  0.0190  0.0926 -0.1351
  297loPI    C2 4738   1.285  17.602  11.201 -0.0220  0.0349  0.1780
  297loPI    C3 4739   1.376  17.246  11.358 -0.1423 -0.0532  0.0499
  297loPI   PO4 4740   1.084  17.220  10.879  0.3460 -0.0957  0.0585
  297loPI   GL1 4741   1.268  17.337  10.542  0.2539 -0.1035 -0.0233
  297loPI   GL2 4742   0.841  17.353  10.425 -0.4524 -0.1155 -0.3717
  297loPI   C1A 4743   1.360  17.435  10.164 -0.0110 -0.1569 -0.2385
  297loPI   C2A 4744   1.506  17.558   9.846  0.3441 -0.1019  0.2143
  297loPI   C3A 4745   1.547  17.641   9.378 -0.1967 -0.2605 -0.0099
  297loPI   C4A 4746   1.674  17.657   8.942  0.0052  0.3070  0.0403
  297loPI   C5A 4747   1.711  17.690   8.539 -0.1142 -0.0181 -0.1684
  297loPI   C6A 4748   1.567  17.528   8.094 -0.0208 -0.1644  0.1452
  297loPI   C1B 4749   0.898  17.434   9.953  0.0460  0.2661  0.0136
  297loPI   C2B 4750   1.111  17.496   9.575 -0.0495  0.2360 -0.0220
  297loPI   C3B 4751   1.104  17.558   9.120 -0.3406  0.0455  0.1028
  297loPI   C4B 4752   1.212  17.881   8.795 -0.2127  0.0154 -0.1669
  298loPI    C1 4753   4.958   0.892  11.496  0.2969 -0.2052  0.0209
  298loPI    C2 4754   5.006   1.259  11.648 -0.0301 -0.0853 -0.1548
  298loPI    C3 4755   5.208   0.950  11.803  0.0364  0.1198  0.1775
  298loPI   PO4 4756   5.032   0.861  11.178  0.1385 -0.3313  0.1672
  298loPI   GL1 4757   5.025   1.010  10.664 -0.0525  0.1062 -0.1024
  298loPI   GL2 4758   4.724   1.039  10.742  0.0536 -0.0056  0.0335
  298loPI   C1A 4759   4.867   1.273  10.343  0.0166  0.0735  0.2654
  298loPI   C2A 4760   4.933   1.317   9.900  0.0026  0.1584  0.0478
  298loPI   C3A 4761   4.795   1.279   9.567  0.1077 -0.1443  0.3480
  298loPI   C4A 4762   4.816   1.372   9.188  0.2261 -0.2773  0.1806
  298loPI   C5A 4763   4.930   1.592   8.822  0.1381 -0.1514  0.1498
  298loPI   C6A 4764   5.038   1.393   8.426 -0.0383 -0.1393  0.0330
  298loPI   C1B 4765   4.746   0.732  10.342 -0.0373 -0.0831 -0.2990
  298loPI   C2B 4766   4.612   0.766   9.946  0.0241  0.0550 -0.0946
  298loPI   C3B 4767   4.618   0.597   9.446  0.1087  0.0138  0.2039
  298loPI   C4B 4768   4.606   0.381   9.128  0.3573 -0.2750 -0.1467
  299loPI    C1 4769   3.601   1.447  11.104 -0.0258 -0.0112  0.0721
  299loPI    C2 4770   3.337   1.244  11.326 -0.2295 -0.0112 -0.1656
  299loPI    C3 4771   3.223   1.575  11.133  0.0311  0.1770 -0.0035
  299loPI   PO4 4772   3.689   1.236  10.913 -0.2289 -0.2723  0.0769
  299loPI   GL1 4773   3.770   1.181  10.560 -0.0518 -0.1684  0.2408
  299loPI   GL2 4774   4.140   1.103  10.476  0.2304  0.0283  0.1391
  299loPI   C1A 4775   3.637   1.498  10.276  0.2149  0.0743 -0.3752
  299loPI   C2A 4776   3.568   1.666   9.892 -0.1322  0.1259  0.3859
  299loPI   C3A 4777   3.629   1.997   9.581 -0.0583 -0.2241  0.0641
  299loPI   C4A 4778   3.513   1.929   9.101  0.2372 -0.0577  0.0673
  299loPI   C5A 4779   3.311   2.209   8.818 -0.1658  0.1592  0.2707
  299loPI   C6A 4780   3.436   2.393   8.536  0.0052  0.0390 -0.2923
  299loPI   C1B 4781   4.396   1.136  10.276  0.0347  0.1688  0.1707
  299loPI   C2B 4782   4.377   1.274   9.806  0.0462 -0.0178 -0.0078
  299loPI   C3B 4783   4.236   1.359   9.440  0.0750 -0.0136  0.2627
  299loPI   C4B 4784   4.070   1.108   9.165 -0.2620  0.2022  0.0279
  300loPI    C1 4785  16.169   9.016  10.685  0.0439 -0.2944  0.1200
  300loPI    C2 4786  16.345   9.241  10.965 -0.0755 -0.1457  0.0776
  300loPI    C3 4787  16.405   8.845  10.959 -0.0645 -0.1488  0.3067
  300loPI   PO4 4788  16.071   9.248  10.498  0.1401  0.0183 -0.1930
  300loPI   GL1 4789  15.950   9.305  10.122  0.3351  0.2100 -0.0176
  300loPI   GL2 4790  15.913   8.922  10.147 -0.2393 -0.2030 -0.0253
  300loPI   C1A 4791  15.732   9.212   9.776 -0.0428 -0.1171  0.2964
  300loPI   C2A 4792  15.821   9.279   9.315 -0.0380  0.0562 -0.2339
  300loPI   C3A 4793  16.069   9.273   9.054 -0.2746 -0.2010 -0.0371
  300loPI   C4A 4794  16.292   9.424   8.636  0.0875  0.0180 -0.1547
  300loPI   C5A 4795  16.560   9.747   8.426 -0.0341  0.0153 -0.1740
  300loPI   C6A 4796  16.559  10.122   8.214 -0.0237  0.1093 -0.1907
  300loPI   C1B 4797  16.019   8.833   9.628 -0.1288 -0.0793  0.0369
  300loPI   C2B 4798  16.138   8.803   9.180 -0.1453 -0.0672 -0.1452
  300loPI   C3B 4799  16.279   8.712   8.810 -0.3006 -0.0967 -0.0516
  300loPI   C4B 4800  16.715   8.781   8.595  0.3704  0.1024 -0.0119
  301loPI    C1 4801   8.444  11.265  10.773 -0.0880 -0.0263 -0.0865
  301loPI    C2 4802   8.237  11.503  11.018 -0.0753  0.0748 -0.1730
  301loPI    C3 4803   8.066  11.175  10.867 -0.0988  0.0379 -0.0672
  301loPI   PO4 4804   8.615  11.483  10.618 -0.0155 -0.1062 -0.1298
  301loPI   GL1 4805   8.824  11.437  10.246 -0.1283 -0.2573  0.0407
  301loPI   GL2 4806   8.865  11.096  10.158  0.0203 -0.3332 -0.1192
  301loPI   C1A 4807   9.016  11.667   9.853  0.0773 -0.2843 -0.0676
  301loPI   C2A 4808   8.946  11.699   9.449 -0.0414  0.0527  0.0564
  301loPI   C3A 4809   8.968  11.779   9.122  0.2187 -0.3089  0.2497
  301loPI   C4A 4810   8.935  11.873   8.761 -0.0882 -0.1347  0.2352
  301loPI   C5A 4811   9.064  11.801   8.403  0.1350 -0.1921 -0.1481
  301loPI   C6A 4812   9.298  11.523   8.054  0.5420 -0.1175 -0.4092
  301loPI   C1B 4813   8.932  11.233   9.681  0.0904  0.0183 -0.1255
  301loPI   C2B 4814   8.869  11.294   9.237 -0.0817 -0.1136 -0.1131
  301loPI   C3B 4815   8.828  11.306   8.817  0.0759  0.0845  0.3066
  301loPI   C4B 4816   8.740  11.413   8.333 -0.1576 -0.0357 -0.1601
  302loPI    C1 4817   7.484   6.021  10.786 -0.2711  0.0023  0.0306
  302loPI    C2 4818   7.230   6.142  11.071 -0.0427  0.1844  0.1601
  302loPI    C3 4819   7.575   5.966  11.171 -0.0783  0.0125 -0.0125
  302loPI   PO4 4820   7.366   5.865  10.617  0.0699  0.1035 -0.0087
  302loPI   GL1 4821   7.173   5.913  10.247  0.0793 -0.0405 -0.1074
  302loPI   GL2 4822   7.351   6.132  10.112  0.2805  0.3587  0.2538
  302loPI   C1A 4823   7.445   5.620   9.827  0.0111  0.2300 -0.1598
  302loPI   C2A 4824   7.535   5.461   9.375  0.1098  0.1430  0.0639
  302loPI   C3A 4825   7.544   5.534   8.915 -0.0340  0.2689  0.0498
  302loPI   C4A 4826   7.637   5.826   8.551  0.0780  0.0036 -0.2231
  302loPI   C5A 4827   7.391   5.828   8.174  0.0992 -0.1862  0.0661
  302loPI   C6A 4828   7.185   6.130   7.997  0.0488 -0.4060 -0.0670
  302loPI   C1B 4829   7.266   6.047   9.737 -0.2259 -0.2365 -0.0225
  302loPI   C2B 4830   7.437   5.981   9.340 -0.1322  0.1631  0.0046
  302loPI   C3B 4831   7.255   6.047   8.987  0.0839 -0.2172 -0.0082
  302loPI   C4B 4832   7.137   6.072   8.540  0.2181  0.1002  0.1653
  303loPI    C1 4833  13.209   3.090  10.901  0.0587 -0.0617 -0.3247
  303loPI    C2 4834  13.220   3.487  10.943  0.1385 -0.0786 -0.1803
  303loPI    C3 4835  13.560   3.277  10.942  0.0759 -0.1863  0.1488
  303loPI   PO4 4836  12.961   3.049  10.689 -0.2386 -0.2065  0.1315
  303loPI   GL1 4837  13.048   2.800  10.338 -0.0716  0.1302 -0.0363
  303loPI   GL2 4838  12.741   2.579  10.536  0.1793 -0.1116 -0.0306
  303loPI   C1A 4839  13.208   3.059  10.014  0.2150 -0.0083 -0.1564
  303loPI   C2A 4840  13.182   3.180   9.660  0.0197 -0.0711  0.3429
  303loPI   C3A 4841  13.210   3.142   9.217 -0.1258 -0.0325 -0.4589
  303loPI   C4A 4842  13.342   2.964   8.773  0.0113  0.1786 -0.1631
  303loPI   C5A 4843  13.057   2.719   8.488  0.2217  0.1537  0.1049
  303loPI   C6A 4844  12.687   2.642   8.352 -0.2180  0.0626  0.0122
  303loPI   C1B 4845  12.622   2.655  10.152 -0.1668 -0.0873  0.4175
  303loPI   C2B 4846  12.392   2.783   9.831  0.1154 -0.1247  0.0628
  303loPI   C3B 4847  12.191   2.613   9.499  0.0909 -0.1096  0.0491
  303loPI   C4B 4848  12.168   2.321   9.149  0.3527 -0.1818  0.0096
  304loPI    C1 4849   9.507   8.846  10.821 -0.0258  0.0316 -0.0013
  304loPI    C2 4850   9.525   9.010  11.185  0.2879  0.0777 -0.0348
  304loPI    C3 4851   9.458   8.618  11.147  0.1327  0.0934  0.0672
  304loPI   PO4 4852   9.465   9.051  10.703  0.1109  0.0171 -0.0988
  304loPI   GL1 4853   9.238   9.070  10.325  0.1541  0.0700 -0.1171
  304loPI   GL2 4854   8.913   9.028  10.314  0.5844  0.1820  0.1242
  304loPI   C1A 4855   9.243   8.887   9.909  0.3013  0.3019  0.1097
  304loPI   C2A 4856   9.038   9.003   9.451  0.0100  0.1698 -0.0983
  304loPI   C3A 4857   8.971   8.956   8.943  0.2009  0.0172 -0.0382
  304loPI   C4A 4858   9.052   8.835   8.512  0.0051  0.0531 -0.1616
  304loPI   C5A 4859   9.156   8.451   8.309  0.1414 -0.3448  0.1091
  304loPI   C6A 4860   9.682   8.341   8.231  0.2675 -0.0763 -0.2682
  304loPI   C1B 4861   8.736   9.094   9.853 -0.2054 -0.0239  0.0613
  304loPI   C2B 4862   8.589   9.310   9.516 -0.3365  0.0099 -0.2282
  304loPI   C3B 4863   8.665   9.364   9.027 -0.3197  0.1668  0.1170
  304loPI   C4B 4864   8.832   9.551   8.732 -0.0818  0.1534  0.1116
  305loPI    C1 4865  10.989   3.330  11.310 -0.0993 -0.0659 -0.0647
  305loPI    C2 4866  11.175   3.038  11.510 -0.2761 -0.3075 -0.2487
  305loPI    C3 4867  10.939   3.295  11.706  0.1133 -0.1004 -0.0397
  305loPI   PO4 4868  11.103   3.401  11.174  0.1937 -0.0249  0.1619
  305loPI   GL1 4869  11.238   3.313  10.654  0.0332  0.3566  0.1191
  305loPI   GL2 4870  11.404   3.110  10.584 -0.1266 -0.0792  0.0364
  305loPI   C1A 4871  11.034   3.278  10.279 -0.2271  0.0435 -0.1154
  305loPI   C2A 4872  11.025   3.127   9.855 -0.0227  0.1162 -0.4913
  305loPI   C3A 4873  11.055   3.222   9.511  0.1628  0.2662  0.1862
  305loPI   C4A 4874  11.212   3.256   9.166 -0.2667 -0.1472  0.1145
  305loPI   C5A 4875  11.155   3.215   8.653  0.1658 -0.0299 -0.0487
  305loPI   C6A 4876  11.012   3.091   8.244 -0.1111 -0.2190  0.2650
  305loPI   C1B 4877  11.752   2.906  10.418  0.0435  0.0267  0.0951
  305loPI   C2B 4878  11.873   2.611  10.108  0.0074  0.2300  0.0494
  305loPI   C3B 4879  12.190   2.348  10.010  0.3953 -0.0101  0.0050
  305loPI   C4B 4880  12.508   2.186  10.338 -0.0851 -0.0974  0.0213
  306loPI    C1 4881  11.621  14.014  11.104  0.2242  0.0819 -0.0597
  306loPI    C2 4882  11.569  13.784  11.428 -0.0657  0.0406 -0.1333
  306loPI    C3 4883  11.809  14.104  11.446 -0.1494  0.0898  0.1482
  306loPI   PO4 4884  11.392  14.082  11.012  0.3029  0.2173  0.5344
  306loPI   GL1 4885  11.428  14.240  10.631  0.2367  0.0809 -0.0591
  306loPI   GL2 4886  11.154  14.248  10.478 -0.2912  0.2278  0.0043
  306loPI   C1A 4887  11.549  14.210  10.181 -0.0666 -0.0065  0.3394
  306loPI   C2A 4888  11.541  14.145   9.774 -0.1203 -0.0946 -0.0807
  306loPI   C3A 4889  11.507  14.193   9.427 -0.3017  0.0108 -0.0733
  306loPI   C4A 4890  11.559  14.329   9.082 -0.1320 -0.2480 -0.0101
  306loPI   C5A 4891  11.690  14.154   8.642  0.2178 -0.0463 -0.3000
  306loPI   C6A 4892  11.774  14.250   8.227  0.1400  0.1793 -0.3796
  306loPI   C1B 4893  11.060  14.310  10.099 -0.0886 -0.2794 -0.0526
  306loPI   C2B 4894  11.041  14.285   9.651  0.1328 -0.0511 -0.2407
  306loPI   C3B 4895  11.074  14.177   9.213  0.0587  0.1367 -0.2570
  306loPI   C4B 4896  11.093  14.033   8.852  0.0839  0.0138 -0.0146
  307loPI    C1 4897  12.966   7.603  10.771  0.1086  0.0886 -0.0039
  307loPI    C2 4898  13.089   7.959  10.906 -0.1338  0.0479  0.3374
  307loPI    C3 4899  13.152   7.630  11.124 -0.1453 -0.0834  0.1455
  307loPI   PO4 4900  13.097   7.556  10.529 -0.2046 -0.1263  0.0790
  307loPI   GL1 4901  12.865   7.589  10.199 -0.0849 -0.0247 -0.2307
  307loPI   GL2 4902  13.120   7.374   9.961 -0.0307 -0.0709  0.0175
  307loPI   C1A 4903  12.902   7.689   9.633 -0.2239  0.2056  0.0250
  307loPI   C2A 4904  12.961   7.743   9.211  0.0374  0.1464 -0.6122
  307loPI   C3A 4905  13.005   7.641   8.761  0.1729  0.1086  0.1928
  307loPI   C4A 4906  12.739   7.389   8.597  0.1941  0.1704 -0.1118
  307loPI   C5A 4907  12.393   7.007   8.549  0.0668  0.0082  0.1110
  307loPI   C6A 4908  12.052   6.924   8.674 -0.1713  0.0519 -0.2051
  307loPI   C1B 4909  13.177   7.297   9.587  0.1981 -0.2237  0.1348
  307loPI   C2B 4910  13.286   7.369   9.216  0.0471 -0.0450  0.0910
  307loPI   C3B 4911  13.263   7.153   8.846  0.4589  0.0344 -0.1884
  307loPI   C4B 4912  13.417   6.892   8.532 -0.2872  0.1409 -0.0621
  308loPI    C1 4913   1.202   5.382  11.181 -0.1078 -0.0786  0.0176
  308loPI    C2 4914   0.834   5.516  11.259 -0.0461 -0.0171  0.2111
  308loPI    C3 4915   1.132   5.595  11.512  0.1110 -0.0249  0.0307
  308loPI   PO4 4916   1.280   5.377  10.962 -0.0607  0.4176  0.0324
  308loPI   GL1 4917   1.394   5.445  10.522 -0.1859 -0.0639  0.0534
  308loPI   GL2 4918   1.140   5.283  10.413  0.1306 -0.2434 -0.0258
  308loPI   C1A 4919   1.503   5.577  10.067 -0.2960  0.1920  0.0916
  308loPI   C2A 4920   1.505   5.500   9.639  0.0925 -0.0750  0.0115
  308loPI   C3A 4921   1.500   5.413   9.227 -0.1226 -0.0540  0.0982
  308loPI   C4A 4922   1.619   5.242   8.902  0.1943 -0.0769  0.0538
  308loPI   C5A 4923   1.689   5.072   8.456 -0.4372 -0.0261  0.0241
  308loPI   C6A 4924   1.717   5.225   8.033  0.1183  0.1387  0.0872
  308loPI   C1B 4925   1.083   5.279   9.983  0.0676 -0.1136  0.0989
  308loPI   C2B 4926   1.083   5.255   9.592  0.0964 -0.2599 -0.1783
  308loPI   C3B 4927   1.020   5.288   9.200 -0.2490 -0.1497 -0.0574
  308loPI   C4B 4928   1.153   5.200   8.725  0.2470  0.1501 -0.0642
  309loPI    C1 4929  11.103  12.765  11.064 -0.1747 -0.0706 -0.3381
  309loPI    C2 4930  10.902  13.108  11.105 -0.0165  0.0017 -0.1542
  309loPI    C3 4931  11.046  12.921  11.427  0.3470  0.0332 -0.2937
  309loPI   PO4 4932  10.922  12.578  10.905  0.1417 -0.2367 -0.3508
  309loPI   GL1 4933  10.593  12.711  10.553 -0.1589  0.0322 -0.3644
  309loPI   GL2 4934  10.980  12.859  10.475  0.1373  0.0902  0.0907
  309loPI   C1A 4935  10.703  12.543  10.204 -0.2757 -0.0906 -0.2041
  309loPI   C2A 4936  10.607  12.459   9.797 -0.0033  0.0275 -0.2056
  309loPI   C3A 4937  10.627  12.381   9.368 -0.1245 -0.2099 -0.1765
  309loPI   C4A 4938  10.606  12.330   8.964 -0.2453 -0.1566  0.2560
  309loPI   C5A 4939  10.743  12.498   8.505 -0.1846 -0.0578  0.2151
  309loPI   C6A 4940  10.497  12.900   8.388 -0.1647 -0.0698 -0.0882
  309loPI   C1B 4941  10.979  12.932  10.003 -0.1215  0.1173  0.0690
  309loPI   C2B 4942  10.975  12.848   9.561 -0.2044 -0.1683  0.0657
  309loPI   C3B 4943  10.949  12.767   9.078 -0.0936  0.1543  0.2770
  309loPI   C4B 4944  11.006  12.957   8.657 -0.1563  0.0793  0.0924
  310loPI    C1 4945  10.057   4.455  10.514 -0.0655 -0.1682 -0.1263
  310loPI    C2 4946   9.806   4.346  10.806  0.0580 -0.2492 -0.0497
  310loPI    C3 4947  10.193   4.406  10.886  0.0432 -0.0139 -0.1449
  310loPI   PO4 4948  10.007   4.604  10.445 -0.2190  0.0853 -0.4318
  310loPI   GL1 4949   9.768   4.684  10.041  0.0739  0.2034 -0.2242
  310loPI   GL2 4950   9.547   4.517  10.097 -0.2319  0.1221 -0.0715
  310loPI   C1A 4951  10.028   4.794   9.708 -0.6876  0.0122 -0.0707
  310loPI   C2A 4952  10.031   4.758   9.236  0.0707 -0.0997  0.1129
  310loPI   C3A 4953  10.053   4.683   8.812  0.2057 -0.0481 -0.1537
  310loPI   C4A 4954   9.927   4.485   8.421 -0.0510 -0.1848  0.2512
  310loPI   C5A 4955  10.070   4.473   7.977 -0.0612  0.2660 -0.0282
  310loPI   C6A 4956  10.076   4.613   7.541  0.3846  0.5294  0.2022
  310loPI   C1B 4957   9.111   4.510   9.891 -0.3001 -0.5022 -0.0037
  310loPI   C2B 4958   9.021   4.606   9.479 -0.0113 -0.2121  0.0742
  310loPI   C3B 4959   9.022   4.571   9.015 -0.1073 -0.1033 -0.3186
  310loPI   C4B 4960   8.974   4.536   8.571  0.3497 -0.1209  0.3650
  311loPI    C1 4961  10.006   8.755  11.155 -0.0837 -0.0850 -0.2964
  311loPI    C2 4962   9.881   8.395  11.276  0.0495 -0.0906 -0.1722
  311loPI    C3 4963  10.226   8.543  11.413 -0.1242  0.1908 -0.0299
  311loPI   PO4 4964   9.980   8.719  10.952  0.1260  0.1242  0.2530
  311loPI   GL1 4965   9.912   8.639  10.531 -0.1174  0.0576 -0.0906
  311loPI   GL2 4966   9.913   8.918  10.522 -0.1712  0.0618  0.1102
  311loPI   C1A 4967   9.852   8.376  10.174 -0.0648 -0.1485 -0.1666
  311loPI   C2A 4968   9.819   8.552   9.765  0.3534  0.2440  0.2410
  311loPI   C3A 4969   9.580   8.824   9.505  0.1023 -0.1617 -0.0402
  311loPI   C4A 4970   9.414   8.852   9.063  0.1112 -0.0824 -0.2023
  311loPI   C5A 4971   9.470   9.133   8.704  0.3438 -0.0309 -0.3702
  311loPI   C6A 4972   9.142   9.291   8.508  0.1231 -0.4032 -0.0856
  311loPI   C1B 4973   9.782   8.897  10.081  0.0602  0.1082  0.1265
  311loPI   C2B 4974   9.734   9.273   9.811 -0.0459 -0.1169  0.1696
  311loPI   C3B 4975   9.432   9.306   9.397  0.0186  0.1256  0.1208
  311loPI   C4B 4976   9.145   9.403   9.094 -0.1488  0.2414 -0.1119
  312loPI    C1 4977   5.763  16.229  11.152  0.0114 -0.0585  0.0678
  312loPI    C2 4978   5.834  16.118  11.530 -0.0157 -0.3688 -0.0155
  312loPI    C3 4979   5.479  16.272  11.430  0.0097 -0.2370  0.0950
  312loPI   PO4 4980   6.065  16.277  11.089 -0.0098  0.0758  0.0559
  312loPI   GL1 4981   6.271  16.399  10.653 -0.2005  0.1148 -0.1193
  312loPI   GL2 4982   6.555  16.515  10.610 -0.2828 -0.0640 -0.2029
  312loPI   C1A 4983   6.029  16.781  10.378 -0.0024 -0.1554 -0.1093
  312loPI   C2A 4984   6.070  16.864   9.915  0.2345 -0.0866  0.1596
  312loPI   C3A 4985   5.946  16.919   9.526  0.1791  0.3438  0.4731
  312loPI   C4A 4986   5.743  16.977   9.086 -0.0899 -0.1073 -0.3425
  312loPI   C5A 4987   5.830  17.319   8.852  0.2266 -0.1311 -0.1078
  312loPI   C6A 4988   6.090  17.545   8.509  0.1717 -0.0847 -0.3500
  312loPI   C1B 4989   6.425  16.416  10.199 -0.0141  0.1809 -0.0191
  312loPI   C2B 4990   6.284  16.419   9.794  0.0866 -0.3685  0.1413
  312loPI   C3B 4991   6.158  16.482   9.371  0.0055  0.2021 -0.2335
  312loPI   C4B 4992   6.090  16.491   8.957  0.3328  0.0353 -0.0593
  313loPI    C1 4993  12.014  11.947  11.301 -0.1680 -0.1439  0.0112
  313loPI    C2 4994  11.860  12.054  11.654  0.0330 -0.0795  0.0806
  313loPI    C3 4995  11.778  11.694  11.502 -0.1534 -0.0608  0.1341
  313loPI   PO4 4996  11.859  12.150  11.110  0.0363  0.0960  0.1569
  313loPI   GL1 4997  11.551  12.038  10.739  0.3937 -0.0486  0.1409
  313loPI   GL2 4998  11.298  11.763  10.696  0.0591 -0.0758  0.0297
  313loPI   C1A 4999  11.564  12.292  10.385  0.0780  0.1210  0.0201
  313loPI   C2A 5000  11.614  12.287   9.925  0.1093  0.2635 -0.1999
  313loPI   C3A 5001  11.635  12.353   9.495 -0.3243 -0.0251 -0.0880
  313loPI   C4A 5002  11.647  12.240   9.114  0.2524 -0.0550 -0.2020
  313loPI   C5A 5003  11.629  12.385   8.684 -0.0950 -0.0525 -0.0701
  313loPI   C6A 5004  11.980  12.233   8.436  0.5569  0.0547  0.0639
  313loPI   C1B 5005  11.303  11.881  10.250  0.0492 -0.0956  0.2368
  313loPI   C2B 5006  11.378  11.868   9.846 -0.1865 -0.0178  0.1789
  313loPI   C3B 5007  11.364  11.841   9.336  0.2068 -0.1761 -0.1037
  313loPI   C4B 5008  11.387  11.842   8.857  0.1761 -0.3383 -0.2582
  314loPI    C1 5009   3.522  13.348  11.204  0.1297  0.0592 -0.0142
  314loPI    C2 5010   3.776  13.524  11.459  0.1060 -0.0187  0.0638
  314loPI    C3 5011   3.545  13.221  11.583  0.0890 -0.0525 -0.0487
  314loPI   PO4 5012   3.526  13.537  10.955  0.0209  0.1484 -0.1839
  314loPI   GL1 5013   3.729  13.725  10.548  0.2256  0.2268 -0.1330
  314loPI   GL2 5014   3.835  13.962  10.520  0.2328  0.0765  0.1777
  314loPI   C1A 5015   3.929  13.371  10.329  0.1967 -0.3633  0.0412
  314loPI   C2A 5016   4.076  13.104  10.105  0.1603 -0.0150 -0.0929
  314loPI   C3A 5017   4.201  13.050   9.639 -0.1154  0.2790 -0.0456
  314loPI   C4A 5018   4.107  12.959   9.290  0.0231  0.1198  0.0523
  314loPI   C5A 5019   4.214  13.120   8.925  0.1304  0.1423  0.2984
  314loPI   C6A 5020   4.340  13.420   8.572  0.0538 -0.1765 -0.1256
  314loPI   C1B 5021   3.935  13.834  10.074  0.1876  0.1648  0.0735
  314loPI   C2B 5022   3.887  13.457   9.785  0.0421  0.1839 -0.0596
  314loPI   C3B 5023   3.813  13.396   9.425 -0.2409 -0.0135 -0.0352
  314loPI   C4B 5024   3.875  13.460   8.976  0.1083  0.1467 -0.1031
  315loPI    C1 5025   8.314   5.347  11.355 -0.1402 -0.0308  0.0143
  315loPI    C2 5026   8.248   4.957  11.417  0.0739 -0.0533  0.1115
  315loPI    C3 5027   8.147   5.224  11.697 -0.1898 -0.0242 -0.0075
  315loPI   PO4 5028   8.316   5.333  11.067  0.0932 -0.0089 -0.0481
  315loPI   GL1 5029   8.406   5.084  10.569 -0.0197 -0.0959  0.1546
  315loPI   GL2 5030   8.635   4.973  10.502  0.0545  0.0078  0.0122
  315loPI   C1A 5031   8.418   5.201  10.119  0.2220  0.0637 -0.0504
  315loPI   C2A 5032   8.454   5.217   9.717  0.0857  0.3027 -0.0497
  315loPI   C3A 5033   8.473   5.256   9.198 -0.2007  0.0921  0.3270
  315loPI   C4A 5034   8.422   5.462   8.827  0.1120 -0.1572  0.0171
  315loPI   C5A 5035   8.400   5.304   8.354  0.0818  0.2858  0.2855
  315loPI   C6A 5036   8.308   4.984   8.011 -0.1573  0.1672 -0.1672
  315loPI   C1B 5037   8.854   4.955   9.999 -0.0822  0.0606  0.2443
  315loPI   C2B 5038   8.934   5.114   9.480  0.0340  0.3386 -0.0756
  315loPI   C3B 5039   8.913   5.038   9.110 -0.0252 -0.1382 -0.1738
  315loPI   C4B 5040   8.871   5.108   8.702  0.0592  0.0430 -0.2662
  316loPI    C1 5041   2.640  13.681  11.288  0.1304 -0.0341 -0.1501
  316loPI    C2 5042   2.587  13.449  11.609 -0.0598 -0.1223 -0.2435
  316loPI    C3 5043   2.613  13.845  11.651  0.0872 -0.1459 -0.1023
  316loPI   PO4 5044   2.566  13.493  11.044 -0.1895  0.1752  0.1175
  316loPI   GL1 5045   2.643  13.364  10.573 -0.1823  0.1356 -0.0151
  316loPI   GL2 5046   2.621  13.133  10.422  0.0042  0.1950 -0.1936
  316loPI   C1A 5047   2.967  13.544  10.353  0.0213  0.2356 -0.1836
  316loPI   C2A 5048   3.027  13.719   9.894  0.0603 -0.0801  0.2075
  316loPI   C3A 5049   2.958  13.527   9.458  0.0227 -0.2205 -0.1956
  316loPI   C4A 5050   3.352  13.496   9.138 -0.0991  0.1988 -0.1586
  316loPI   C5A 5051   3.347  13.665   8.705  0.3050 -0.2875  0.1397
  316loPI   C6A 5052   3.152  13.442   8.337  0.2278 -0.1273  0.0294
  316loPI   C1B 5053   2.611  13.362   9.960  0.0626  0.0461 -0.0628
  316loPI   C2B 5054   2.534  13.282   9.524  0.0618 -0.0942  0.1154
  316loPI   C3B 5055   2.623  13.291   9.108 -0.3992  0.2393 -0.0251
  316loPI   C4B 5056   2.398  13.281   8.738  0.2747  0.0772  0.1584
  317loPI    C1 5057  11.485  15.573  11.607 -0.1171 -0.0139 -0.1317
  317loPI    C2 5058  11.805  15.401  11.773 -0.0975  0.0892 -0.0616
  317loPI    C3 5059  11.782  15.800  11.749 -0.2774  0.0863  0.0492
  317loPI   PO4 5060  11.481  15.508  11.322  0.0946 -0.2632 -0.5472
  317loPI   GL1 5061  11.756  15.353  10.939 -0.0814 -0.0421 -0.1540
  317loPI   GL2 5062  12.033  15.446  10.728 -0.1794 -0.1902 -0.2372
  317loPI   C1A 5063  11.600  15.591  10.553  0.0698 -0.1715  0.0437
  317loPI   C2A 5064  11.542  15.555  10.050 -0.1504  0.0603 -0.1127
  317loPI   C3A 5065  11.512  15.515   9.628  0.0479  0.0734  0.3017
  317loPI   C4A 5066  11.532  15.493   9.200 -0.0150 -0.3829  0.2801
  317loPI   C5A 5067  11.469  15.530   8.749  0.3134  0.3493  0.0543
  317loPI   C6A 5068  11.362  15.315   8.428  0.0116 -0.0118  0.3378
  317loPI   C1B 5069  12.219  15.380  10.342  0.0839  0.1598 -0.4890
  317loPI   C2B 5070  12.088  15.512   9.866 -0.3686  0.0905 -0.0385
  317loPI   C3B 5071  11.992  15.493   9.489 -0.1108  0.2406 -0.0751
  317loPI   C4B 5072  11.964  15.422   8.993  0.3504  0.1613 -0.1454
  318loPI    C1 5073   9.528   7.580  11.086  0.0593 -0.0934 -0.1227
  318loPI    C2 5074   9.873   7.421  11.211 -0.0976 -0.3153  0.0362
  318loPI    C3 5075   9.587   7.511  11.476 -0.0064  0.2567 -0.0474
  318loPI   PO4 5076   9.567   7.792  10.902 -0.0847 -0.1050  0.0257
  318loPI   GL1 5077   9.371   7.812  10.550  0.0911  0.0073  0.1291
  318loPI   GL2 5078   9.365   7.475  10.397  0.3786  0.0325  0.0879
  318loPI   C1A 5079   9.547   8.010  10.222 -0.0094  0.1046  0.0056
  318loPI   C2A 5080   9.627   8.075   9.743  0.2557  0.0491 -0.2540
  318loPI   C3A 5081   9.872   8.016   9.314 -0.2657 -0.2303  0.2356
  318loPI   C4A 5082  10.017   8.209   8.934 -0.3035 -0.0329 -0.1300
  318loPI   C5A 5083  10.208   8.417   8.542  0.1433 -0.2473  0.0650
  318loPI   C6A 5084  10.458   8.663   8.478 -0.0857  0.1973 -0.1579
  318loPI   C1B 5085   9.476   7.582   9.966 -0.2213 -0.1120 -0.2383
  318loPI   C2B 5086   9.495   7.642   9.433  0.0421 -0.1316 -0.0707
  318loPI   C3B 5087   9.400   7.750   9.057 -0.3090 -0.0126 -0.2590
  318loPI   C4B 5088   9.304   7.733   8.620  0.0591 -0.1748  0.2216
  319loPI    C1 5089  13.902   1.411  10.965 -0.3068 -0.0355  0.2066
  319loPI    C2 5090  13.978   1.204  11.299 -0.1558 -0.1076  0.1287
  319loPI    C3 5091  13.976   1.604  11.307  0.0062 -0.1072  0.1824
  319loPI   PO4 5092  13.715   1.330  10.859 -0.0351 -0.0769 -0.0279
  319loPI   GL1 5093  13.488   1.168  10.555 -0.0544 -0.2100  0.3113
  319loPI   GL2 5094  13.247   1.032  10.673 -0.1757 -0.0259 -0.1585
  319loPI   C1A 5095  13.518   1.273  10.102 -0.0096 -0.0590 -0.3721
  319loPI   C2A 5096  13.510   1.312   9.683 -0.1296 -0.2846 -0.1882
  319loPI   C3A 5097  13.643   1.285   9.295  0.0409 -0.1427 -0.1554
  319loPI   C4A 5098  13.754   1.419   8.888 -0.1590  0.2183 -0.1158
  319loPI   C5A 5099  13.825   1.512   8.483 -0.3231  0.2258  0.0514
  319loPI   C6A 5100  14.141   1.545   8.168 -0.0533  0.0818 -0.2400
  319loPI   C1B 5101  13.188   0.918  10.198  0.1351  0.0634 -0.2746
  319loPI   C2B 5102  13.114   1.023   9.798 -0.2163  0.2549  0.0403
  319loPI   C3B 5103  13.096   1.243   9.456 -0.0595  0.1301 -0.0640
  319loPI   C4B 5104  12.899   1.162   9.043 -0.2573 -0.0037 -0.2849
  320loPI    C1 5105  17.556   9.163  10.863 -0.0513 -0.2058  0.0858
  320loPI    C2 5106  17.802   8.848  10.851 -0.0178 -0.1910  0.3301
  320loPI    C3 5107  17.872   9.147  11.107 -0.1100 -0.0342  0.1748
  320loPI   PO4 5108  17.527   9.286  10.693  0.2753  0.3838 -0.6535
  320loPI   GL1 5109  17.256   9.505  10.472  0.2875  0.0095  0.3239
  320loPI   GL2 5110  16.906   9.482  10.432  0.2018 -0.0984 -0.1180
  320loPI   C1A 5111  17.328   9.529   9.988  0.0667 -0.2455  0.0689
  320loPI   C2A 5112  17.277   9.508   9.479  0.1380  0.2981 -0.2091
  320loPI   C3A 5113  17.146   9.610   9.019  0.2273 -0.1264 -0.2987
  320loPI   C4A 5114  17.014   9.726   8.615 -0.0076 -0.1791 -0.3089
  320loPI   C5A 5115  17.062  10.019   8.301 -0.0097 -0.2037  0.0623
  320loPI   C6A 5116  17.311  10.203   8.056  0.0689  0.0904 -0.0610
  320loPI   C1B 5117  16.860   9.429  10.082 -0.2507  0.1498 -0.2107
  320loPI   C2B 5118  16.648   9.486   9.722 -0.0941 -0.1764  0.1141
  320loPI   C3B 5119  16.757   9.509   9.308 -0.0916 -0.0611  0.0814
  320loPI   C4B 5120  16.668   9.591   8.913 -0.0425 -0.0813 -0.1491
  321loPI    C1 5121   7.692  12.699  10.958 -0.2560  0.2269  0.1179
  321loPI    C2 5122   7.737  12.389  11.207 -0.2813  0.1442  0.0207
  321loPI    C3 5123   7.903  12.743  11.294  0.1912 -0.0361 -0.1185
  321loPI   PO4 5124   7.790  12.673  10.737 -0.0889  0.3058 -0.0259
  321loPI   GL1 5125   7.901  12.595  10.383  0.5650  0.2329 -0.1465
  321loPI   GL2 5126   7.645  12.575  10.235  0.1723 -0.0044  0.0937
  321loPI   C1A 5127   8.124  12.658  10.069 -0.3203  0.0157 -0.2154
  321loPI   C2A 5128   8.094  12.838   9.750 -0.0749  0.0269  0.1352
  321loPI   C3A 5129   7.968  12.982   9.387 -0.0348  0.0479  0.0538
  321loPI   C4A 5130   7.866  12.930   8.948 -0.1858  0.0548  0.1181
  321loPI   C5A 5131   7.997  12.681   8.602  0.1038 -0.1555 -0.0059
  321loPI   C6A 5132   7.865  12.487   8.172 -0.0396 -0.1332 -0.0416
  321loPI   C1B 5133   7.715  12.483   9.768  0.1251 -0.1491 -0.1225
  321loPI   C2B 5134   7.814  12.511   9.347  0.1479  0.1456 -0.1149
  321loPI   C3B 5135   7.668  12.435   8.913  0.3065  0.0415  0.1528
  321loPI   C4B 5136   7.526  12.634   8.544  0.0034 -0.1400  0.0195
  322loPI    C1 5137   7.673  11.780  10.750  0.1703  0.0512  0.2969
  322loPI    C2 5138   7.903  11.986  11.005  0.3425  0.2480 -0.0101
  322loPI    C3 5139   7.654  12.180  10.759  0.1783  0.0603  0.0051
  322loPI   PO4 5140   7.899  11.607  10.669 -0.1820  0.0238 -0.3832
  322loPI   GL1 5141   8.111  11.581  10.338 -0.0742 -0.1002 -0.2311
  322loPI   GL2 5142   8.312  11.310  10.287  0.1575  0.4169  0.3839
  322loPI   C1A 5143   7.978  11.557   9.983  0.2333 -0.2292  0.1099
  322loPI   C2A 5144   8.024  11.535   9.544 -0.1202  0.0766  0.2908
  322loPI   C3A 5145   7.901  11.599   9.161  0.0121 -0.2336 -0.4200
  322loPI   C4A 5146   7.855  11.540   8.709  0.0942  0.1153 -0.0698
  322loPI   C5A 5147   7.942  11.678   8.332  0.3134  0.1265 -0.2066
  322loPI   C6A 5148   8.121  12.088   8.182 -0.5625  0.0528  0.1414
  322loPI   C1B 5149   8.336  11.166   9.860 -0.0168  0.1935 -0.0844
  322loPI   C2B 5150   8.421  11.201   9.423 -0.0552 -0.0881 -0.0112
  322loPI   C3B 5151   8.319  11.150   9.019 -0.3774  0.0106 -0.0768
  322loPI   C4B 5152   8.277  11.258   8.673  0.0568 -0.0182 -0.0060
  323loPI    C1 5153  17.014   9.120  10.819 -0.0356 -0.0124  0.0600
  323loPI    C2 5154  16.879   9.232  11.178 -0.2129 -0.1243  0.0291
  323loPI    C3 5155  17.148   9.457  10.987 -0.2446  0.0238  0.1569
  323loPI   PO4 5156  16.786   9.088  10.645  0.0323  0.2401 -0.3500
  323loPI   GL1 5157  16.461   9.111  10.255 -0.0375  0.2914  0.1020
  323loPI   GL2 5158  16.381   9.143   9.926 -0.0065  0.2475 -0.2343
  323loPI   C1A 5159  16.819   8.954   9.942 -0.2533  0.1906  0.3077
  323loPI   C2A 5160  16.841   9.035   9.440  0.1497  0.3352 -0.0518
  323loPI   C3A 5161  17.079   9.114   8.984  0.0098 -0.0101  0.0064
  323loPI   C4A 5162  17.463   8.996   8.823  0.0059 -0.1799  0.0271
  323loPI   C5A 5163  17.670   8.578   8.732 -0.4513  0.1349  0.0382
  323loPI   C6A 5164  17.897   8.179   8.734 -0.0058 -0.0167  0.1319
  323loPI   C1B 5165  16.310   9.204   9.452 -0.1514 -0.0777 -0.1636
  323loPI   C2B 5166  16.554   9.127   9.035 -0.2853  0.1368 -0.1222
  323loPI   C3B 5167  16.717   9.239   8.540  0.0651  0.3934  0.1268
  323loPI   C4B 5168  17.021   9.391   8.197  0.1952  0.0291 -0.1603
  324loPI    C1 5169   4.717  12.748  10.776  0.4139 -0.2445 -0.0201
  324loPI    C2 5170   4.872  12.750  11.145  0.2409 -0.1535  0.0531
  324loPI    C3 5171   4.486  12.837  11.090  0.3272  0.0996 -0.1773
  324loPI   PO4 5172   4.890  12.866  10.626  0.3077 -0.0180 -0.0636
  324loPI   GL1 5173   4.769  13.137  10.381  0.0284  0.1558 -0.1188
  324loPI   GL2 5174   4.857  13.446  10.285 -0.3761 -0.0640 -0.2171
  324loPI   C1A 5175   4.728  13.147   9.928  0.0988  0.0130 -0.4800
  324loPI   C2A 5176   4.564  12.748   9.738  0.3202 -0.0682 -0.1978
  324loPI   C3A 5177   4.556  12.614   9.355 -0.1393 -0.0612  0.1901
  324loPI   C4A 5178   4.379  12.619   8.950  0.0937  0.1464 -0.1083
  324loPI   C5A 5179   3.947  12.717   8.809  0.0737 -0.1957  0.0428
  324loPI   C6A 5180   3.704  12.857   8.399  0.0520  0.3042  0.0328
  324loPI   C1B 5181   4.785  13.825  10.053 -0.1825 -0.0408  0.0390
  324loPI   C2B 5182   4.692  13.830   9.598 -0.0895  0.1111 -0.0382
  324loPI   C3B 5183   4.727  13.813   9.200  0.0034  0.0781 -0.1893
  324loPI   C4B 5184   4.604  13.553   8.993  0.0185  0.0515 -0.2551
  325loPI    C1 5185  15.839  15.036  10.943  0.0853  0.0936 -0.2185
  325loPI    C2 5186  15.441  15.030  10.987  0.1210  0.1053  0.1329
  325loPI    C3 5187  15.614  14.811  10.700 -0.1348  0.0727  0.0008
  325loPI   PO4 5188  15.931  15.283  10.880 -0.0559  0.1546  0.1153
  325loPI   GL1 5189  15.981  15.580  10.501 -0.1263  0.0745  0.0245
  325loPI   GL2 5190  16.293  15.332  10.506  0.1308 -0.1933  0.0278
  325loPI   C1A 5191  16.170  15.751  10.179 -0.0159  0.0083  0.1387
  325loPI   C2A 5192  16.238  15.638   9.778 -0.1947 -0.1368 -0.2055
  325loPI   C3A 5193  16.145  15.757   9.387 -0.2459  0.0210  0.0825
  325loPI   C4A 5194  16.261  15.602   9.001  0.1484  0.0999  0.2199
  325loPI   C5A 5195  16.512  15.694   8.575  0.1246 -0.0863  0.3406
  325loPI   C6A 5196  16.767  15.784   8.147  0.0877  0.0435  0.0174
  325loPI   C1B 5197  16.117  15.207  10.100 -0.0918  0.0552 -0.0883
  325loPI   C2B 5198  16.079  15.072   9.732  0.2172  0.2437  0.1371
  325loPI   C3B 5199  16.184  15.196   9.247 -0.1165  0.2616  0.1286
  325loPI   C4B 5200  16.348  15.028   8.833 -0.3509  0.3991 -0.1125
  326loPI    C1 5201   9.078   5.097  10.963 -0.0658 -0.0035 -0.0728
  326loPI    C2 5202   8.798   5.382  10.945 -0.0562  0.0067 -0.0631
  326loPI    C3 5203   9.124   5.436  11.170 -0.1911 -0.1328  0.1703
  326loPI   PO4 5204   9.105   5.052  10.738  0.1934  0.0558 -0.0474
  326loPI   GL1 5205   9.237   5.189  10.288  0.1726  0.2007  0.0519
  326loPI   GL2 5206   9.363   4.977  10.084 -0.0755 -0.3268  0.0215
  326loPI   C1A 5207   9.312   5.430   9.889  0.0585 -0.0681  0.3846
  326loPI   C2A 5208   9.337   5.470   9.435 -0.1996  0.1867 -0.0022
  326loPI   C3A 5209   9.352   5.293   9.014  0.1747  0.0210 -0.2391
  326loPI   C4A 5210   9.190   5.488   8.641  0.1039  0.0888  0.2759
  326loPI   C5A 5211   9.076   5.713   8.197 -0.0099  0.0630  0.0058
  326loPI   C6A 5212   8.904   5.933   7.904 -0.0857 -0.3115 -0.2027
  326loPI   C1B 5213   9.399   4.989   9.655  0.1887 -0.2256  0.3122
  326loPI   C2B 5214   9.380   4.916   9.311 -0.1310  0.0841  0.1781
  326loPI   C3B 5215   9.324   4.860   8.751 -0.0087  0.1126 -0.3332
  326loPI   C4B 5216   9.320   5.124   8.302 -0.2529  0.0469 -0.0687
  327loPI    C1 5217   2.767  14.501  11.199 -0.0478 -0.0567  0.1005
  327loPI    C2 5218   2.667  14.118  11.140  0.3224 -0.1214 -0.1353
  327loPI    C3 5219   2.612  14.286  11.499  0.2619 -0.4279  0.0014
  327loPI   PO4 5220   2.669  14.534  10.830 -0.0273 -0.1297  0.0667
  327loPI   GL1 5221   2.824  14.325  10.368 -0.1026  0.0032  0.0511
  327loPI   GL2 5222   2.888  14.054  10.216 -0.0408 -0.1748 -0.1623
  327loPI   C1A 5223   2.610  14.473  10.073  0.1026  0.0591 -0.0447
  327loPI   C2A 5224   2.644  14.647   9.691 -0.0752  0.0738  0.1418
  327loPI   C3A 5225   2.679  14.787   9.258 -0.3407  0.3373  0.0620
  327loPI   C4A 5226   2.773  14.786   8.793  0.1412  0.1346  0.2501
  327loPI   C5A 5227   2.445  14.919   8.491 -0.1966 -0.2363 -0.2548
  327loPI   C6A 5228   2.276  14.713   8.194 -0.1947  0.0352 -0.0674
  327loPI   C1B 5229   2.964  14.206   9.838 -0.0732 -0.0813 -0.2006
  327loPI   C2B 5230   2.880  14.332   9.306  0.0876  0.1743 -0.0168
  327loPI   C3B 5231   3.144  14.539   9.016 -0.0390  0.1948  0.2744
  327loPI   C4B 5232   3.118  14.489   8.606  0.2281  0.1841 -0.0030
  328loPI    C1 5233   5.631   8.631  10.791 -0.1065 -0.0852 -0.0885
  328loPI    C2 5234   5.745   8.568  11.169 -0.4199 -0.1431 -0.0010
  328loPI    C3 5235   5.719   8.261  10.914 -0.1441 -0.0948 -0.0902
  328loPI   PO4 5236   5.797   8.848  10.618  0.0401  0.0080 -0.2430
  328loPI   GL1 5237   5.958   8.785  10.213  0.1663 -0.3116 -0.4403
  328loPI   GL2 5238   6.159   9.041  10.042 -0.0161 -0.0049  0.1406
  328loPI   C1A 5239   5.789   8.547   9.978 -0.3408  0.0471 -0.0484
  328loPI   C2A 5240   5.774   8.409   9.603  0.1335 -0.0608 -0.1372
  328loPI   C3A 5241   5.832   8.465   9.140 -0.1826 -0.1297 -0.0211
  328loPI   C4A 5242   5.672   8.407   8.734 -0.1813  0.3025 -0.1897
  328loPI   C5A 5243   5.211   8.207   8.626 -0.2428 -0.1388 -0.1920
  328loPI   C6A 5244   5.097   7.752   8.564 -0.1589 -0.2558 -0.0081
  328loPI   C1B 5245   6.136   9.018   9.566  0.2582  0.3240  0.2351
  328loPI   C2B 5246   6.093   9.034   9.085  0.1089 -0.4238 -0.0650
  328loPI   C3B 5247   5.982   9.128   8.620  0.3082  0.0739 -0.0780
  328loPI   C4B 5248   5.786   9.277   8.296 -0.1479 -0.2610  0.2402
  329loPI    C1 5249  12.960  15.362  11.237 -0.3058  0.0860 -0.4270
  329loPI    C2 5250  12.614  15.555  11.293 -0.3784 -0.1756  0.0932
  329loPI    C3 5251  12.755  15.312  11.577  0.2419 -0.0683 -0.1077
  329loPI   PO4 5252  12.936  15.261  10.988  0.1553 -0.0271 -0.5348
  329loPI   GL1 5253  12.834  15.511  10.735 -0.1276 -0.1370  0.0417
  329loPI   GL2 5254  12.897  15.855  10.635  0.0512 -0.4083  0.0301
  329loPI   C1A 5255  12.690  15.343  10.383  0.1411  0.1712 -0.1290
  329loPI   C2A 5256  12.590  15.405   9.949 -0.2131  0.0276 -0.0311
  329loPI   C3A 5257  12.517  15.343   9.527 -0.1042 -0.1007  0.0560
  329loPI   C4A 5258  12.424  15.361   9.185 -0.0419  0.0916 -0.0390
  329loPI   C5A 5259  12.398  15.454   8.741 -0.2041  0.1079  0.1280
  329loPI   C6A 5260  12.156  15.394   8.372 -0.0956 -0.0148  0.1192
  329loPI   C1B 5261  12.942  15.817  10.240  0.0711 -0.0223  0.0637
  329loPI   C2B 5262  12.868  15.845   9.786  0.0813  0.1767 -0.3313
  329loPI   C3B 5263  12.800  15.765   9.349  0.2423  0.2042 -0.0235
  329loPI   C4B 5264  12.711  15.814   8.933 -0.2361  0.1216 -0.0759
  330loPI    C1 5265   2.479   1.577  11.257 -0.1513  0.0320  0.0288
  330loPI    C2 5266   2.337   1.222  11.141  0.2061 -0.0391 -0.2087
  330loPI    C3 5267   2.173   1.559  11.000  0.0001 -0.1103 -0.1439
  330loPI   PO4 5268   2.680   1.660  11.139 -0.1994 -0.0379 -0.5199
  330loPI   GL1 5269   2.616   1.417  10.744 -0.1828  0.0683  0.1097
  330loPI   GL2 5270   2.906   1.537  10.698 -0.2114  0.3305  0.2615
  330loPI   C1A 5271   2.470   1.570  10.297  0.2284  0.1248  0.1083
  330loPI   C2A 5272   2.466   1.624   9.770  0.2082  0.0923  0.1768
  330loPI   C3A 5273   2.705   1.538   9.435 -0.5323 -0.0526 -0.1454
  330loPI   C4A 5274   2.832   1.129   9.072 -0.0804 -0.0510  0.2333
  330loPI   C5A 5275   2.909   1.034   8.618 -0.0988 -0.1186  0.1371
  330loPI   C6A 5276   3.015   0.713   8.401  0.0682  0.4623  0.1402
  330loPI   C1B 5277   3.067   1.534  10.279 -0.0506  0.0968 -0.0132
  330loPI   C2B 5278   3.076   1.638   9.830 -0.1798  0.1235  0.2671
  330loPI   C3B 5279   3.164   1.761   9.452 -0.1064  0.0707 -0.0514
  330loPI   C4B 5280   2.995   1.886   8.988 -0.1505 -0.1047 -0.0593
  331loPI    C1 5281  13.007   0.620  11.035  0.1183  0.0348 -0.0578
  331loPI    C2 5282  12.988   1.011  11.120  0.4400  0.0772 -0.1669
  331loPI    C3 5283  13.013   0.743  11.416  0.0743  0.1266 -0.0865
  331loPI   PO4 5284  13.200   0.576  10.862 -0.3449  0.1399 -0.1375
  331loPI   GL1 5285  13.532   0.610  10.614  0.3195 -0.0406 -0.1499
  331loPI   GL2 5286  13.445   0.261  10.456 -0.0175  0.0945  0.0159
  331loPI   C1A 5287  13.668   0.767  10.204 -0.1125  0.1824 -0.1271
  331loPI   C2A 5288  13.491   0.720   9.772 -0.2121  0.1866 -0.1535
  331loPI   C3A 5289  13.350   0.784   9.424 -0.1654  0.0277  0.1180
  331loPI   C4A 5290  13.397   0.980   8.992 -0.2547  0.0976 -0.2818
  331loPI   C5A 5291  13.615   0.954   8.605  0.0989 -0.1627 -0.3183
  331loPI   C6A 5292  13.890   1.060   8.280 -0.1189  0.0980 -0.1562
  331loPI   C1B 5293  13.465   0.305  10.052  0.0961  0.1527 -0.2910
  331loPI   C2B 5294  13.667   0.270   9.689 -0.3317  0.2822  0.0775
  331loPI   C3B 5295  13.521   0.302   9.282  0.1107 -0.5588 -0.3129
  331loPI   C4B 5296  13.558   0.461   8.831  0.1729 -0.1183  0.2341
  332loPI    C1 5297   7.165  13.975  10.520  0.1405  0.0022 -0.0389
  332loPI    C2 5298   6.919  13.688  10.651  0.0200  0.1795  0.1274
  332loPI    C3 5299   7.184  13.854  10.901  0.2097  0.0917 -0.0137
  332loPI   PO4 5300   6.878  14.170  10.439  0.1039  0.2547  0.3223
  332loPI   GL1 5301   6.750  14.426  10.114  0.0271  0.0243  0.2948
  332loPI   GL2 5302   7.148  14.403  10.083 -0.3345 -0.0601 -0.1089
  332loPI   C1A 5303   6.734  14.292   9.697 -0.0131  0.1392  0.1428
  332loPI   C2A 5304   6.736  14.195   9.267  0.0296  0.1440  0.0110
  332loPI   C3A 5305   6.541  14.297   8.909  0.0442 -0.0464  0.3603
  332loPI   C4A 5306   6.636  14.568   8.705 -0.1832  0.2540 -0.0412
  332loPI   C5A 5307   6.469  14.843   8.286 -0.1538  0.0372 -0.0327
  332loPI   C6A 5308   6.146  15.098   8.246  0.0233  0.0118 -0.1468
  332loPI   C1B 5309   7.329  14.293   9.714 -0.1364 -0.0681 -0.0005
  332loPI   C2B 5310   7.304  14.378   9.250 -0.4549  0.2225 -0.1998
  332loPI   C3B 5311   7.037  14.198   8.887  0.0124 -0.1685  0.0401
  332loPI   C4B 5312   7.101  14.244   8.480  0.0568  0.1225 -0.1207
  333loPI    C1 5313  15.809   6.017  11.263  0.1149 -0.1003  0.0428
  333loPI    C2 5314  15.501   6.272  11.241  0.1501 -0.0872 -0.3638
  333loPI    C3 5315  15.856   6.399  11.373  0.0359 -0.0536 -0.0833
  333loPI   PO4 5316  15.832   5.907  11.005 -0.1733 -0.2884  0.0596
  333loPI   GL1 5317  15.866   5.955  10.568  0.2359  0.0538 -0.1780
  333loPI   GL2 5318  15.656   5.757  10.326 -0.1847 -0.3947 -0.2827
  333loPI   C1A 5319  15.912   6.161  10.113  0.0387 -0.1417 -0.0731
  333loPI   C2A 5320  16.030   6.439   9.742  0.1356 -0.0699  0.1725
  333loPI   C3A 5321  15.997   6.289   9.310  0.1764 -0.2002 -0.1495
  333loPI   C4A 5322  16.305   6.200   9.015  0.1107 -0.0037 -0.3210
  333loPI   C5A 5323  16.417   6.175   8.591  0.0590 -0.0140  0.1083
  333loPI   C6A 5324  16.292   6.511   8.449  0.0837 -0.1292 -0.0915
  333loPI   C1B 5325  15.608   5.819   9.859 -0.4732 -0.0754  0.0713
  333loPI   C2B 5326  15.638   5.963   9.459 -0.2715  0.0071 -0.1369
  333loPI   C3B 5327  15.620   6.106   9.040  0.3721  0.0823 -0.1294
  333loPI   C4B 5328  15.372   6.447   8.658 -0.0472 -0.1237  0.2090
  334loPI    C1 5329  13.150  14.717  11.225  0.1943  0.0812  0.1244
  334loPI    C2 5330  12.984  14.888  11.546  0.2568  0.0543  0.1711
  334loPI    C3 5331  13.296  15.062  11.366  0.0408  0.2205 -0.0502
  334loPI   PO4 5332  12.969  14.657  11.072 -0.0738  0.2739  0.0309
  334loPI   GL1 5333  12.728  14.712  10.780 -0.2219 -0.1274 -0.0561
  334loPI   GL2 5334  12.854  14.965  10.627 -0.0953  0.0655 -0.1560
  334loPI   C1A 5335  12.399  14.939  10.497 -0.1315  0.2036  0.1555
  334loPI   C2A 5336  12.218  14.983  10.075 -0.0206 -0.1406  0.1389
  334loPI   C3A 5337  12.203  14.967   9.673 -0.0371 -0.0216  0.0875
  334loPI   C4A 5338  12.144  14.958   9.207  0.0740 -0.1424  0.1440
  334loPI   C5A 5339  12.277  14.969   8.800  0.0752  0.2602  0.0416
  334loPI   C6A 5340  12.492  15.019   8.450  0.1886  0.0674 -0.0184
  334loPI   C1B 5341  12.742  14.819  10.147 -0.0992 -0.0131  0.0100
  334loPI   C2B 5342  12.678  14.872   9.785 -0.1280  0.1209 -0.0269
  334loPI   C3B 5343  12.672  14.836   9.352  0.4160 -0.3009 -0.1183
  334loPI   C4B 5344  12.483  14.558   9.095  0.1436  0.0916 -0.2248
  335loPI    C1 5345  10.146   7.138  10.879  0.0324  0.1714  0.0794
  335loPI    C2 5346  10.084   6.969  11.237 -0.0804  0.2005  0.0740
  335loPI    C3 5347  10.436   7.140  11.154  0.0369 -0.0359  0.0779
  335loPI   PO4 5348  10.094   6.948  10.723  0.0460 -0.2966  0.0311
  335loPI   GL1 5349   9.825   6.758  10.442 -0.1265 -0.1686 -0.0253
  335loPI   GL2 5350   9.963   6.456  10.322 -0.0496 -0.1761 -0.2319
  335loPI   C1A 5351   9.408   6.940  10.260  0.2655 -0.1858  0.2776
  335loPI   C2A 5352   9.071   6.997   9.825  0.1180  0.0902 -0.1969
  335loPI   C3A 5353   8.983   6.986   9.343  0.1980 -0.1016  0.0795
  335loPI   C4A 5354   9.149   6.994   8.947  0.1728 -0.0215 -0.4474
  335loPI   C5A 5355   9.115   7.128   8.498 -0.2029  0.1117  0.2088
  335loPI   C6A 5356   9.434   7.378   8.274 -0.1164  0.0188  0.0967
  335loPI   C1B 5357   9.995   6.686   9.917  0.0944  0.0171 -0.0504
  335loPI   C2B 5358  10.115   6.928   9.478  0.0621 -0.1450 -0.1559
  335loPI   C3B 5359   9.978   7.109   9.006 -0.0766  0.0561 -0.0327
  335loPI   C4B 5360   9.981   6.983   8.538 -0.0484  0.0365  0.2919
  336loPI    C1 5361   3.478  15.731  11.129 -0.1645  0.0567  0.1693
  336loPI    C2 5362   3.732  15.986  11.304 -0.0850  0.1143 -0.0268
  336loPI    C3 5363   3.343  15.997  11.395 -0.0307  0.0797  0.2154
  336loPI   PO4 5364   3.618  15.714  10.889  0.1076  0.1302 -0.0273
  336loPI   GL1 5365   3.709  15.780  10.473  0.1155 -0.1573 -0.2236
  336loPI   GL2 5366   3.624  15.465  10.470 -0.0542 -0.1423  0.0682
  336loPI   C1A 5367   3.867  15.980  10.205  0.0773 -0.0876  0.0163
  336loPI   C2A 5368   3.853  16.185   9.860 -0.0132 -0.1377  0.0282
  336loPI   C3A 5369   3.936  16.245   9.389 -0.3232 -0.0375  0.1345
  336loPI   C4A 5370   4.151  16.424   9.087 -0.1062 -0.0284 -0.0362
  336loPI   C5A 5371   4.147  16.524   8.611  0.2521 -0.0426 -0.0645
  336loPI   C6A 5372   4.372  16.496   8.189 -0.0206  0.1949  0.1425
  336loPI   C1B 5373   3.627  15.235  10.037  0.3478  0.1849  0.0862
  336loPI   C2B 5374   3.539  15.317   9.621 -0.0277 -0.0877 -0.1052
  336loPI   C3B 5375   3.416  15.437   9.267  0.1481 -0.2425 -0.1633
  336loPI   C4B 5376   3.183  15.463   8.895 -0.2007 -0.0425 -0.0918
  337loPI    C1 5377   3.148   0.825  11.172  0.1096 -0.0832  0.0796
  337loPI    C2 5378   3.103   0.501  11.401 -0.0920 -0.1508 -0.0532
  337loPI    C3 5379   3.015   0.862  11.547  0.0420 -0.1645  0.0638
  337loPI   PO4 5380   3.452   0.765  11.055 -0.1402 -0.1057  0.1281
  337loPI   GL1 5381   3.505   0.784  10.633  0.1905 -0.0553  0.0835
  337loPI   GL2 5382   3.422   0.553  10.559  0.0868 -0.4012  0.0816
  337loPI   C1A 5383   3.364   1.060  10.315  0.1644 -0.0769 -0.3492
  337loPI   C2A 5384   3.350   1.199   9.830  0.0955  0.1785 -0.0826
  337loPI   C3A 5385   3.216   1.264   9.451 -0.1650  0.0743  0.0710
  337loPI   C4A 5386   3.280   1.440   9.060 -0.2817  0.2918  0.2897
  337loPI   C5A 5387   3.647   1.321   8.812  0.1618 -0.0543  0.1440
  337loPI   C6A 5388   3.645   0.984   8.449  0.2384  0.1948  0.2781
  337loPI   C1B 5389   3.484   0.541  10.112 -0.1111 -0.0276 -0.0649
  337loPI   C2B 5390   3.507   0.706   9.721  0.3880 -0.1933 -0.2474
  337loPI   C3B 5391   3.680   0.865   9.291 -0.0109  0.1119 -0.0704
  337loPI   C4B 5392   3.793   0.780   8.896 -0.2120  0.0666 -0.0156
  338loPI    C1 5393   8.672   8.637  11.078  0.2158 -0.1598 -0.0061
  338loPI    C2 5394   8.351   8.400  11.096  0.1938 -0.1267  0.0391
  338loPI    C3 5395   8.540   8.506  11.432 -0.0343  0.2440  0.0572
  338loPI   PO4 5396   8.834   8.525  10.875 -0.0928  0.0899  0.0858
  338loPI   GL1 5397   9.094   8.631  10.598  0.0282  0.3937  0.2473
  338loPI   GL2 5398   9.390   8.531  10.431 -0.2679 -0.1495 -0.1934
  338loPI   C1A 5399   8.935   8.527  10.126  0.0691 -0.0219  0.2474
  338loPI   C2A 5400   8.941   8.533   9.676 -0.0277 -0.0843  0.2668
  338loPI   C3A 5401   9.044   8.569   9.210 -0.1275  0.1498  0.3088
  338loPI   C4A 5402   8.870   8.451   8.814  0.1790  0.3751 -0.1402
  338loPI   C5A 5403   8.589   8.561   8.503  0.2751  0.0186 -0.1481
  338loPI   C6A 5404   8.539   8.363   8.148 -0.0085  0.1111 -0.2849
  338loPI   C1B 5405   9.403   8.436  10.016 -0.0104  0.5272  0.1200
  338loPI   C2B 5406   9.350   8.396   9.510 -0.0643 -0.0823  0.1360
  338loPI   C3B 5407   9.482   8.244   9.171  0.5244  0.2530  0.4978
  338loPI   C4B 5408   9.371   8.244   8.662 -0.0186 -0.0863  0.0588
  339POPI    C1 5409   8.707   1.039  10.959  0.0174  0.1109  0.1458
  339POPI    C2 5410   9.084   1.080  11.087  0.0899  0.1682 -0.0817
  339POPI    C3 5411   8.821   1.376  11.142  0.0790  0.1303  0.0727
  339POPI   PO4 5412   8.721   0.939  10.717 -0.1185  0.0456 -0.0238
  339POPI   GL1 5413   8.818   0.658  10.346  0.1751  0.1177  0.1603
  339POPI   GL2 5414   8.609   0.403  10.298 -0.3660 -0.0823  0.0519
  339POPI   C1A 5415   8.882   0.687   9.925  0.1323 -0.0273  0.2366
  339POPI   D2A 5416   8.891   0.624   9.524  0.0883 -0.0916 -0.0657
  339POPI   C3A 5417   9.113   0.790   9.362 -0.1690  0.1370  0.1220
  339POPI   C4A 5418   9.402   0.782   9.037 -0.1602  0.0291  0.1886
  339POPI   C1B 5419   8.644   0.168   9.939  0.0148 -0.2332  0.0204
  339POPI   C2B 5420   8.738   0.141   9.555  0.0432 -0.2334 -0.0947
  339POPI   C3B 5421   8.863   0.041   9.081 -0.1222 -0.3933 -0.1472
  339POPI   C4B 5422   8.900   0.205   8.594 -0.0697 -0.1939 -0.1940
  340POPI    C1 5423  11.644  10.425  10.744  0.0148  0.1392 -0.1122
  340POPI    C2 5424  11.471  10.129  10.538 -0.0458  0.0611  0.0488
  340POPI    C3 5425  11.657  10.050  10.883  0.0812  0.1861  0.0099
  340POPI   PO4 5426  11.773  10.588  10.524 -0.2222 -0.1036 -0.2155
  340POPI   GL1 5427  11.711  10.455  10.100  0.6295  0.0669 -0.3205
  340POPI   GL2 5428  11.885  10.767  10.079 -0.1127  0.0379  0.2973
  340POPI   C1A 5429  11.489  10.263   9.699  0.0202 -0.3946 -0.3007
  340POPI   D2A 5430  11.508  10.395   9.351  0.0773 -0.0134  0.0448
  340POPI   C3A 5431  11.249  10.249   9.112  0.0045  0.0763 -0.4460
  340POPI   C4A 5432  11.145   9.968   8.663  0.1872  0.0603  0.1366
  340POPI   C1B 5433  11.752  10.809   9.656 -0.2468 -0.0839  0.0330
  340POPI   C2B 5434  11.877  10.911   9.259 -0.2809  0.1148 -0.0541
  340POPI   C3B 5435  11.805  10.917   8.832  0.3800 -0.1954 -0.0478
  340POPI   C4B 5436  11.440  10.984   8.451  0.0921  0.0560 -0.1277
  341POPI    C1 5437  14.405   9.350  10.450  0.1158 -0.0096  0.0043
  341POPI    C2 5438  14.427   9.074  10.739  0.1718 -0.0650 -0.0525
  341POPI    C3 5439  14.744   9.305  10.658  0.1162  0.0353  0.0134
  341POPI   PO4 5440  14.314   9.252  10.289  0.1662 -0.1484 -0.0768
  341POPI   GL1 5441  14.368   9.190   9.889  0.1090  0.0915  0.1341
  341POPI   GL2 5442  14.072   8.922   9.955  0.0873  0.0704  0.1460
  341POPI   C1A 5443  14.189   9.346   9.620  0.0296  0.0113 -0.1838
  341POPI   D2A 5444  13.796   9.243   9.406 -0.0135  0.1617 -0.1716
  341POPI   C3A 5445  13.906   9.447   9.078 -0.2473  0.0509 -0.1534
  341POPI   C4A 5446  13.866   9.501   8.653 -0.6215 -0.1172  0.2820
  341POPI   C1B 5447  13.937   8.779   9.433  0.3146  0.1494  0.1718
  341POPI   C2B 5448  13.906   8.784   9.014 -0.0893  0.0332 -0.2691
  341POPI   C3B 5449  13.954   9.009   8.701  0.2437  0.0572  0.0366
  341POPI   C4B 5450  14.029   9.119   8.314 -0.2046  0.1582  0.0969
  342POPI    C1 5451  15.769  10.503  11.048 -0.1207  0.0449  0.0813
  342POPI    C2 5452  15.441  10.274  11.052 -0.0846 -0.0055  0.2327
  342POPI    C3 5453  15.719  10.230  11.336  0.1450 -0.0950 -0.0025
  342POPI   PO4 5454  15.946  10.657  10.870 -0.0709 -0.0246  0.0361
  342POPI   GL1 5455  16.002  10.934  10.605  0.1870 -0.2422  0.0263
  342POPI   GL2 5456  15.824  11.107  10.459 -0.1507  0.1563 -0.2595
  342POPI   C1A 5457  16.177  10.848  10.201 -0.2150 -0.2741  0.0118
  342POPI   D2A 5458  16.586  10.881  10.004  0.1161 -0.2602 -0.3221
  342POPI   C3A 5459  16.692  11.066   9.654  0.0640  0.1943 -0.1877
  342POPI   C4A 5460  16.690  11.029   9.247 -0.0194  0.1733 -0.0209
  342POPI   C1B 5461  15.810  11.136  10.017  0.0554 -0.3476  0.2624
  342POPI   C2B 5462  15.669  11.060   9.579  0.1580  0.1632 -0.2889
  342POPI   C3B 5463  15.564  11.137   9.121 -0.4046  0.0866 -0.1325
  342POPI   C4B 5464  15.751  11.202   8.724 -0.1259  0.1193 -0.0535
  343POPI    C1 5465  15.679  16.613  10.623  0.0320 -0.0538 -0.0258
  343POPI    C2 5466  15.500  16.825  10.911 -0.0184 -0.1083 -0.0169
  343POPI    C3 5467  15.826  16.609  10.995 -0.0390 -0.1324  0.0016
  343POPI   PO4 5468  15.381  16.551  10.471 -0.1463  0.2235  0.0889
  343POPI   GL1 5469  15.320  16.239  10.150 -0.0673 -0.0089  0.1120
  343POPI   GL2 5470  15.101  16.301   9.980  0.0858  0.1125 -0.1047
  343POPI   C1A 5471  15.364  15.979   9.773  0.0356  0.1019 -0.0495
  343POPI   D2A 5472  15.178  16.089   9.379  0.1114  0.1237 -0.2609
  343POPI   C3A 5473  15.363  16.021   9.005  0.2022  0.2133 -0.1397
  343POPI   C4A 5474  15.567  16.089   8.603 -0.2945  0.2284  0.0088
  343POPI   C1B 5475  14.815  16.220   9.718  0.1479  0.3379  0.2640
  343POPI   C2B 5476  14.584  16.055   9.213  0.2145 -0.3353 -0.1229
  343POPI   C3B 5477  14.544  16.083   8.755  0.1389 -0.2589  0.0939
  343POPI   C4B 5478  14.582  15.892   8.344  0.3363  0.1300 -0.0076
  344POPI    C1 5479   1.694  16.180  10.927 -0.0195  0.0008 -0.0662
  344POPI    C2 5480   1.740  16.488  11.177  0.1179  0.0313 -0.1278
  344POPI    C3 5481   1.599  16.140  11.313  0.0711  0.0863 -0.0345
  344POPI   PO4 5482   1.833  16.307  10.737  0.1032 -0.0759  0.0420
  344POPI   GL1 5483   1.892  16.063  10.310  0.2486 -0.0769 -0.1600
  344POPI   GL2 5484   1.635  15.893  10.150 -0.0720 -0.0234  0.0585
  344POPI   C1A 5485   2.051  16.261   9.954 -0.1787  0.3320 -0.0483
  344POPI   D2A 5486   2.153  16.483   9.584 -0.0972  0.1880 -0.2813
  344POPI   C3A 5487   2.301  16.600   9.142 -0.0702 -0.0116  0.1177
  344POPI   C4A 5488   2.374  17.003   9.085  0.3180  0.1539 -0.1345
  344POPI   C1B 5489   1.610  16.127   9.662 -0.2349 -0.0098  0.3423
  344POPI   C2B 5490   1.688  16.181   9.275 -0.0733  0.0535 -0.0645
  344POPI   C3B 5491   1.891  16.310   8.878  0.0060 -0.0309  0.2867
  344POPI   C4B 5492   1.858  16.549   8.475  0.1629 -0.0267 -0.0063
  345POPI    C1 5493   6.485  17.240  11.159 -0.0476  0.1922  0.2349
  345POPI    C2 5494   6.728  17.220  11.476  0.2843  0.0533 -0.0230
  345POPI    C3 5495   6.629  17.576  11.323 -0.0392  0.1316  0.3529
  345POPI   PO4 5496   6.620  17.014  11.006  0.3889 -0.0869 -0.1279
  345POPI   GL1 5497   6.458  16.980  10.598 -0.1975 -0.0081 -0.0153
  345POPI   GL2 5498   6.288  17.169  10.676 -0.0668  0.0818 -0.0228
  345POPI   C1A 5499   6.646  16.979  10.283 -0.0258 -0.0074  0.1087
  345POPI   D2A 5500   6.588  16.803   9.914  0.0418 -0.1024  0.1696
  345POPI   C3A 5501   6.707  16.572   9.579 -0.0438  0.0247  0.1296
  345POPI   C4A 5502   7.053  16.605   9.207 -0.0711 -0.1678  0.1360
  345POPI   C1B 5503   6.253  17.219  10.209  0.1503 -0.2385  0.0612
  345POPI   C2B 5504   6.538  17.310   9.962  0.0267 -0.1999  0.0425
  345POPI   C3B 5505   6.514  17.382   9.619  0.2287 -0.3160 -0.1910
  345POPI   C4B 5506   6.596  17.638   9.249  0.0565 -0.1099  0.2189
  346POPI    C1 5507  10.699   9.262  10.668  0.2744 -0.1684 -0.0301
  346POPI    C2 5508  10.502   9.550  10.864  0.1670 -0.1118 -0.2184
  346POPI    C3 5509  10.845   9.405  11.012  0.1658  0.0364 -0.0678
  346POPI   PO4 5510  10.651   9.410  10.344 -0.2208 -0.0656  0.0562
  346POPI   GL1 5511  10.393   9.407  10.009 -0.0911  0.2007 -0.0895
  346POPI   GL2 5512  10.170   9.173  10.035  0.1821 -0.2849 -0.0577
  346POPI   C1A 5513  10.398   9.452   9.572 -0.1696 -0.0400  0.0512
  346POPI   D2A 5514  10.253   9.473   9.200  0.1447 -0.1533  0.1211
  346POPI   C3A 5515  10.530   9.530   8.972  0.0890  0.0810  0.1206
  346POPI   C4A 5516  10.792   9.559   8.568 -0.1593 -0.0358 -0.0882
  346POPI   C1B 5517  10.088   8.957   9.627 -0.0208  0.3227 -0.0405
  346POPI   C2B 5518   9.891   9.131   9.265 -0.2780  0.0997  0.0668
  346POPI   C3B 5519   9.907   9.064   8.913 -0.0056  0.0616  0.0708
  346POPI   C4B 5520  10.033   8.980   8.481 -0.0299 -0.0198 -0.0848
  347POPI    C1 5521  13.833   0.485  11.036  0.2911 -0.0747 -0.0765
  347POPI    C2 5522  13.956   0.301  11.370  0.0387  0.0064  0.0633
  347POPI    C3 5523  13.899   0.697  11.369  0.1755  0.0270 -0.1179
  347POPI   PO4 5524  13.925   0.402  10.875 -0.2694  0.3630  0.2345
  347POPI   GL1 5525  14.031   0.437  10.386  0.1061  0.0639 -0.1534
  347POPI   GL2 5526  14.220   0.799  10.397  0.0379  0.2654 -0.2491
  347POPI   C1A 5527  14.001   0.566   9.904  0.1081  0.1501 -0.1042
  347POPI   D2A 5528  14.187   0.543   9.645 -0.0386 -0.0276  0.1920
  347POPI   C3A 5529  14.105   0.551   9.311  0.0077 -0.1134 -0.1310
  347POPI   C4A 5530  13.870   0.829   8.994 -0.1668  0.0096 -0.3064
  347POPI   C1B 5531  14.393   0.814   9.979  0.0079 -0.1550 -0.0044
  347POPI   C2B 5532  14.567   0.865   9.483  0.3301 -0.0133 -0.2379
  347POPI   C3B 5533  14.454   0.782   9.059 -0.1418  0.1917  0.0651
  347POPI   C4B 5534  14.574   0.528   8.641  0.2374  0.0885 -0.1467
  348POPI    C1 5535  17.265  11.686  10.570  0.0821  0.0165 -0.2242
  348POPI    C2 5536  17.626  11.856  10.585  0.0569  0.0650 -0.1660
  348POPI    C3 5537  17.591  11.471  10.484  0.1293  0.0461 -0.1203
  348POPI   PO4 5538  17.069  11.889  10.534 -0.0064  0.0421  0.1771
  348POPI   GL1 5539  16.859  12.129  10.199  0.0843  0.0791 -0.1498
  348POPI   GL2 5540  16.884  11.861  10.073  0.0052  0.1347  0.1184
  348POPI   C1A 5541  16.635  12.331   9.896  0.3225  0.2134  0.0249
  348POPI   D2A 5542  16.647  12.441   9.509  0.0301  0.0634 -0.0716
  348POPI   C3A 5543  16.860  12.381   9.170 -0.1609  0.2116 -0.1591
  348POPI   C4A 5544  17.113  12.509   8.901  0.4013  0.1339  0.0461
  348POPI   C1B 5545  16.928  11.947   9.688  0.2030  0.1842  0.1021
  348POPI   C2B 5546  16.953  11.909   9.220 -0.2057  0.0838 -0.0536
  348POPI   C3B 5547  17.029  11.972   8.849 -0.1650  0.1441  0.0448
  348POPI   C4B 5548  17.077  11.969   8.393 -0.0415 -0.0142  0.1176
  349POPI    C1 5549  12.334   8.351  10.925 -0.1517 -0.1211 -0.0004
  349POPI    C2 5550  12.553   8.318  10.592 -0.3717 -0.2037 -0.1396
  349POPI    C3 5551  12.646   8.101  10.915 -0.0069  0.0602 -0.0607
  349POPI   PO4 5552  12.099   8.531  10.776 -0.0812  0.3690 -0.2405
  349POPI   GL1 5553  11.901   8.624  10.332  0.0089 -0.1209 -0.0629
  349POPI   GL2 5554  12.273   8.607  10.293  0.2884 -0.1158  0.2357
  349POPI   C1A 5555  11.945   8.691   9.882 -0.0069  0.4418  0.0603
  349POPI   D2A 5556  12.008   8.846   9.481 -0.2318  0.3031  0.0636
  349POPI   C3A 5557  11.774   8.920   9.064  0.2444 -0.2575 -0.0801
  349POPI   C4A 5558  11.706   9.173   8.605  0.1356  0.5132  0.1210
  349POPI   C1B 5559  12.387   8.454   9.869  0.2546  0.1545  0.0176
  349POPI   C2B 5560  12.452   8.509   9.427 -0.0729 -0.0394 -0.1244
  349POPI   C3B 5561  12.323   8.593   9.030  0.2517  0.0468 -0.0369
  349POPI   C4B 5562  12.368   8.455   8.635 -0.0542  0.2600 -0.0105
  350POPI    C1 5563   3.864  13.901  11.141 -0.1068 -0.0088  0.0017
  350POPI    C2 5564   3.535  14.020  10.946 -0.1351 -0.0287  0.0370
  350POPI    C3 5565   3.710  14.263  11.212  0.0040  0.0669 -0.1397
  350POPI   PO4 5566   4.032  13.778  10.931  0.0378 -0.1651  0.0796
  350POPI   GL1 5567   4.255  13.621  10.623  0.0801  0.3321 -0.0632
  350POPI   GL2 5568   4.561  13.700  10.594 -0.1496 -0.3255  0.0706
  350POPI   C1A 5569   4.347  14.002  10.291 -0.0086 -0.0391  0.0607
  350POPI   D2A 5570   4.402  14.125   9.890 -0.1994  0.1003 -0.1310
  350POPI   C3A 5571   4.155  13.895   9.562 -0.1648  0.2478 -0.2688
  350POPI   C4A 5572   4.144  13.748   9.247  0.2344 -0.0298 -0.0531
  350POPI   C1B 5573   4.378  13.541  10.190 -0.1241  0.1638  0.2489
  350POPI   C2B 5574   4.384  13.539   9.852 -0.0593 -0.1417 -0.0195
  350POPI   C3B 5575   4.518  13.422   9.460 -0.0103  0.3084  0.0699
  350POPI   C4B 5576   4.578  13.062   9.244 -0.2378  0.1530 -0.3152
  351POPI    C1 5577   9.379   0.218  11.078 -0.1275 -0.0499 -0.1682
  351POPI    C2 5578   9.421   0.598  11.193 -0.1737 -0.0579 -0.1246
  351POPI    C3 5579   9.249   0.333  11.439  0.0929 -0.1645 -0.0496
  351POPI   PO4 5580   9.320   0.173  10.883 -0.2287 -0.2568 -0.2188
  351POPI   GL1 5581   9.561   0.152  10.532 -0.1653  0.0030 -0.0561
  351POPI   GL2 5582   9.480   0.483  10.541  0.1271 -0.1964  0.2222
  351POPI   C1A 5583   9.669  -0.134  10.303  0.0293 -0.1438 -0.4004
  351POPI   D2A 5584   9.769  -0.160   9.962  0.1067  0.2673  0.0878
  351POPI   C3A 5585   9.434  -0.249   9.800 -0.2393 -0.1704 -0.1046
  351POPI   C4A 5586   9.143  -0.115   9.520 -0.0153 -0.0821 -0.4935
  351POPI   C1B 5587   9.310   0.721  10.250  0.1992  0.1001  0.1555
  351POPI   C2B 5588   9.322   0.861   9.809 -0.3093 -0.0771 -0.0418
  351POPI   C3B 5589   9.487   1.113   9.502 -0.2367  0.2047  0.1039
  351POPI   C4B 5590   9.610   1.221   9.137  0.0829  0.0317  0.0768
  352POPI    C1 5591  11.788  15.093  11.333 -0.2261  0.2406 -0.2154
  352POPI    C2 5592  11.486  14.867  11.199 -0.2020  0.0398  0.0591
  352POPI    C3 5593  11.465  15.035  11.562  0.0468 -0.0374  0.1108
  352POPI   PO4 5594  12.073  14.950  11.166  0.3534  0.1031 -0.0427
  352POPI   GL1 5595  12.001  14.871  10.751  0.1470  0.0365  0.1001
  352POPI   GL2 5596  11.669  14.971  10.682  0.1798  0.0854 -0.0972
  352POPI   C1A 5597  11.817  14.746  10.237 -0.1328  0.1220  0.2037
  352POPI   D2A 5598  11.868  14.587   9.871 -0.1336  0.1311  0.2215
  352POPI   C3A 5599  11.894  14.579   9.397 -0.1593 -0.0133  0.1276
  352POPI   C4A 5600  11.997  14.550   8.960 -0.2031  0.0593 -0.0862
  352POPI   C1B 5601  11.752  15.221  10.314 -0.0602  0.0574  0.2050
  352POPI   C2B 5602  11.715  15.082   9.875 -0.1144  0.0625  0.1661
  352POPI   C3B 5603  11.699  15.041   9.426 -0.2383  0.0984 -0.0588
  352POPI   C4B 5604  11.619  14.886   9.031 -0.1082  0.0154  0.1243
  353POPI    C1 5605   3.182   9.858  10.606 -0.2324  0.0524  0.1404
  353POPI    C2 5606   3.464   9.674  10.822 -0.0720  0.1238 -0.0057
  353POPI    C3 5607   3.379  10.059  10.889 -0.0965  0.1171  0.0014
  353POPI   PO4 5608   3.302   9.866  10.386 -0.2053 -0.3602  0.1134
  353POPI   GL1 5609   3.543   9.630  10.200 -0.3228 -0.1954  0.1787
  353POPI   GL2 5610   3.666   9.301  10.143 -0.1113 -0.3591 -0.0931
  353POPI   C1A 5611   3.517   9.792   9.813  0.1442 -0.0996  0.1983
  353POPI   D2A 5612   3.542   9.883   9.312 -0.1879  0.0653  0.2187
  353POPI   C3A 5613   3.401   9.845   8.907  0.0185  0.0959  0.3402
  353POPI   C4A 5614   3.125   9.964   8.609  0.1670  0.2763 -0.0353
  353POPI   C1B 5615   3.657   9.115   9.735  0.0991 -0.1346  0.1146
  353POPI   C2B 5616   3.666   9.150   9.286 -0.1276  0.1855 -0.3342
  353POPI   C3B 5617   3.685   9.055   8.829 -0.3762 -0.1495  0.0081
  353POPI   C4B 5618   3.630   9.086   8.364 -0.1833 -0.0302 -0.0683
  354POPI    C1 5619   4.180  15.997  10.614 -0.1883  0.2782 -0.3718
  354POPI    C2 5620   3.904  16.217  10.803 -0.1409 -0.0539  0.1028
  354POPI    C3 5621   4.293  16.284  10.868 -0.1210 -0.0715  0.0036
  354POPI   PO4 5622   4.221  15.746  10.737  0.1833 -0.0529  0.2444
  354POPI   GL1 5623   4.266  15.447  10.363  0.1276 -0.1627  0.0380
  354POPI   GL2 5624   4.095  15.482  10.211 -0.1132  0.0102 -0.1833
  354POPI   C1A 5625   4.662  15.618  10.133  0.3964 -0.0933 -0.0327
  354POPI   D2A 5626   4.762  15.921   9.829 -0.4091 -0.0877  0.1441
  354POPI   C3A 5627   4.906  15.889   9.360 -0.0280  0.0086  0.0129
  354POPI   C4A 5628   4.897  15.981   8.985  0.1784 -0.0365 -0.0986
  354POPI   C1B 5629   4.047  15.700   9.822  0.0626  0.2149  0.1289
  354POPI   C2B 5630   4.098  15.730   9.354  0.0414  0.0277  0.1764
  354POPI   C3B 5631   4.005  15.610   8.968  0.0316 -0.0532 -0.0251
  354POPI   C4B 5632   3.716  15.596   8.678  0.3141 -0.4407  0.0437
  355POPI    C1 5633   8.930   2.247  11.037  0.1513  0.0923 -0.0552
  355POPI    C2 5634   8.906   1.853  10.969  0.1471  0.0846 -0.0097
  355POPI    C3 5635   8.629   2.100  10.819  0.1567  0.0717 -0.0488
  355POPI   PO4 5636   9.078   2.378  10.940  0.1390  0.2340 -0.1136
  355POPI   GL1 5637   9.318   2.401  10.586  0.1997  0.2020  0.1071
  355POPI   GL2 5638   9.313   2.718  10.410  0.4243 -0.0037  0.0596
  355POPI   C1A 5639   9.339   2.208  10.197 -0.1920 -0.1889 -0.0316
  355POPI   D2A 5640   9.508   2.040   9.776 -0.0876 -0.1393 -0.1340
  355POPI   C3A 5641   9.440   2.169   9.365 -0.1260  0.1529 -0.1694
  355POPI   C4A 5642   9.119   2.363   9.055 -0.1933 -0.3938 -0.0144
  355POPI   C1B 5643   9.296   2.674   9.970  0.0649 -0.0678  0.0329
  355POPI   C2B 5644   9.521   2.548   9.627  0.0209 -0.0958 -0.1037
  355POPI   C3B 5645   9.883   2.415   9.374  0.0105  0.1536  0.1129
  355POPI   C4B 5646   9.953   2.598   9.004  0.0997 -0.0777 -0.1824
  356POPI    C1 5647   0.092  12.523  10.688 -0.1432 -0.1718 -0.0633
  356POPI    C2 5648   0.188  12.160  10.828 -0.4944 -0.2533 -0.0257
  356POPI    C3 5649   0.270  12.486  11.045 -0.0873 -0.2986 -0.1035
  356POPI   PO4 5650   0.098  12.381  10.411  0.0177  0.0977  0.1511
  356POPI   GL1 5651   0.048  12.586  10.076  0.2442  0.1593 -0.1000
  356POPI   GL2 5652  -0.194  12.719  10.105  0.0878  0.3662  0.1046
  356POPI   C1A 5653   0.245  12.577   9.651 -0.0676 -0.0834 -0.1472
  356POPI   D2A 5654   0.250  12.613   9.229  0.2350 -0.2161  0.1542
  356POPI   C3A 5655   0.371  12.835   8.893  0.0207 -0.2725  0.1893
  356POPI   C4A 5656   0.639  12.666   8.606 -0.1339 -0.3981  0.0789
  356POPI   C1B 5657  -0.261  12.864   9.685 -0.1873 -0.0221  0.1630
  356POPI   C2B 5658  -0.259  12.998   9.226 -0.2866  0.3273 -0.0223
  356POPI   C3B 5659  -0.450  13.094   8.908  0.0691 -0.1361 -0.0136
  356POPI   C4B 5660  -0.676  13.132   8.520  0.0873 -0.1313 -0.1743
  357POPI    C1 5661   9.197   9.579  10.429  0.0062  0.1061  0.0344
  357POPI    C2 5662   8.946   9.781  10.666  0.0789  0.1439  0.0793
  357POPI    C3 5663   8.908   9.385  10.625 -0.2141  0.1969 -0.1950
  357POPI   PO4 5664   9.317   9.738  10.344  0.3484  0.0427 -0.0060
  357POPI   GL1 5665   9.563   9.739  10.065  0.0843 -0.1455 -0.2832
  357POPI   GL2 5666   9.377  10.129  10.025 -0.3277 -0.1714 -0.0304
  357POPI   C1A 5667   9.427   9.822   9.688  0.1037 -0.1136 -0.0179
  357POPI   D2A 5668   9.319  10.047   9.335  0.0277 -0.1456 -0.0706
  357POPI   C3A 5669   9.260   9.898   8.914 -0.0633  0.4809  0.2517
  357POPI   C4A 5670   9.166   9.838   8.561 -0.1139 -0.1919  0.1853
  357POPI   C1B 5671   9.072  10.232   9.806 -0.0905  0.1534 -0.0250
  357POPI   C2B 5672   8.986  10.431   9.397  0.1677  0.2061  0.1040
  357POPI   C3B 5673   9.031  10.421   8.981 -0.0439 -0.1536 -0.4281
  357POPI   C4B 5674   9.006  10.416   8.517 -0.3684  0.1887 -0.1525
  358POPI    C1 5675   8.039   9.824  10.647 -0.0303  0.0500 -0.0178
  358POPI    C2 5676   7.673   9.815  10.808  0.0631  0.3453  0.2205
  358POPI    C3 5677   7.989   9.692  11.021  0.0954  0.0004 -0.0177
  358POPI   PO4 5678   8.009   9.669  10.375 -0.1359 -0.3231  0.0944
  358POPI   GL1 5679   7.723   9.401  10.039 -0.1015  0.0729 -0.2307
  358POPI   GL2 5680   7.530   9.249   9.947 -0.1408  0.0656 -0.0888
  358POPI   C1A 5681   7.933   9.554   9.693  0.2163  0.1522  0.1831
  358POPI   D2A 5682   7.788   9.632   9.256 -0.0053  0.0805 -0.1646
  358POPI   C3A 5683   7.856   9.678   8.856  0.0239  0.0303 -0.0128
  358POPI   C4A 5684   7.837   9.767   8.387 -0.0065  0.0106 -0.1018
  358POPI   C1B 5685   7.587   9.182   9.545  0.1423  0.2280 -0.0410
  358POPI   C2B 5686   7.550   9.218   9.153 -0.0830 -0.1497  0.1686
  358POPI   C3B 5687   7.498   9.154   8.709  0.2057  0.1215 -0.5736
  358POPI   C4B 5688   7.686   9.220   8.390  0.0095  0.1728 -0.0409
  359POPI    C1 5689  16.162   2.762  10.804  0.2366 -0.1795  0.1540
  359POPI    C2 5690  16.035   2.388  10.864 -0.2471 -0.1111 -0.3533
  359POPI    C3 5691  15.841   2.694  11.033  0.0334 -0.0707 -0.0938
  359POPI   PO4 5692  16.484   2.686  10.791  0.1780 -0.0866  0.0912
  359POPI   GL1 5693  16.722   2.511  10.425 -0.0828  0.0467  0.1253
  359POPI   GL2 5694  16.655   2.240  10.432  0.0603  0.0388 -0.2108
  359POPI   C1A 5695  16.565   2.381   9.972  0.0343  0.2013  0.3188
  359POPI   D2A 5696  16.471   2.214   9.543 -0.1005  0.0622 -0.0646
  359POPI   C3A 5697  16.742   2.248   9.191  0.2191  0.0067 -0.1396
  359POPI   C4A 5698  16.805   2.416   8.805  0.2729 -0.0157  0.0976
  359POPI   C1B 5699  16.201   2.182  10.188 -0.0582 -0.1918 -0.4177
  359POPI   C2B 5700  15.891   2.221   9.839  0.0630 -0.2216  0.0767
  359POPI   C3B 5701  15.838   2.299   9.502 -0.1796  0.0611 -0.2496
  359POPI   C4B 5702  15.739   2.221   9.018 -0.1161  0.1131  0.0767
  360POPI    C1 5703  15.860   5.425  10.994  0.0249 -0.1254 -0.0048
  360POPI    C2 5704  15.637   5.094  11.013 -0.1916  0.0160 -0.0443
  360POPI    C3 5705  15.637   5.351  11.319  0.0816 -0.0851  0.0434
  360POPI   PO4 5706  15.944   5.351  10.705 -0.0148  0.0046 -0.2620
  360POPI   GL1 5707  16.123   5.529  10.387 -0.0695 -0.1546  0.2848
  360POPI   GL2 5708  16.433   5.430  10.231 -0.0514 -0.0291  0.4472
  360POPI   C1A 5709  16.066   5.635   9.982  0.1038  0.1407  0.0462
  360POPI   D2A 5710  16.024   5.678   9.600 -0.0165  0.1386 -0.0776
  360POPI   C3A 5711  16.079   5.762   9.196 -0.0569 -0.0607  0.1759
  360POPI   C4A 5712  15.954   5.904   8.790  0.1011 -0.2325 -0.1240
  360POPI   C1B 5713  16.549   5.519   9.904 -0.1128  0.0100 -0.2212
  360POPI   C2B 5714  16.495   5.551   9.578 -0.3125 -0.1653 -0.1018
  360POPI   C3B 5715  16.662   5.554   9.245  0.2129  0.0192  0.3587
  360POPI   C4B 5716  16.566   5.764   8.849  0.1832  0.3489 -0.1853
  361POPI    C1 5717   4.196   1.197  11.032  0.2520 -0.1489  0.0578
  361POPI    C2 5718   4.167   1.449  11.341 -0.1259 -0.0221 -0.0747
  361POPI    C3 5719   3.942   1.119  11.331  0.0225 -0.1227 -0.1271
  361POPI   PO4 5720   4.365   1.361  10.886  0.2525 -0.0603  0.1021
  361POPI   GL1 5721   4.208   1.554  10.548  0.1647 -0.1298 -0.0106
  361POPI   GL2 5722   4.033   1.873  10.531 -0.1744  0.1861  0.1979
  361POPI   C1A 5723   4.112   1.533  10.133 -0.0828  0.0606 -0.3747
  361POPI   D2A 5724   4.144   1.709   9.805  0.1847 -0.2031  0.1326
  361POPI   C3A 5725   4.097   1.972   9.512  0.1995  0.3104  0.1394
  361POPI   C4A 5726   4.258   2.217   9.162  0.0898 -0.2861  0.0496
  361POPI   C1B 5727   3.856   1.980  10.207 -0.0609 -0.1554  0.0729
  361POPI   C2B 5728   3.985   2.226   9.956  0.0399 -0.1514 -0.0903
  361POPI   C3B 5729   3.875   2.443   9.551 -0.1442  0.1256 -0.1639
  361POPI   C4B 5730   3.809   2.325   9.104 -0.4739  0.0955 -0.1108
  362POPI    C1 5731  12.324   5.130  11.171  0.1920  0.2221 -0.0165
  362POPI    C2 5732  12.193   5.508  11.184  0.1244  0.1983  0.0002
  362POPI    C3 5733  11.938   5.205  11.240  0.1958  0.1526  0.0831
  362POPI   PO4 5734  12.411   5.145  10.944 -0.0493  0.1376  0.1914
  362POPI   GL1 5735  12.515   5.181  10.562  0.0927  0.1627  0.2907
  362POPI   GL2 5736  12.222   5.048  10.414  0.1850  0.1181 -0.0045
  362POPI   C1A 5737  12.464   5.460  10.123  0.0214 -0.1030 -0.1961
  362POPI   D2A 5738  12.355   5.441   9.640 -0.1168 -0.1718  0.0893
  362POPI   C3A 5739  12.172   5.752   9.379  0.0341 -0.1280 -0.0267
  362POPI   C4A 5740  12.016   5.675   8.952  0.1376  0.3235 -0.1771
  362POPI   C1B 5741  12.002   5.246  10.080 -0.1800 -0.1235  0.2044
  362POPI   C2B 5742  11.891   5.518   9.819  0.2259  0.0514  0.1935
  362POPI   C3B 5743  11.837   5.386   9.332  0.2194 -0.1371  0.1037
  362POPI   C4B 5744  11.677   5.294   8.891 -0.2634 -0.3157 -0.0247
  363POPI    C1 5745  10.052   7.957  10.977  0.0615 -0.0516 -0.0630
  363POPI    C2 5746  10.223   8.291  10.837  0.1565 -0.1460 -0.1742
  363POPI    C3 5747  10.364   8.118  11.169 -0.0330  0.0463  0.0098
  363POPI   PO4 5748  10.032   7.767  10.782  0.0347  0.1048 -0.0198
  363POPI   GL1 5749  10.043   7.940  10.427  0.2071 -0.2456 -0.0558
  363POPI   GL2 5750   9.980   7.697  10.246  0.0386 -0.0568 -0.4494
  363POPI   C1A 5751  10.270   8.116   9.943  0.0670 -0.0877 -0.0410
  363POPI   D2A 5752  10.378   7.970   9.486  0.3231  0.6385  0.0091
  363POPI   C3A 5753  10.476   8.026   9.028 -0.0075 -0.1389  0.1220
  363POPI   C4A 5754  10.620   7.898   8.610 -0.0452 -0.1375  0.1222
  363POPI   C1B 5755  10.004   7.702   9.818 -0.2557  0.0486  0.0732
  363POPI   C2B 5756   9.965   7.519   9.372 -0.2798 -0.1746  0.0084
  363POPI   C3B 5757   9.872   7.653   8.894 -0.1357  0.0505 -0.2228
  363POPI   C4B 5758   9.874   7.483   8.497 -0.1501  0.2426  0.0548
  364POPI    C1 5759  16.732   4.351  10.924  0.0396 -0.4186 -0.1197
  364POPI    C2 5760  16.416   4.106  10.923 -0.3181  0.0310 -0.1752
  364POPI    C3 5761  16.531   4.281  11.263 -0.0179 -0.2622 -0.1209
  364POPI   PO4 5762  17.081   4.239  10.855 -0.0771 -0.1375 -0.0517
  364POPI   GL1 5763  17.131   3.932  10.501 -0.1322  0.2320  0.0736
  364POPI   GL2 5764  17.195   3.730  10.742 -0.2414  0.0227 -0.2074
  364POPI   C1A 5765  17.180   4.221  10.176 -0.0489  0.0412 -0.1810
  364POPI   D2A 5766  17.214   4.310   9.776 -0.1475  0.1416 -0.0316
  364POPI   C3A 5767  17.151   4.103   9.368  0.3143 -0.1534 -0.2241
  364POPI   C4A 5768  17.295   3.933   9.029 -0.1134 -0.0910 -0.2559
  364POPI   C1B 5769  17.446   3.620  10.347  0.3836  0.0753 -0.0099
  364POPI   C2B 5770  17.551   3.429  10.029  0.1827 -0.2809 -0.0504
  364POPI   C3B 5771  17.558   3.282   9.601  0.0017 -0.1572  0.0463
  364POPI   C4B 5772  17.758   3.213   9.260 -0.2602  0.0795 -0.3000
  365POPI    C1 5773  10.368  15.218  11.029 -0.0733  0.2627 -0.0473
  365POPI    C2 5774  10.070  14.952  11.002  0.1982 -0.0199 -0.3435
  365POPI    C3 5775  10.398  14.865  11.214  0.2501  0.1167 -0.3668
  365POPI   PO4 5776  10.326  15.252  10.715 -0.0562 -0.0969 -0.1015
  365POPI   GL1 5777  10.508  15.358  10.357  0.0248 -0.1807 -0.1526
  365POPI   GL2 5778  10.707  15.160  10.383 -0.1403  0.1977  0.1841
  365POPI   C1A 5779  10.369  15.653  10.042  0.1125 -0.0351 -0.0162
  365POPI   D2A 5780  10.261  15.730   9.633  0.1663  0.0194  0.3120
  365POPI   C3A 5781   9.821  15.817   9.612 -0.2664 -0.1078  0.0835
  365POPI   C4A 5782   9.360  15.926   9.655  0.0682 -0.1339 -0.0569
  365POPI   C1B 5783  10.736  15.212   9.882  0.1609 -0.3340 -0.1176
  365POPI   C2B 5784  10.542  15.285   9.485 -0.0732 -0.3724  0.1069
  365POPI   C3B 5785  10.376  15.544   9.166  0.2372  0.1730  0.1573
  365POPI   C4B 5786  10.252  15.754   8.754 -0.0041  0.3362  0.0606
  366POPI    C1 5787   9.826   0.399  11.013 -0.3343  0.0756  0.1412
  366POPI    C2 5788   9.849   0.119  11.298 -0.2738 -0.0992 -0.0341
  366POPI    C3 5789  10.006   0.481  11.361  0.1597 -0.2829 -0.0188
  366POPI   PO4 5790   9.934   0.326  10.839  0.0799 -0.0121 -0.0960
  366POPI   GL1 5791   9.974   0.583  10.486  0.0031 -0.1466 -0.1113
  366POPI   GL2 5792   9.930   0.840  10.484  0.1565 -0.0482 -0.0958
  366POPI   C1A 5793   9.845   0.392  10.093  0.0671 -0.3388  0.3222
  366POPI   D2A 5794   9.929   0.258   9.637  0.0463  0.2263 -0.2348
  366POPI   C3A 5795   9.707  -0.035   9.427  0.1730 -0.0133 -0.1288
  366POPI   C4A 5796   9.404  -0.334   9.166  0.0430  0.3008 -0.0315
  366POPI   C1B 5797   9.741   0.860  10.131 -0.1634 -0.0703  0.1577
  366POPI   C2B 5798   9.899   0.844   9.794  0.0766 -0.1106  0.0638
  366POPI   C3B 5799   9.739   0.651   9.432 -0.4875  0.1147 -0.2581
  366POPI   C4B 5800   9.885   0.322   9.089  0.0182  0.1503 -0.1071
  367POPI    C1 5801  15.845  16.106  10.945  0.1927 -0.0054  0.1780
  367POPI    C2 5802  15.668  16.255  11.271  0.1135  0.1128  0.0822
  367POPI    C3 5803  15.809  15.880  11.273  0.0175  0.0766  0.2164
  367POPI   PO4 5804  15.696  16.110  10.701 -0.2558 -0.1671 -0.0714
  367POPI   GL1 5805  15.753  16.055  10.259  0.2018 -0.0662 -0.3777
  367POPI   GL2 5806  15.566  15.847  10.271 -0.1561 -0.1730 -0.0939
  367POPI   C1A 5807  15.884  15.983   9.843 -0.0740  0.1808  0.2774
  367POPI   D2A 5808  15.723  15.946   9.424 -0.1747  0.2632 -0.2043
  367POPI   C3A 5809  15.858  16.041   8.963 -0.0885 -0.1818 -0.2559
  367POPI   C4A 5810  16.079  16.028   8.558  0.2159  0.2395  0.2957
  367POPI   C1B 5811  15.744  15.552  10.041  0.1570 -0.1422  0.0711
  367POPI   C2B 5812  15.783  15.466   9.598  0.2381  0.2081  0.0304
  367POPI   C3B 5813  15.767  15.542   9.140 -0.2194  0.3258  0.2129
  367POPI   C4B 5814  15.697  15.637   8.733  0.2170  0.0067 -0.2405
  368POPI    C1 5815   2.038   7.013  11.388 -0.1070  0.0584 -0.0297
  368POPI    C2 5816   2.155   6.740  11.656  0.1020  0.0214 -0.1559
  368POPI    C3 5817   1.797   6.915  11.691  0.0889 -0.0518  0.0928
  368POPI   PO4 5818   2.167   6.835  11.144 -0.1501  0.1005  0.0530
  368POPI   GL1 5819   2.056   6.927  10.700  0.1073  0.1353 -0.3644
  368POPI   GL2 5820   2.309   6.657  10.703 -0.0399 -0.0142 -0.0733
  368POPI   C1A 5821   1.881   6.786  10.401  0.0658 -0.0283 -0.1988
  368POPI   D2A 5822   1.686   6.617  10.141  0.0608  0.2196  0.0577
  368POPI   C3A 5823   1.691   6.559   9.681 -0.1826 -0.0564  0.1641
  368POPI   C4A 5824   1.743   6.476   9.245 -0.1141  0.0434 -0.1541
  368POPI   C1B 5825   2.330   6.832  10.277  0.0308 -0.0443  0.0343
  368POPI   C2B 5826   2.094   6.768   9.890 -0.1588  0.1827 -0.0128
  368POPI   C3B 5827   2.149   6.714   9.428  0.0929 -0.2736  0.1255
  368POPI   C4B 5828   2.249   6.560   9.024 -0.0934  0.0574 -0.2184
  369POPI    C1 5829   2.471  17.008  11.215 -0.2090 -0.3589 -0.0189
  369POPI    C2 5830   2.763  16.744  11.284  0.0752 -0.0290  0.0698
  369POPI    C3 5831   2.643  16.990  11.576  0.0599  0.1797 -0.1098
  369POPI   PO4 5832   2.476  17.020  10.932 -0.4758 -0.0077  0.0248
  369POPI   GL1 5833   2.261  17.237  10.680  0.1560  0.2104  0.0817
  369POPI   GL2 5834   1.971  17.157  10.528  0.1758  0.1729  0.1749
  369POPI   C1A 5835   2.414  17.356  10.299  0.4358  0.1646 -0.0796
  369POPI   D2A 5836   2.441  17.120   9.937 -0.3011  0.0517 -0.2074
  369POPI   C3A 5837   2.377  17.300   9.559 -0.2159  0.1192  0.0706
  369POPI   C4A 5838   2.549  17.538   9.117 -0.1701 -0.0504  0.1650
  369POPI   C1B 5839   1.992  17.019  10.125 -0.0927  0.1057 -0.0135
  369POPI   C2B 5840   2.053  16.942   9.779  0.1636  0.0351  0.1951
  369POPI   C3B 5841   2.004  16.939   9.433  0.4595  0.0711  0.0128
  369POPI   C4B 5842   1.925  16.836   8.909 -0.1289 -0.0138  0.0871
  370POPI    C1 5843   4.471   8.569  10.959  0.0869 -0.2163  0.1644
  370POPI    C2 5844   4.169   8.660  11.205  0.1174  0.0972  0.0905
  370POPI    C3 5845   4.499   8.485  11.350  0.0554  0.0994  0.2368
  370POPI   PO4 5846   4.334   8.468  10.765  0.0266 -0.1909  0.2610
  370POPI   GL1 5847   4.244   8.138  10.515 -0.1829  0.1093 -0.1059
  370POPI   GL2 5848   4.152   8.178  10.169  0.0404  0.0635 -0.0091
  370POPI   C1A 5849   4.595   7.926  10.334  0.0226  0.3426  0.0766
  370POPI   D2A 5850   4.779   7.483  10.325  0.0452  0.0272  0.0303
  370POPI   C3A 5851   4.683   7.189  10.014  0.1105 -0.0899  0.1066
  370POPI   C4A 5852   4.518   7.129   9.681  0.2183 -0.0579 -0.1473
  370POPI   C1B 5853   4.434   8.096   9.846 -0.0182 -0.1973  0.3034
  370POPI   C2B 5854   4.491   7.990   9.376 -0.1643 -0.1096  0.1513
  370POPI   C3B 5855   4.665   7.761   9.061 -0.0724  0.0216 -0.1354
  370POPI   C4B 5856   4.786   7.389   8.765  0.0934  0.1135 -0.0956
  371POPI    C1 5857   4.712   3.330  11.025  0.3459 -0.0812 -0.0166
  371POPI    C2 5858   4.589   3.583  11.309  0.1767 -0.1281 -0.0471
  371POPI    C3 5859   4.973   3.581  11.196  0.2107  0.0064  0.0628
  371POPI   PO4 5860   4.465   3.230  10.766 -0.3063 -0.1977 -0.5207
  371POPI   GL1 5861   4.523   3.263  10.429 -0.2858  0.1587  0.1118
  371POPI   GL2 5862   4.896   3.287  10.528 -0.5639  0.1150 -0.1040
  371POPI   C1A 5863   4.787   3.274   9.954  0.2459 -0.0794 -0.1409
  371POPI   D2A 5864   4.769   3.155   9.553  0.2323  0.1311  0.2321
  371POPI   C3A 5865   4.902   3.429   9.170 -0.0811 -0.0294  0.3122
  371POPI   C4A 5866   4.673   3.417   8.693 -0.0915 -0.1651 -0.2950
  371POPI   C1B 5867   5.145   3.420  10.196 -0.2464  0.1821 -0.1720
  371POPI   C2B 5868   5.203   3.493   9.714 -0.1046 -0.2389  0.0375
  371POPI   C3B 5869   5.240   3.746   9.400  0.1525 -0.1320 -0.0845
  371POPI   C4B 5870   5.315   3.885   9.006  0.2027  0.3562  0.0975
  372POPI    C1 5871   7.115  17.473  11.320  0.1285  0.0374 -0.0944
  372POPI    C2 5872   7.130  17.780  11.064  0.0886  0.2371  0.1401
  372POPI    C3 5873   7.024  17.841  11.445  0.0250 -0.0773  0.1754
  372POPI   PO4 5874   7.093  17.246  11.143  0.2475 -0.0572 -0.3419
  372POPI   GL1 5875   6.973  17.094  10.651  0.0105 -0.2269  0.1226
  372POPI   GL2 5876   7.243  16.966  10.603  0.0699 -0.0900 -0.2748
  372POPI   C1A 5877   6.804  17.424  10.408 -0.0708  0.2554 -0.0537
  372POPI   D2A 5878   6.396  17.625  10.430  0.1836  0.1392 -0.1735
  372POPI   C3A 5879   6.263  17.757   9.986  0.2501 -0.0393  0.2919
  372POPI   C4A 5880   6.263  17.847   9.596 -0.2073  0.0420 -0.4181
  372POPI   C1B 5881   7.271  17.159  10.221  0.0357 -0.1322  0.0644
  372POPI   C2B 5882   7.004  17.111   9.851  0.1397  0.0754  0.0230
  372POPI   C3B 5883   6.835  17.036   9.421  0.0143  0.0526  0.1753
  372POPI   C4B 5884   6.402  16.895   9.365 -0.0370  0.0819  0.3800
  373POPI    C1 5885  17.070   5.784  10.975 -0.1988 -0.0996 -0.0795
  373POPI    C2 5886  17.276   5.584  10.697 -0.1614 -0.2439  0.0506
  373POPI    C3 5887  17.401   5.584  11.077 -0.1358  0.0654  0.0445
  373POPI   PO4 5888  16.813   5.678  10.925  0.1289 -0.0983  0.0985
  373POPI   GL1 5889  16.706   5.736  10.478 -0.0176 -0.3791  0.0197
  373POPI   GL2 5890  16.909   5.487  10.405  0.3446 -0.0133 -0.2248
  373POPI   C1A 5891  16.947   5.839  10.075  0.4969 -0.2865 -0.2920
  373POPI   D2A 5892  17.110   5.961   9.638  0.2158 -0.0665  0.0978
  373POPI   C3A 5893  17.101   5.894   9.247 -0.2474 -0.1765  0.1420
  373POPI   C4A 5894  17.163   5.942   8.825 -0.0238  0.1247  0.0218
  373POPI   C1B 5895  17.004   5.323  10.078  0.0015  0.1902 -0.0988
  373POPI   C2B 5896  16.983   5.478   9.628  0.0236  0.0841  0.1077
  373POPI   C3B 5897  17.084   5.367   9.136  0.1495 -0.4430 -0.2678
  373POPI   C4B 5898  17.016   5.458   8.700  0.0040  0.3047 -0.0916
  374POPI    C1 5899   6.333   4.478  11.183 -0.2683  0.1914  0.0953
  374POPI    C2 5900   6.075   4.451  11.488 -0.3417 -0.3421 -0.0050
  374POPI    C3 5901   6.446   4.309  11.528 -0.0775  0.3449  0.1095
  374POPI   PO4 5902   6.238   4.322  11.011 -0.4161 -0.1116  0.1552
  374POPI   GL1 5903   6.260   4.303  10.614 -0.0806  0.1613 -0.0268
  374POPI   GL2 5904   6.273   3.903  10.567  0.1107 -0.1445  0.1778
  374POPI   C1A 5905   6.541   4.434  10.322 -0.0911 -0.0790  0.0205
  374POPI   D2A 5906   6.518   4.783  10.010 -0.0610  0.2316  0.0791
  374POPI   C3A 5907   6.529   4.721   9.584 -0.0344 -0.0117 -0.0126
  374POPI   C4A 5908   6.840   4.874   9.349  0.1825 -0.0928 -0.0479
  374POPI   C1B 5909   6.394   4.039  10.100 -0.1803  0.0096 -0.1365
  374POPI   C2B 5910   6.392   4.288   9.700  0.2863  0.2047 -0.2002
  374POPI   C3B 5911   6.005   4.516   9.480 -0.1573 -0.0041  0.4153
  374POPI   C4B 5912   5.963   4.646   9.168  0.1567  0.1170  0.0182
  375POPI    C1 5913  16.676  12.609  10.687 -0.2061 -0.1519  0.0438
  375POPI    C2 5914  16.487  12.460  10.368 -0.2909 -0.2768  0.1513
  375POPI    C3 5915  16.277  12.613  10.671 -0.2074 -0.0531  0.0982
  375POPI   PO4 5916  16.931  12.495  10.552  0.0429 -0.0953 -0.0118
  375POPI   GL1 5917  17.032  12.684  10.129  0.1828  0.0212  0.1258
  375POPI   GL2 5918  17.093  13.032  10.012  0.0410 -0.1292 -0.3402
  375POPI   C1A 5919  16.995  12.669   9.716  0.0374  0.1502 -0.1002
  375POPI   D2A 5920  17.038  12.781   9.368 -0.0239 -0.0959  0.3182
  375POPI   C3A 5921  16.763  12.832   8.893  0.0542  0.3219 -0.1269
  375POPI   C4A 5922  16.721  12.717   8.496  0.2852 -0.0454 -0.1502
  375POPI   C1B 5923  17.050  13.175   9.633 -0.1648 -0.2366  0.0616
  375POPI   C2B 5924  16.898  13.253   9.243  0.3935 -0.1590  0.0604
  375POPI   C3B 5925  16.953  13.462   9.016 -0.2412  0.3054  0.1851
  375POPI   C4B 5926  16.702  13.631   8.737 -0.0608  0.0764 -0.1773
  376POPI    C1 5927  17.358  15.219  11.030 -0.1408  0.0898 -0.3131
  376POPI    C2 5928  17.707  15.216  10.835  0.1483  0.0571  0.1870
  376POPI    C3 5929  17.518  14.872  10.913 -0.0433  0.0804 -0.1553
  376POPI   PO4 5930  17.281  15.494  10.842 -0.1277  0.0455  0.0269
  376POPI   GL1 5931  17.360  15.614  10.435  0.0590  0.1561 -0.0870
  376POPI   GL2 5932  17.569  15.690  10.445  0.1548 -0.0989  0.1634
  376POPI   C1A 5933  17.203  15.699  10.051 -0.4435  0.0336  0.0858
  376POPI   D2A 5934  17.053  15.754   9.642  0.0811 -0.0396 -0.2565
  376POPI   C3A 5935  17.064  16.088   9.389  0.2662 -0.0257  0.1007
  376POPI   C4A 5936  17.417  16.158   9.091 -0.1144 -0.3017 -0.1015
  376POPI   C1B 5937  17.763  15.570  10.110  0.3909 -0.0501 -0.0966
  376POPI   C2B 5938  17.928  15.670   9.695 -0.0350  0.2495  0.1469
  376POPI   C3B 5939  18.036  15.788   9.286  0.2283 -0.1116 -0.0201
  376POPI   C4B 5940  17.876  15.970   8.866  0.0450 -0.0710  0.0194
  377POPI    C1 5941   9.403  16.341  10.918  0.1690 -0.3186 -0.1594
  377POPI    C2 5942   9.478  16.308  11.310 -0.0139 -0.2556 -0.1181
  377POPI    C3 5943   9.110  16.404  11.184  0.1012 -0.0382 -0.2965
  377POPI   PO4 5944   9.461  16.119  10.772  0.1647 -0.2391 -0.0895
  377POPI   GL1 5945   9.346  16.077  10.377  0.1606  0.1512 -0.1362
  377POPI   GL2 5946   9.180  15.855  10.165  0.0141 -0.0213 -0.1721
  377POPI   C1A 5947   9.630  16.140  10.123 -0.0742 -0.3149  0.1631
  377POPI   D2A 5948   9.683  16.384   9.750  0.1934  0.0860 -0.0487
  377POPI   C3A 5949   9.596  16.241   9.380 -0.2814  0.0889  0.1388
  377POPI   C4A 5950   9.209  16.139   9.138 -0.0049  0.0610 -0.0093
  377POPI   C1B 5951   8.843  15.873   9.925 -0.2048 -0.1655  0.1607
  377POPI   C2B 5952   8.822  15.918   9.468  0.0033 -0.1619 -0.0657
  377POPI   C3B 5953   8.940  15.714   8.990  0.2333  0.1308  0.0108
  377POPI   C4B 5954   9.151  15.793   8.584  0.2534  0.0856  0.1961
  378POPI    C1 5955   6.267  15.331  10.638  0.0611 -0.1059 -0.0087
  378POPI    C2 5956   6.369  15.541  10.962 -0.2519 -0.0866  0.0807
  378POPI    C3 5957   6.585  15.573  10.627 -0.1710  0.2147  0.1584
  378POPI   PO4 5958   6.052  15.421  10.598  0.1340  0.1484  0.0966
  378POPI   GL1 5959   5.805  15.579  10.294 -0.1423  0.0333  0.0385
  378POPI   GL2 5960   5.564  15.651  10.397  0.2144 -0.5682  0.2236
  378POPI   C1A 5961   5.898  15.628   9.836 -0.1084  0.1297 -0.0784
  378POPI   D2A 5962   6.160  15.588   9.483 -0.0124 -0.2205  0.0650
  378POPI   C3A 5963   6.270  15.686   9.090 -0.2078 -0.0367 -0.0923
  378POPI   C4A 5964   6.238  15.483   8.639  0.1315 -0.2185 -0.2670
  378POPI   C1B 5965   5.398  15.770  10.000 -0.3562  0.4164 -0.0233
  378POPI   C2B 5966   5.457  15.808   9.582  0.1513  0.3059 -0.1421
  378POPI   C3B 5967   5.418  15.861   9.127 -0.0001  0.4132 -0.0122
  378POPI   C4B 5968   5.376  15.940   8.760  0.1111 -0.0015  0.1512
  379POPI    C1 5969   7.560   1.327  11.254  0.0007  0.0079 -0.1328
  379POPI    C2 5970   7.826   1.095  11.067 -0.1299 -0.1701 -0.0999
  379POPI    C3 5971   7.819   1.110  11.466 -0.2484 -0.2616 -0.0980
  379POPI   PO4 5972   7.314   1.307  10.963 -0.0543  0.1177  0.1461
  379POPI   GL1 5973   7.258   1.208  10.597  0.1088 -0.2188 -0.2042
  379POPI   GL2 5974   7.078   0.965  10.524 -0.4429  0.0428  0.0507
  379POPI   C1A 5975   7.068   1.515  10.399 -0.2304 -0.3665  0.1119
  379POPI   D2A 5976   6.816   1.746  10.150 -0.2056 -0.2352 -0.0714
  379POPI   C3A 5977   6.903   2.077   9.928  0.2437 -0.0847  0.3294
  379POPI   C4A 5978   6.941   2.226   9.494  0.0352 -0.2337 -0.0357
  379POPI   C1B 5979   7.027   1.056  10.069  0.0185 -0.0773 -0.0048
  379POPI   C2B 5980   6.930   1.378   9.775 -0.1725  0.1128 -0.5649
  379POPI   C3B 5981   6.923   1.432   9.365 -0.2727  0.2149  0.0674
  379POPI   C4B 5982   6.940   1.519   8.908 -0.0246 -0.0278  0.1976
  380POPI    C1 5983   5.710   4.571  10.667 -0.0101 -0.0124 -0.1059
  380POPI    C2 5984   5.923   4.759  10.949 -0.0468 -0.0321 -0.0649
  380POPI    C3 5985   5.747   4.410  11.032 -0.0587 -0.0373 -0.1120
  380POPI   PO4 5986   5.604   4.812  10.570  0.0048  0.2679 -0.0212
  380POPI   GL1 5987   5.285   4.774  10.347  0.2321  0.0409 -0.2965
  380POPI   GL2 5988   4.947   4.732  10.320 -0.3694  0.0906  0.1007
  380POPI   C1A 5989   5.227   4.931   9.930  0.1063 -0.1184 -0.2720
  380POPI   D2A 5990   5.134   4.962   9.491  0.0252 -0.2829 -0.0887
  380POPI   C3A 5991   4.811   5.263   9.418 -0.0214  0.0432  0.2103
  380POPI   C4A 5992   4.627   5.318   9.084  0.3293 -0.1252  0.1055
  380POPI   C1B 5993   4.755   4.758   9.952 -0.0379  0.0422  0.2796
  380POPI   C2B 5994   4.646   4.785   9.498  0.1724  0.1055  0.0954
  380POPI   C3B 5995   4.613   4.549   9.091 -0.1268  0.1808  0.1278
  380POPI   C4B 5996   4.680   4.387   8.640 -0.1455 -0.2110  0.0430
  381POPI    C1 5997  16.456  13.110  10.898  0.0113  0.1880  0.0349
  381POPI    C2 5998  16.113  13.025  11.085 -0.0412  0.2256 -0.0437
  381POPI    C3 5999  16.432  12.790  11.136 -0.1251  0.0993 -0.0962
  381POPI   PO4 6000  16.378  13.083  10.591  0.2865  0.0670 -0.2843
  381POPI   GL1 6001  16.547  13.391  10.201  0.2222 -0.1117 -0.1703
  381POPI   GL2 6002  16.772  13.392   9.954  0.0055 -0.2223 -0.2522
  381POPI   C1A 6003  16.214  13.338   9.880  0.0703  0.0682  0.0381
  381POPI   D2A 6004  16.102  13.427   9.414 -0.2919 -0.1934 -0.1263
  381POPI   C3A 6005  15.957  13.779   9.171  0.0659 -0.1466  0.1131
  381POPI   C4A 6006  16.004  14.252   9.141 -0.1745  0.1536 -0.0381
  381POPI   C1B 6007  16.587  13.465   9.550 -0.0589 -0.1133  0.0716
  381POPI   C2B 6008  16.555  13.666   9.176 -0.0961 -0.3390  0.0700
  381POPI   C3B 6009  16.336  13.966   8.904  0.0805  0.0582 -0.0996
  381POPI   C4B 6010  16.016  14.187   8.654 -0.2857 -0.1393  0.0931
  382POPI    C1 6011   3.495  11.519  10.734  0.1873 -0.1844  0.2059
  382POPI    C2 6012   3.881  11.488  10.833  0.1478 -0.2464  0.3436
  382POPI    C3 6013   3.655  11.773  10.998  0.2528  0.1139 -0.1144
  382POPI   PO4 6014   3.499  11.409  10.496  0.2127 -0.1566  0.0248
  382POPI   GL1 6015   3.309  11.386  10.151  0.1866  0.1350  0.1358
  382POPI   GL2 6016   3.146  11.082  10.066  0.0205 -0.1237  0.0061
  382POPI   C1A 6017   3.289  11.560   9.734 -0.0572  0.1561  0.0687
  382POPI   D2A 6018   3.081  11.619   9.347  0.3313  0.0401  0.2339
  382POPI   C3A 6019   2.865  11.606   8.952  0.1025  0.2377 -0.1248
  382POPI   C4A 6020   2.969  11.335   8.551 -0.0703  0.1703  0.0305
  382POPI   C1B 6021   2.981  11.103   9.700  0.0172 -0.0040  0.1781
  382POPI   C2B 6022   2.837  11.072   9.308  0.1707 -0.0924  0.1122
  382POPI   C3B 6023   2.710  11.169   8.913  0.2699 -0.0540  0.0465
  382POPI   C4B 6024   2.462  11.453   8.617  0.1691 -0.0758  0.1112
  383POPI    C1 6025   9.050   3.606  10.802  0.0207  0.1267 -0.0601
  383POPI    C2 6026   9.215   3.663  11.162  0.2504  0.0382 -0.1495
  383POPI    C3 6027   8.818   3.675  11.120  0.2267  0.1419  0.0892
  383POPI   PO4 6028   9.207   3.424  10.733 -0.2140  0.0440  0.3143
  383POPI   GL1 6029   9.319   3.280  10.281 -0.0819 -0.0241 -0.0745
  383POPI   GL2 6030   9.575   3.048  10.168 -0.1083 -0.3282  0.1249
  383POPI   C1A 6031   9.086   3.588   9.952 -0.1904 -0.1396  0.1665
  383POPI   D2A 6032   8.982   3.452   9.536  0.5031 -0.0581  0.2506
  383POPI   C3A 6033   8.907   3.377   9.126  0.2223  0.0189  0.0729
  383POPI   C4A 6034   9.071   3.210   8.766  0.0860 -0.2143  0.1790
  383POPI   C1B 6035   9.754   2.996   9.752 -0.3145  0.1852 -0.2652
  383POPI   C2B 6036   9.645   3.015   9.270 -0.2345 -0.2908  0.0378
  383POPI   C3B 6037   9.622   2.932   8.867  0.2792  0.3027  0.1425
  383POPI   C4B 6038   9.607   3.125   8.567 -0.1715  0.1526 -0.0280
  384POPI    C1 6039   3.752   3.538  10.658  0.1195  0.0469  0.2821
  384POPI    C2 6040   4.113   3.497  10.491 -0.0347 -0.0915 -0.0262
  384POPI    C3 6041   4.006   3.846  10.654  0.3060 -0.1055  0.2379
  384POPI   PO4 6042   3.622   3.477  10.475 -0.1336  0.1958  0.1683
  384POPI   GL1 6043   3.285   3.343  10.437 -0.2093 -0.0903  0.0354
  384POPI   GL2 6044   2.969   3.377  10.530  0.3036  0.2168 -0.0656
  384POPI   C1A 6045   3.322   3.492   9.952  0.2285  0.0006 -0.0553
  384POPI   D2A 6046   3.697   3.414   9.722 -0.2916 -0.2069 -0.1309
  384POPI   C3A 6047   3.790   3.384   9.262 -0.1103  0.0435  0.1673
  384POPI   C4A 6048   3.718   3.218   8.938  0.0119 -0.2280 -0.0911
  384POPI   C1B 6049   2.873   3.385  10.098  0.0342  0.0363 -0.1238
  384POPI   C2B 6050   2.729   3.383   9.707  0.0026 -0.0322 -0.0626
  384POPI   C3B 6051   2.767   3.292   9.277 -0.1088 -0.2542  0.1290
  384POPI   C4B 6052   2.817   3.079   8.914 -0.0143  0.0138  0.0480
  385POPI    C1 6053  12.747   5.974  10.759 -0.0208 -0.2128 -0.1136
  385POPI    C2 6054  12.438   5.883  10.522 -0.0576 -0.1669 -0.0836
  385POPI    C3 6055  12.540   5.638  10.821 -0.1394 -0.1232 -0.0199
  385POPI   PO4 6056  12.896   6.148  10.537 -0.0445 -0.1854 -0.1078
  385POPI   GL1 6057  12.792   6.130  10.123 -0.1163  0.0373  0.0174
  385POPI   GL2 6058  12.984   6.332  10.026  0.1324 -0.2120 -0.0676
  385POPI   C1A 6059  12.957   5.847   9.768  0.0326  0.2943  0.0725
  385POPI   D2A 6060  12.733   5.730   9.396  0.1417 -0.2886 -0.1623
  385POPI   C3A 6061  12.508   5.976   9.001 -0.2262 -0.2156  0.4937
  385POPI   C4A 6062  12.402   6.040   8.553 -0.1866  0.2169 -0.1664
  385POPI   C1B 6063  13.122   6.299   9.641  0.1163 -0.1622  0.0858
  385POPI   C2B 6064  13.175   6.003   9.307  0.0935  0.1111  0.0349
  385POPI   C3B 6065  12.956   5.801   8.925 -0.0232 -0.1472 -0.2058
  385POPI   C4B 6066  12.897   5.820   8.531 -0.1863 -0.1304  0.0925
  386POPI    C1 6067   6.022  11.169  10.628  0.0238  0.1665 -0.1244
  386POPI    C2 6068   5.951  10.930  10.941 -0.1551 -0.1499 -0.4000
  386POPI    C3 6069   6.135  10.785  10.617 -0.2121  0.1035 -0.5480
  386POPI   PO4 6070   5.712  11.230  10.574 -0.0876 -0.1967 -0.0183
  386POPI   GL1 6071   5.596  11.183  10.172 -0.0638  0.1968 -0.0170
  386POPI   GL2 6072   5.782  11.446  10.101 -0.0262 -0.0851 -0.2017
  386POPI   C1A 6073   6.070  11.071   9.998 -0.0138  0.1245 -0.0842
  386POPI   D2A 6074   6.370  11.275   9.723  0.3368  0.2488 -0.1793
  386POPI   C3A 6075   6.381  11.190   9.280  0.3571  0.2010  0.1292
  386POPI   C4A 6076   6.315  11.314   8.952  0.2805 -0.1236  0.0862
  386POPI   C1B 6077   5.952  11.518   9.766  0.1721 -0.2308 -0.0435
  386POPI   C2B 6078   6.074  11.557   9.389  0.0219  0.0224 -0.1293
  386POPI   C3B 6079   5.824  11.454   9.160 -0.2503  0.1371 -0.0036
  386POPI   C4B 6080   5.555  11.084   9.131  0.0639  0.0926  0.1670
  387POPI    C1 6081  11.618   3.952  10.895 -0.3307  0.1356 -0.0393
  387POPI    C2 6082  11.552   3.564  10.967  0.1134  0.0852  0.1330
  387POPI    C3 6083  11.495   3.834  11.257 -0.2165  0.1562  0.0067
  387POPI   PO4 6084  11.471   3.969  10.670 -0.0604  0.1171 -0.1092
  387POPI   GL1 6085  11.094   3.730  10.382 -0.1001 -0.2679 -0.3672
  387POPI   GL2 6086  11.248   4.015  10.222 -0.3092 -0.0213 -0.0217
  387POPI   C1A 6087  11.036   3.670   9.931 -0.0372 -0.2938 -0.0098
  387POPI   D2A 6088  10.963   3.694   9.522  0.1779 -0.0612 -0.0783
  387POPI   C3A 6089  10.771   3.843   9.159  0.0617  0.2042  0.1239
  387POPI   C4A 6090  10.720   3.983   8.728 -0.1959 -0.0268 -0.0850
  387POPI   C1B 6091  11.242   4.104   9.759  0.4258 -0.1509 -0.3698
  387POPI   C2B 6092  11.079   4.172   9.392  0.0716 -0.0329  0.0505
  387POPI   C3B 6093  11.182   4.164   9.031 -0.3594  0.0941  0.2780
  387POPI   C4B 6094  11.129   4.060   8.559 -0.2309  0.0214 -0.3795
  388POPI    C1 6095  15.657  12.518  10.833  0.2488  0.1113  0.1106
  388POPI    C2 6096  15.990  12.536  11.055  0.2033  0.1722  0.1743
  388POPI    C3 6097  15.671  12.756  11.155  0.0140 -0.1646  0.3303
  388POPI   PO4 6098  15.698  12.505  10.647 -0.0601 -0.0567  0.2539
  388POPI   GL1 6099  15.679  12.641  10.283 -0.0208  0.4069  0.2395
  388POPI   GL2 6100  16.054  12.792  10.144  0.0680  0.1516  0.0871
  388POPI   C1A 6101  15.655  12.491   9.898  0.1802 -0.1076 -0.1749
  388POPI   D2A 6102  15.635  12.635   9.468 -0.0548 -0.1526  0.1308
  388POPI   C3A 6103  15.740  12.607   9.065 -0.1842  0.1524 -0.1457
  388POPI   C4A 6104  15.660  12.507   8.646 -0.0178  0.1454  0.1450
  388POPI   C1B 6105  15.895  12.938   9.832  0.0510  0.3399  0.0964
  388POPI   C2B 6106  15.776  13.057   9.528  0.0157 -0.1585 -0.3713
  388POPI   C3B 6107  15.854  13.082   9.102  0.0290  0.1179 -0.0320
  388POPI   C4B 6108  15.832  13.014   8.662 -0.0111 -0.1274 -0.1181
  389POPI    C1 6109   7.360   9.208  10.605 -0.3507 -0.0727  0.1139
  389POPI    C2 6110   7.543   8.884  10.458 -0.2736 -0.0063  0.0631
  389POPI    C3 6111   7.564   8.966  10.849 -0.3432 -0.0947  0.0856
  389POPI   PO4 6112   7.419   9.429  10.468  0.0702  0.1862  0.1886
  389POPI   GL1 6113   7.559   9.850  10.263 -0.0804 -0.2019  0.2896
  389POPI   GL2 6114   7.213   9.812  10.147  0.0734  0.1396  0.0031
  389POPI   C1A 6115   7.500   9.753   9.753 -0.0946  0.0041 -0.0440
  389POPI   D2A 6116   7.303   9.647   9.303  0.0810  0.0382  0.1237
  389POPI   C3A 6117   7.331   9.641   8.894  0.0669  0.0799 -0.2004
  389POPI   C4A 6118   7.307   9.583   8.409  0.0715 -0.0620  0.1716
  389POPI   C1B 6119   7.083   9.535   9.896 -0.0168 -0.1187 -0.0382
  389POPI   C2B 6120   7.069   9.251   9.588  0.3267 -0.3124 -0.4061
  389POPI   C3B 6121   7.013   9.254   9.158 -0.2489 -0.1197  0.1969
  389POPI   C4B 6122   6.935   9.377   8.708  0.0560 -0.2245 -0.0315
  390POPI    C1 6123   8.332   1.707  10.934 -0.1341 -0.2138 -0.1370
  390POPI    C2 6124   7.972   1.534  10.907 -0.2245 -0.0735  0.1353
  390POPI    C3 6125   8.069   1.746  11.232  0.1626 -0.2380  0.1330
  390POPI   PO4 6126   8.496   1.538  10.804  0.1490 -0.0776  0.1915
  390POPI   GL1 6127   8.688   1.791  10.390 -0.0312  0.0871 -0.3441
  390POPI   GL2 6128   8.593   1.726  10.100  0.3668  0.2059 -0.2212
  390POPI   C1A 6129   8.859   2.267  10.344  0.0921 -0.0263  0.0933
  390POPI   D2A 6130   8.767   2.630  10.156  0.3057 -0.2689  0.0621
  390POPI   C3A 6131   8.882   2.982   9.998  0.2110 -0.0624  0.1710
  390POPI   C4A 6132   9.288   3.098   9.755 -0.0455 -0.2507  0.0208
  390POPI   C1B 6133   8.603   1.676   9.618  0.1261  0.0705  0.1646
  390POPI   C2B 6134   8.886   1.829   9.360 -0.3127 -0.0595 -0.0905
  390POPI   C3B 6135   9.218   1.899   8.978 -0.2114  0.0569 -0.1624
  390POPI   C4B 6136   9.605   2.240   8.874  0.1321 -0.0974 -0.3857
  391POPI    C1 6137  14.718  14.709  10.766  0.1680  0.1488 -0.0694
  391POPI    C2 6138  15.114  14.706  10.714  0.1470 -0.3586 -0.2596
  391POPI    C3 6139  14.959  14.636  11.076  0.2266 -0.2355 -0.2006
  391POPI   PO4 6140  14.660  14.909  10.619  0.2457 -0.1785 -0.2303
  391POPI   GL1 6141  14.564  14.987  10.170  0.0141 -0.1045  0.0490
  391POPI   GL2 6142  14.586  15.304  10.281 -0.0702 -0.1085  0.2262
  391POPI   C1A 6143  14.250  15.088   9.902 -0.2112 -0.0384  0.1931
  391POPI   D2A 6144  14.075  15.174   9.500  0.3603  0.2926 -0.0016
  391POPI   C3A 6145  14.003  15.260   9.249 -0.3202 -0.1826  0.0621
  391POPI   C4A 6146  14.061  15.248   8.795 -0.1574  0.0044 -0.2148
  391POPI   C1B 6147  14.691  15.352   9.853  0.3113 -0.0898  0.2043
  391POPI   C2B 6148  14.571  15.216   9.467  0.2339  0.0080 -0.0720
  391POPI   C3B 6149  14.449  15.129   9.131  0.0713 -0.1957 -0.1479
  391POPI   C4B 6150  14.511  15.024   8.603 -0.0962 -0.2084 -0.1565
  392POPI    C1 6151  13.361  12.439  10.976 -0.1914 -0.1387  0.0873
  392POPI    C2 6152  13.569  12.220  11.238  0.0797 -0.0852 -0.0795
  392POPI    C3 6153  13.552  12.617  11.279  0.0873 -0.0807 -0.1185
  392POPI   PO4 6154  13.351  12.365  10.726 -0.3469 -0.1101  0.0066
  392POPI   GL1 6155  13.157  12.503  10.411 -0.2895 -0.1424  0.0909
  392POPI   GL2 6156  12.920  12.294  10.295 -0.1389 -0.1541 -0.0337
  392POPI   C1A 6157  13.051  12.836  10.286  0.1945 -0.0081 -0.0219
  392POPI   D2A 6158  12.935  12.922   9.926 -0.4458 -0.0556 -0.0909
  392POPI   C3A 6159  12.949  13.009   9.574  0.0871  0.0350  0.0713
  392POPI   C4A 6160  12.838  13.064   9.211  0.0764  0.0650  0.2686
  392POPI   C1B 6161  13.127  12.405   9.925  0.0809  0.0121 -0.1318
  392POPI   C2B 6162  13.205  12.437   9.500  0.1477  0.1008 -0.1378
  392POPI   C3B 6163  13.013  12.553   9.236 -0.1126  0.1586 -0.2361
  392POPI   C4B 6164  12.819  12.748   8.871 -0.0322  0.0447  0.1953
  393POPI    C1 6165   2.761  16.014  10.774 -0.0698  0.0140 -0.0659
  393POPI    C2 6166   2.718  15.626  10.859  0.1032 -0.0036 -0.0544
  393POPI    C3 6167   2.925  15.863  11.106  0.1363  0.0618 -0.1440
  393POPI   PO4 6168   2.877  16.023  10.513  0.0527  0.1279  0.0722
  393POPI   GL1 6169   2.939  16.158  10.072 -0.3268 -0.0534  0.1362
  393POPI   GL2 6170   2.911  16.554  10.091  0.3018 -0.0661  0.1100
  393POPI   C1A 6171   2.941  15.906   9.658 -0.1003 -0.5517 -0.0463
  393POPI   D2A 6172   3.021  15.786   9.237 -0.0653  0.1508 -0.1011
  393POPI   C3A 6173   3.205  16.044   8.874  0.0006  0.0477  0.0345
  393POPI   C4A 6174   3.372  15.959   8.560  0.0877 -0.1316  0.2114
  393POPI   C1B 6175   2.983  16.487   9.691 -0.2906  0.3119 -0.0478
  393POPI   C2B 6176   3.057  16.293   9.321 -0.0542  0.4652  0.0240
  393POPI   C3B 6177   3.148  16.525   8.894 -0.2203 -0.0872 -0.4921
  393POPI   C4B 6178   3.339  16.742   8.581 -0.3879 -0.2480  0.1060
  394POPI    C1 6179   8.491   4.028  11.099  0.1417  0.1873 -0.3248
  394POPI    C2 6180   8.105   4.014  11.204  0.2472  0.2577  0.0931
  394POPI    C3 6181   8.297   3.678  11.104  0.1359  0.1910  0.1015
  394POPI   PO4 6182   8.507   4.364  10.994 -0.1035  0.4987  0.1384
  394POPI   GL1 6183   8.461   4.520  10.563  0.2670  0.6078  0.0312
  394POPI   GL2 6184   8.181   4.542  10.575 -0.3886 -0.1541 -0.1402
  394POPI   C1A 6185   8.439   4.663  10.134 -0.0936  0.1127 -0.0175
  394POPI   D2A 6186   8.598   4.699   9.711 -0.2029 -0.1979  0.2070
  394POPI   C3A 6187   8.581   4.747   9.306  0.0678  0.0740  0.0998
  394POPI   C4A 6188   8.469   4.803   8.881 -0.1857  0.0806 -0.3476
  394POPI   C1B 6189   7.947   4.517  10.187  0.0114 -0.4120 -0.0521
  394POPI   C2B 6190   7.779   4.435   9.755  0.3265  0.2433 -0.0207
  394POPI   C3B 6191   7.719   4.431   9.397  0.1135 -0.2383  0.1938
  394POPI   C4B 6192   7.669   4.087   8.993 -0.2141  0.1001  0.1480
  395POPI    C1 6193   2.551  16.523  10.897 -0.0345 -0.1690 -0.1137
  395POPI    C2 6194   2.570  16.209  11.145  0.2056  0.1148  0.2372
  395POPI    C3 6195   2.336  16.521  11.234  0.2411  0.1897  0.0712
  395POPI   PO4 6196   2.468  16.470  10.686 -0.0730 -0.1892 -0.0779
  395POPI   GL1 6197   2.506  16.344  10.288  0.0529  0.0612  0.3172
  395POPI   GL2 6198   2.447  16.030  10.185 -0.1660  0.4541 -0.1119
  395POPI   C1A 6199   2.384  16.666  10.053 -0.4092  0.2477 -0.0420
  395POPI   D2A 6200   2.502  16.797   9.588 -0.0642  0.2847  0.2116
  395POPI   C3A 6201   2.753  16.721   9.223 -0.4853  0.3371 -0.1020
  395POPI   C4A 6202   2.818  16.844   8.812 -0.1065  0.2933  0.2065
  395POPI   C1B 6203   2.567  16.247   9.743  0.4273 -0.0098  0.1486
  395POPI   C2B 6204   2.590  16.173   9.314 -0.0212  0.1614  0.0286
  395POPI   C3B 6205   2.757  16.278   8.947  0.0472  0.0499  0.2076
  395POPI   C4B 6206   2.847  16.269   8.478  0.0361 -0.1552  0.1238
  396POPI    C1 6207   0.853   0.892  10.977 -0.0733  0.1407  0.0088
  396POPI    C2 6208   0.707   1.127  11.266 -0.0883  0.0235  0.0974
  396POPI    C3 6209   1.050   0.930  11.323  0.0365  0.1923 -0.0588
  396POPI   PO4 6210   0.938   1.075  10.721  0.2505 -0.0973 -0.1796
  396POPI   GL1 6211   1.119   0.924  10.335 -0.0188 -0.1785  0.0358
  396POPI   GL2 6212   1.205   1.261  10.247  0.1059 -0.1401  0.2008
  396POPI   C1A 6213   0.900   0.826  10.047 -0.0463 -0.0553 -0.1834
  396POPI   D2A 6214   0.838   0.661   9.633  0.3217 -0.1810  0.0218
  396POPI   C3A 6215   0.562   0.807   9.242 -0.0704 -0.0364 -0.0440
  396POPI   C4A 6216   0.631   0.863   8.922  0.0059  0.2837 -0.1847
  396POPI   C1B 6217   1.222   1.201   9.725 -0.2047  0.2325 -0.2462
  396POPI   C2B 6218   1.123   0.960   9.392  0.1840  0.0355 -0.1849
  396POPI   C3B 6219   1.151   0.899   9.082 -0.0701 -0.2090  0.2548
  396POPI   C4B 6220   1.100   0.699   8.736  0.0728  0.0039  0.3757
  397POPI    C1 6221  14.684   8.639  10.879  0.3835  0.0824 -0.1234
  397POPI    C2 6222  14.858   8.972  11.018  0.1042  0.1691  0.0249
  397POPI    C3 6223  14.862   8.637  11.238 -0.0012  0.1989  0.0733
  397POPI   PO4 6224  14.738   8.607  10.647  0.0282  0.1402 -0.0928
  397POPI   GL1 6225  14.755   8.505  10.176  0.1362  0.2222 -0.0180
  397POPI   GL2 6226  14.815   8.264   9.883 -0.1073  0.0719  0.3358
  397POPI   C1A 6227  14.643   8.730   9.753  0.0286 -0.1078  0.1747
  397POPI   D2A 6228  14.447   8.800   9.396  0.1045 -0.0420 -0.2368
  397POPI   C3A 6229  14.393   9.160   9.091 -0.1051  0.0912  0.0953
  397POPI   C4A 6230  14.478   9.245   8.642  0.3281  0.1476 -0.1122
  397POPI   C1B 6231  14.699   8.320   9.348  0.1439  0.0158 -0.1486
  397POPI   C2B 6232  14.884   8.149   8.972 -0.2918 -0.1872  0.0466
  397POPI   C3B 6233  15.059   7.921   8.680  0.2333 -0.1999 -0.1375
  397POPI   C4B 6234  14.928   7.714   8.302  0.0930  0.2910  0.2752
  398POPI    C1 6235   6.509   2.279  11.530  0.0874  0.1562  0.1545
  398POPI    C2 6236   6.238   2.406  11.796 -0.0744 -0.1511  0.1411
  398POPI    C3 6237   6.576   2.232  11.922  0.1039  0.1972  0.1567
  398POPI   PO4 6238   6.444   2.154  11.307 -0.1771  0.1013 -0.2169
  398POPI   GL1 6239   6.664   2.139  10.948  0.1389 -0.2246  0.1101
  398POPI   GL2 6240   6.598   1.924  10.658 -0.2059 -0.1706  0.0762
  398POPI   C1A 6241   6.422   2.437  10.624  0.0004  0.0043  0.0574
  398POPI   D2A 6242   6.445   2.795  10.395  0.2025  0.0840 -0.0268
  398POPI   C3A 6243   6.275   2.652  10.004  0.1764  0.0584  0.2657
  398POPI   C4A 6244   6.048   2.628   9.584  0.1419 -0.2577 -0.1880
  398POPI   C1B 6245   6.481   2.151  10.245  0.1377 -0.0295 -0.1219
  398POPI   C2B 6246   6.453   2.240   9.743 -0.0840 -0.0102 -0.0854
  398POPI   C3B 6247   6.423   2.330   9.267 -0.0050 -0.1448 -0.1747
  398POPI   C4B 6248   6.059   2.451   9.144  0.3290  0.1945  0.2462
  399POPI    C1 6249  12.964  12.993  10.950  0.0187  0.0430 -0.1491
  399POPI    C2 6250  13.304  13.102  11.131  0.0529  0.0679 -0.2281
  399POPI    C3 6251  13.316  12.884  10.795 -0.0096  0.0476 -0.2173
  399POPI   PO4 6252  12.846  13.204  10.942  0.2944  0.0084  0.2197
  399POPI   GL1 6253  12.623  13.241  10.612 -0.0038 -0.1445  0.1542
  399POPI   GL2 6254  12.569  13.527  10.614 -0.0458  0.1435  0.1428
  399POPI   C1A 6255  12.703  13.292  10.164 -0.1175  0.1266 -0.0216
  399POPI   D2A 6256  12.611  13.324   9.839 -0.0115  0.2017  0.0592
  399POPI   C3A 6257  12.738  13.504   9.565 -0.0510  0.1838  0.0632
  399POPI   C4A 6258  12.713  13.568   9.076 -0.0104  0.2303 -0.1079
  399POPI   C1B 6259  12.671  13.880  10.366  0.1253 -0.0768 -0.0118
  399POPI   C2B 6260  12.519  13.884   9.964 -0.2235 -0.0558 -0.0697
  399POPI   C3B 6261  12.568  14.039   9.484 -0.2301  0.0566 -0.0832
  399POPI   C4B 6262  12.633  14.063   9.065 -0.0624  0.0748  0.2016
  400POPI    C1 6263   8.292  12.350  11.023 -0.0740 -0.0016 -0.1735
  400POPI    C2 6264   8.684  12.277  10.997 -0.0495  0.1417 -0.2176
  400POPI    C3 6265   8.441  12.007  11.164  0.0920  0.1249 -0.0359
  400POPI   PO4 6266   8.196  12.368  10.830  0.2347 -0.0215 -0.0315
  400POPI   GL1 6267   8.438  12.402  10.536 -0.0666  0.1922 -0.3927
  400POPI   GL2 6268   8.688  12.615  10.636 -0.1782  0.1161 -0.1215
  400POPI   C1A 6269   8.542  12.453  10.131  0.0399  0.2726  0.0798
  400POPI   D2A 6270   8.478  12.528   9.753  0.0108 -0.0837 -0.3344
  400POPI   C3A 6271   8.312  12.562   9.390 -0.0146  0.3019  0.0263
  400POPI   C4A 6272   8.226  12.578   9.028  0.0401 -0.0423  0.1333
  400POPI   C1B 6273   8.905  12.736  10.274  0.0147 -0.2983 -0.0766
  400POPI   C2B 6274   8.921  12.698   9.788 -0.2847 -0.2136  0.3014
  400POPI   C3B 6275   8.921  12.723   9.453 -0.1936 -0.1196 -0.0857
  400POPI   C4B 6276   8.746  12.583   9.037  0.1843  0.0662 -0.1554
  401POPI    C1 6277  12.078   0.544  10.971 -0.2009  0.0676 -0.1281
  401POPI    C2 6278  12.112   0.180  11.133  0.2208  0.0892 -0.1550
  401POPI    C3 6279  12.039   0.497  11.366  0.0181  0.0121 -0.1115
  401POPI   PO4 6280  11.995   0.516  10.771  0.0796  0.2318  0.2316
  401POPI   GL1 6281  11.856   0.342  10.438 -0.1413 -0.3317 -0.2511
  401POPI   GL2 6282  11.689   0.152  10.318  0.1838 -0.1727  0.4647
  401POPI   C1A 6283  11.843   0.543   9.997 -0.1110 -0.2144  0.1405
  401POPI   D2A 6284  11.834   0.600   9.582 -0.0645  0.1689  0.0842
  401POPI   C3A 6285  11.688   0.560   9.220 -0.4085  0.0279  0.0804
  401POPI   C4A 6286  11.692   0.626   8.753 -0.0595  0.0041 -0.2971
  401POPI   C1B 6287  11.507   0.144  10.008  0.2555 -0.0721  0.2685
  401POPI   C2B 6288  11.467   0.154   9.594 -0.0088 -0.0486 -0.0044
  401POPI   C3B 6289  11.514   0.005   9.216 -0.3046 -0.3772  0.1706
  401POPI   C4B 6290  11.679   0.085   8.847 -0.0238  0.0642  0.1007
  402POPI    C1 6291  14.273   8.332  10.753 -0.2836  0.0938 -0.1941
  402POPI    C2 6292  14.191   8.009  10.976  0.2662  0.1108  0.0472
  402POPI    C3 6293  14.351   8.335  11.145 -0.0434  0.4208 -0.2404
  402POPI   PO4 6294  14.377   8.287  10.511 -0.1942 -0.0614 -0.2027
  402POPI   GL1 6295  14.347   8.201  10.137 -0.2623 -0.0376 -0.3287
  402POPI   GL2 6296  14.162   7.926  10.019  0.0132  0.0269 -0.0531
  402POPI   C1A 6297  14.210   8.462   9.769  0.0521 -0.0439  0.1367
  402POPI   D2A 6298  14.194   8.379   9.261  0.0746  0.2085 -0.1027
  402POPI   C3A 6299  14.417   8.615   8.927  0.0199  0.0842  0.0917
  402POPI   C4A 6300  14.334   8.727   8.507 -0.2751 -0.0991  0.1610
  402POPI   C1B 6301  13.910   8.137   9.635  0.3028 -0.1007  0.1243
  402POPI   C2B 6302  13.674   8.343   9.318 -0.1853 -0.0323 -0.0227
  402POPI   C3B 6303  13.619   8.381   8.898 -0.1439  0.1500 -0.0844
  402POPI   C4B 6304  13.578   8.163   8.545  0.2651  0.3773  0.2842
  403POPI    C1 6305   3.344  16.692  10.702 -0.1485  0.1670  0.1085
  403POPI    C2 6306   2.984  16.827  10.812 -0.1665  0.1523  0.0677
  403POPI    C3 6307   3.013  16.513  10.566 -0.1261  0.1676  0.0530
  403POPI   PO4 6308   3.452  16.916  10.577 -0.1962 -0.1356 -0.0567
  403POPI   GL1 6309   3.648  17.120  10.168  0.3178 -0.1212  0.1815
  403POPI   GL2 6310   3.707  17.318  10.286 -0.0678  0.0663 -0.3483
  403POPI   C1A 6311   4.046  17.052   9.751  0.2010  0.2361  0.0734
  403POPI   D2A 6312   4.394  16.942   9.418  0.1283 -0.2358  0.1207
  403POPI   C3A 6313   4.222  16.903   9.079 -0.1621 -0.0769 -0.0382
  403POPI   C4A 6314   3.917  16.872   8.822 -0.0804  0.0861 -0.0095
  403POPI   C1B 6315   3.566  17.705  10.132 -0.0897  0.0774  0.2779
  403POPI   C2B 6316   3.365  17.835   9.790 -0.0649  0.2143  0.0519
  403POPI   C3B 6317   3.404  17.992   9.391 -0.0213  0.0284  0.2257
  403POPI   C4B 6318   3.681  17.988   8.917  0.1638 -0.0300  0.3564
  404POPI    C1 6319   1.051  14.233  10.910 -0.1129  0.2250 -0.0977
  404POPI    C2 6320   1.390  14.440  10.954 -0.0458  0.1132 -0.0836
  404POPI    C3 6321   1.357  14.075  11.114 -0.0353 -0.0326 -0.4050
  404POPI   PO4 6322   1.016  14.174  10.617 -0.0719  0.1609 -0.2466
  404POPI   GL1 6323   1.055  14.241  10.262 -0.1790  0.2614  0.1367
  404POPI   GL2 6324   1.228  14.152  10.068  0.1861 -0.2469 -0.2093
  404POPI   C1A 6325   0.804  14.379   9.929  0.1041  0.0815  0.0611
  404POPI   D2A 6326   0.792  14.491   9.488 -0.4627  0.1175  0.0895
  404POPI   C3A 6327   0.864  14.501   9.088 -0.1670 -0.0435 -0.0453
  404POPI   C4A 6328   0.958  14.758   8.819 -0.1451 -0.1369  0.0113
  404POPI   C1B 6329   1.365  14.308   9.661 -0.1661  0.0956  0.0987
  404POPI   C2B 6330   1.360  14.373   9.188 -0.3725  0.0412 -0.0481
  404POPI   C3B 6331   1.403  14.460   8.670 -0.1726 -0.1798  0.1499
  404POPI   C4B 6332   1.588  14.523   8.315  0.3819 -0.0277 -0.1302
  405POPI    C1 6333  16.152   1.776  11.120  0.1847 -0.0438  0.2482
  405POPI    C2 6334  16.223   1.421  10.950  0.1877  0.1002 -0.0577
  405POPI    C3 6335  16.083   1.439  11.324 -0.1412 -0.2333 -0.1590
  405POPI   PO4 6336  16.067   1.921  11.019  0.2917  0.1080  0.2138
  405POPI   GL1 6337  16.125   1.935  10.612  0.6002 -0.1082  0.3137
  405POPI   GL2 6338  16.092   1.609  10.467 -0.2924 -0.2028 -0.1023
  405POPI   C1A 6339  15.769   1.942  10.352 -0.3296  0.2090  0.2049
  405POPI   D2A 6340  15.745   1.727   9.937 -0.0819 -0.0983 -0.0385
  405POPI   C3A 6341  15.465   1.408   9.651  0.1074  0.1759  0.0842
  405POPI   C4A 6342  15.552   1.200   9.206  0.0232  0.2302  0.0862
  405POPI   C1B 6343  16.193   1.575  10.018 -0.2748  0.2484  0.0691
  405POPI   C2B 6344  16.235   1.706   9.582 -0.0223 -0.1877 -0.2286
  405POPI   C3B 6345  16.221   1.886   9.187 -0.3107  0.0095  0.0288
  405POPI   C4B 6346  16.381   2.146   8.806 -0.0110 -0.1545 -0.1673
  406POPI    C1 6347   8.448  13.704  11.134  0.1250 -0.1209 -0.0145
  406POPI    C2 6348   8.728  13.825  11.393  0.0017 -0.0598  0.0910
  406POPI    C3 6349   8.342  13.906  11.463 -0.0284 -0.0024 -0.1357
  406POPI   PO4 6350   8.573  13.724  10.882  0.0901 -0.0108 -0.0183
  406POPI   GL1 6351   8.376  13.763  10.477 -0.1879 -0.3537 -0.1397
  406POPI   GL2 6352   8.341  13.508  10.429  0.0936  0.1297 -0.0739
  406POPI   C1A 6353   8.636  13.961  10.198 -0.0589  0.2209  0.1760
  406POPI   D2A 6354   8.672  14.192   9.818 -0.2637  0.1761  0.3127
  406POPI   C3A 6355   8.741  14.023   9.365  0.0153  0.2406 -0.1353
  406POPI   C4A 6356   8.767  14.021   9.000 -0.1670  0.2400 -0.0709
  406POPI   C1B 6357   8.537  13.498  10.040  0.1195  0.2907 -0.2422
  406POPI   C2B 6358   8.725  13.576   9.664  0.2971 -0.1470  0.1400
  406POPI   C3B 6359   8.596  13.602   9.224  0.2127 -0.0338 -0.0762
  406POPI   C4B 6360   8.645  13.538   8.862  0.3558  0.3461 -0.2405
  407POPI    C1 6361  15.161  12.279  10.788 -0.1193 -0.0194  0.2570
  407POPI    C2 6362  15.218  12.584  11.041 -0.1938  0.1605  0.0603
  407POPI    C3 6363  15.219  12.649  10.646  0.0061 -0.1318  0.0094
  407POPI   PO4 6364  14.908  12.135  10.776  0.4574 -0.0901 -0.2061
  407POPI   GL1 6365  14.876  12.104  10.407 -0.0414  0.0657  0.1367
  407POPI   GL2 6366  14.898  12.429  10.326  0.1544 -0.0357 -0.0016
  407POPI   C1A 6367  14.631  12.146  10.024  0.0233 -0.2541 -0.0588
  407POPI   D2A 6368  14.169  12.233   9.810 -0.2985 -0.1489 -0.0062
  407POPI   C3A 6369  14.147  12.265   9.403 -0.1199  0.0665 -0.0415
  407POPI   C4A 6370  13.752  12.340   9.173  0.3097  0.0122 -0.2030
  407POPI   C1B 6371  15.185  12.693  10.104  0.0349 -0.0658 -0.0443
  407POPI   C2B 6372  15.158  12.678   9.625  0.2450  0.2377  0.3966
  407POPI   C3B 6373  15.128  12.621   9.167 -0.1838 -0.2650  0.0273
  407POPI   C4B 6374  15.127  12.591   8.646  0.4474  0.3352 -0.0029
  408POPI    C1 6375  13.533   8.232  10.567  0.0096  0.1671 -0.1253
  408POPI    C2 6376  13.870   8.437  10.500  0.1110  0.0348 -0.0261
  408POPI    C3 6377  13.809   8.263  10.855  0.0985 -0.2406 -0.1608
  408POPI   PO4 6378  13.484   8.105  10.369  0.1278 -0.0531  0.0467
  408POPI   GL1 6379  13.454   8.002   9.965 -0.1366  0.1063 -0.1117
  408POPI   GL2 6380  13.222   7.837  10.006 -0.0768  0.2443 -0.1026
  408POPI   C1A 6381  13.312   7.944   9.513 -0.3264 -0.0360 -0.2123
  408POPI   D2A 6382  13.449   7.922   9.032  0.0634 -0.2351 -0.0171
  408POPI   C3A 6383  13.524   7.672   8.650  0.1919 -0.1007 -0.1617
  408POPI   C4A 6384  13.410   7.386   8.358  0.2741 -0.1986 -0.1996
  408POPI   C1B 6385  12.874   8.182   9.883 -0.0536  0.0109 -0.0474
  408POPI   C2B 6386  12.785   8.146   9.492 -0.2345 -0.0657 -0.0268
  408POPI   C3B 6387  12.634   8.141   9.075 -0.0303 -0.0897  0.1259
  408POPI   C4B 6388  12.706   8.043   8.654  0.0064 -0.1866 -0.0898
  409POPI    C1 6389   7.377  15.561  11.306  0.3584 -0.2052  0.2942
  409POPI    C2 6390   7.103  15.284  11.396 -0.0441  0.0026 -0.2348
  409POPI    C3 6391   7.030  15.670  11.473  0.2443  0.0298 -0.0838
  409POPI   PO4 6392   7.445  15.579  11.069 -0.2154  0.1238  0.0898
  409POPI   GL1 6393   7.524  15.623  10.593 -0.3666  0.1741 -0.2754
  409POPI   GL2 6394   7.565  15.920  10.550 -0.0388 -0.1247  0.0450
  409POPI   C1A 6395   7.461  15.549  10.138  0.2237 -0.2973 -0.0695
  409POPI   D2A 6396   7.634  15.265   9.775 -0.1322  0.0534  0.3815
  409POPI   C3A 6397   7.631  15.390   9.354 -0.3137 -0.5108  0.0437
  409POPI   C4A 6398   7.711  15.437   8.927  0.1865 -0.0893 -0.1042
  409POPI   C1B 6399   7.786  16.002  10.206 -0.0320  0.1639 -0.0004
  409POPI   C2B 6400   7.834  15.770   9.887  0.0861 -0.0381  0.0393
  409POPI   C3B 6401   7.946  15.736   9.494  0.0167 -0.2615  0.2425
  409POPI   C4B 6402   7.851  15.878   9.132  0.0038 -0.1650  0.2179
  410POPI    C1 6403   5.423   6.505  10.962 -0.0405  0.2157  0.1502
  410POPI    C2 6404   5.089   6.387  11.149 -0.1462  0.1998 -0.0465
  410POPI    C3 6405   5.346   6.631  11.334 -0.1334 -0.0015  0.2062
  410POPI   PO4 6406   5.485   6.238  10.849  0.0595  0.2786 -0.0363
  410POPI   GL1 6407   5.129   6.085  10.591 -0.0522 -0.1659 -0.0086
  410POPI   GL2 6408   5.140   5.880  10.296  0.3407 -0.0823  0.3092
  410POPI   C1A 6409   5.121   6.424  10.264 -0.1752  0.0629 -0.3636
  410POPI   D2A 6410   5.254   6.468   9.825  0.0464 -0.0101 -0.0884
  410POPI   C3A 6411   5.172   6.592   9.431 -0.0110 -0.2654 -0.1946
  410POPI   C4A 6412   5.340   6.462   9.068  0.1697  0.3713  0.0139
  410POPI   C1B 6413   5.251   5.955   9.839 -0.2119 -0.0790  0.0611
  410POPI   C2B 6414   5.271   6.056   9.414 -0.0176  0.1588 -0.0224
  410POPI   C3B 6415   5.461   5.824   9.072  0.0226 -0.1090  0.3836
  410POPI   C4B 6416   5.557   6.082   8.728  0.2396 -0.1455  0.0185
  411POPI    C1 6417  14.876  17.475  11.292  0.1076 -0.0171  0.0486
  411POPI    C2 6418  14.895  17.813  11.505 -0.1818  0.0268  0.0094
  411POPI    C3 6419  14.739  17.483  11.668 -0.0562 -0.0428 -0.0096
  411POPI   PO4 6420  14.794  17.607  11.051 -0.1814  0.0513  0.3203
  411POPI   GL1 6421  14.716  17.626  10.655  0.1550  0.1471 -0.4196
  411POPI   GL2 6422  14.536  17.515  10.431 -0.1524  0.1684  0.0420
  411POPI   C1A 6423  15.023  17.428  10.301  0.0816 -0.0010  0.1976
  411POPI   D2A 6424  15.347  17.278  10.016  0.0171  0.3721 -0.2102
  411POPI   C3A 6425  15.175  17.270   9.606 -0.0921  0.0583  0.1535
  411POPI   C4A 6426  15.189  17.126   9.196  0.0217  0.0875 -0.1989
  411POPI   C1B 6427  14.605  17.567  10.006  0.0933 -0.0014  0.1196
  411POPI   C2B 6428  14.612  17.485   9.583  0.0184 -0.1257 -0.0144
  411POPI   C3B 6429  14.486  17.392   9.106  0.0851 -0.1053  0.0111
  411POPI   C4B 6430  14.183  17.485   8.702 -0.0095  0.3017 -0.0531
  412POPI    C1 6431   6.057   2.907  11.241  0.2561  0.0200  0.1813
  412POPI    C2 6432   6.275   2.659  11.015 -0.1262 -0.1265 -0.0359
  412POPI    C3 6433   6.066   2.516  11.325 -0.1977 -0.0458 -0.0464
  412POPI   PO4 6434   5.859   3.045  10.990 -0.2685 -0.1043 -0.2073
  412POPI   GL1 6435   5.914   3.218  10.628  0.2853 -0.0772 -0.0017
  412POPI   GL2 6436   5.989   3.505  10.572 -0.1874 -0.4228 -0.3567
  412POPI   C1A 6437   6.044   3.090  10.253  0.0160 -0.3425 -0.0592
  412POPI   D2A 6438   6.124   3.067   9.761  0.0606 -0.0979 -0.1493
  412POPI   C3A 6439   5.860   3.040   9.429  0.2758 -0.3938 -0.0589
  412POPI   C4A 6440   5.984   3.279   9.111  0.0469 -0.0212 -0.2619
  412POPI   C1B 6441   5.933   3.591  10.151  0.0276 -0.0228 -0.0443
  412POPI   C2B 6442   6.278   3.489   9.878 -0.1981  0.1740 -0.1005
  412POPI   C3B 6443   6.350   3.331   9.410 -0.0604 -0.0386 -0.0088
  412POPI   C4B 6444   6.492   3.569   9.075 -0.0566  0.1135  0.1090
  413POPI    C1 6445  10.889   2.020  11.071  0.1762 -0.1800  0.1066
  413POPI    C2 6446  10.534   1.937  11.235  0.0459  0.0189 -0.0681
  413POPI    C3 6447  10.797   2.165  11.432  0.1041 -0.1807  0.0887
  413POPI   PO4 6448  10.858   1.903  10.819 -0.1277 -0.0364 -0.3124
  413POPI   GL1 6449  10.880   1.630  10.314 -0.1641  0.1012 -0.3839
  413POPI   GL2 6450  11.151   1.927  10.438 -0.1071 -0.0124 -0.3274
  413POPI   C1A 6451  11.293   1.747  10.035 -0.1088  0.5375 -0.1065
  413POPI   D2A 6452  11.367   1.813   9.612 -0.0171  0.0690 -0.3538
  413POPI   C3A 6453  11.443   1.461   9.335 -0.0470 -0.3309  0.2784
  413POPI   C4A 6454  11.531   1.402   8.913  0.0778  0.2956 -0.0809
  413POPI   C1B 6455  10.927   2.115  10.131 -0.0635  0.0127 -0.1829
  413POPI   C2B 6456  10.847   2.028   9.713  0.0195 -0.1621 -0.0443
  413POPI   C3B 6457  11.048   2.130   9.345  0.0865 -0.0467  0.0818
  413POPI   C4B 6458  11.001   2.452   9.035  0.2429 -0.0175  0.2596
  414POPI    C1 6459   7.269   2.602  11.458  0.1711  0.0325 -0.2259
  414POPI    C2 6460   6.941   2.506  11.664  0.1851 -0.0582 -0.2457
  414POPI    C3 6461   7.259   2.655  11.854  0.0989  0.1198 -0.2390
  414POPI   PO4 6462   7.352   2.366  11.227 -0.1408  0.0956  0.2652
  414POPI   GL1 6463   7.158   2.260  10.858  0.1005 -0.0622 -0.3215
  414POPI   GL2 6464   6.949   2.445  10.706  0.0297  0.1531  0.2183
  414POPI   C1A 6465   7.087   2.072  10.398 -0.2592 -0.1667 -0.5559
  414POPI   D2A 6466   7.324   1.853  10.159  0.2176 -0.2906  0.1112
  414POPI   C3A 6467   7.222   1.765   9.675 -0.0766 -0.0415  0.2143
  414POPI   C4A 6468   7.185   1.844   9.239  0.0122 -0.1481 -0.2795
  414POPI   C1B 6469   6.811   2.500  10.313  0.2301 -0.0148  0.3655
  414POPI   C2B 6470   6.839   2.641   9.946 -0.1338  0.0843  0.0858
  414POPI   C3B 6471   6.601   2.875   9.636  0.0295 -0.4307 -0.2819
  414POPI   C4B 6472   6.382   2.843   9.232 -0.4664  0.2323 -0.0561
  415POPI    C1 6473  14.618   7.742  10.859  0.2087 -0.2397  0.1601
  415POPI    C2 6474  14.728   8.126  10.863  0.1446 -0.2178 -0.0425
  415POPI    C3 6475  14.642   7.939  11.206 -0.0734  0.0211  0.0361
  415POPI   PO4 6476  14.412   7.742  10.594 -0.0261  0.0630  0.0114
  415POPI   GL1 6477  14.511   7.500  10.249  0.0108 -0.0901  0.1407
  415POPI   GL2 6478  14.256   7.426  10.241 -0.1396 -0.1570  0.1937
  415POPI   C1A 6479  14.544   7.739   9.863  0.2479  0.2223 -0.0873
  415POPI   D2A 6480  14.356   7.982   9.475 -0.1243  0.3437 -0.0223
  415POPI   C3A 6481  14.426   7.948   9.006 -0.1005  0.0924 -0.0249
  415POPI   C4A 6482  14.540   7.898   8.605 -0.0802  0.0803 -0.1572
  415POPI   C1B 6483  14.121   7.090   9.960 -0.0967  0.1967  0.1915
  415POPI   C2B 6484  14.182   6.959   9.570 -0.1870  0.1285 -0.1579
  415POPI   C3B 6485  14.085   6.955   9.161  0.3134 -0.1084 -0.2851
  415POPI   C4B 6486  14.314   7.057   8.815  0.0905  0.2184 -0.0016
  416POPI    C1 6487  17.296   8.853  11.173 -0.0512 -0.0032  0.3138
  416POPI    C2 6488  17.589   8.882  11.443  0.0530  0.2199  0.1796
  416POPI    C3 6489  17.359   9.199  11.363 -0.0047  0.1430  0.0375
  416POPI   PO4 6490  17.379   8.688  11.034  0.2735  0.1468  0.2067
  416POPI   GL1 6491  17.346   8.586  10.643  0.2265  0.1214 -0.0591
  416POPI   GL2 6492  17.279   8.854  10.481 -0.1898 -0.1898 -0.0417
  416POPI   C1A 6493  17.567   8.495  10.252 -0.1475  0.1549 -0.0041
  416POPI   D2A 6494  17.628   8.658   9.911  0.1501  0.1429 -0.2895
  416POPI   C3A 6495  17.561   8.511   9.520  0.0045  0.0664 -0.1672
  416POPI   C4A 6496  17.734   8.248   9.171 -0.1588 -0.1177 -0.1361
  416POPI   C1B 6497  17.240   9.067  10.179  0.2504  0.1429  0.4666
  416POPI   C2B 6498  17.265   9.071   9.739  0.1441  0.0489  0.0106
  416POPI   C3B 6499  17.328   8.912   9.407  0.1866 -0.3805 -0.2177
  416POPI   C4B 6500  17.713   8.824   9.184  0.1521  0.1471 -0.3788
  417POPI    C1 6501  11.446   8.141  10.735 -0.0738  0.0160 -0.0489
  417POPI    C2 6502  11.156   8.073  10.467 -0.2595  0.0318  0.1453
  417POPI    C3 6503  11.203   7.827  10.779  0.0154 -0.0394  0.0508
  417POPI   PO4 6504  11.690   8.201  10.586  0.1798  0.2455  0.2785
  417POPI   GL1 6505  11.485   8.080  10.097 -0.0288 -0.0747 -0.0018
  417POPI   GL2 6506  11.309   8.061   9.929  0.0954  0.2032  0.1452
  417POPI   C1A 6507  11.785   8.241   9.752 -0.0292  0.0316 -0.1269
  417POPI   D2A 6508  12.034   8.304   9.375 -0.1213  0.0644 -0.0253
  417POPI   C3A 6509  12.157   8.131   9.082 -0.3607 -0.1208  0.0714
  417POPI   C4A 6510  11.966   8.179   8.637  0.0511  0.1200  0.1566
  417POPI   C1B 6511  11.353   8.089   9.470 -0.1132  0.3637  0.4035
  417POPI   C2B 6512  11.526   7.899   9.012  0.1138 -0.2467  0.2390
  417POPI   C3B 6513  11.630   7.894   8.455  0.3405 -0.0215 -0.1752
  417POPI   C4B 6514  12.016   7.951   8.174 -0.1274 -0.0543  0.1171
  418POPI    C1 6515   5.272   8.081  11.421 -0.1455 -0.0454 -0.0796
  418POPI    C2 6516   4.889   8.179  11.478 -0.1665 -0.1502 -0.0384
  418POPI    C3 6517   5.026   7.827  11.608 -0.0408 -0.0856  0.0044
  418POPI   PO4 6518   5.270   8.103  11.052  0.1193 -0.0307 -0.1092
  418POPI   GL1 6519   5.454   7.901  10.688  0.2536 -0.2363  0.0401
  418POPI   GL2 6520   5.557   7.608  10.738  0.1499  0.1291 -0.3031
  418POPI   C1A 6521   5.175   7.851  10.288  0.1245  0.2076  0.0773
  418POPI   D2A 6522   4.878   7.814   9.961 -0.2540 -0.3679 -0.1585
  418POPI   C3A 6523   4.865   7.462   9.698 -0.0407  0.3327 -0.2467
  418POPI   C4A 6524   4.769   7.339   9.334  0.0568  0.0524  0.3563
  418POPI   C1B 6525   5.720   7.613  10.274  0.2705 -0.2122 -0.2721
  418POPI   C2B 6526   5.814   7.666   9.904 -0.3046 -0.2407  0.1351
  418POPI   C3B 6527   5.827   7.678   9.515 -0.0778  0.2182  0.2604
  418POPI   C4B 6528   5.665   7.632   9.175 -0.2397  0.2306  0.3161
  419POPI    C1 6529   9.861   5.076  10.552  0.0194 -0.1066 -0.2214
  419POPI    C2 6530   9.609   5.193  10.840  0.3514  0.0575  0.0099
  419POPI    C3 6531   9.812   4.851  10.879  0.1450 -0.0908 -0.1909
  419POPI   PO4 6532   9.731   5.182  10.306  0.1811 -0.0798 -0.2061
  419POPI   GL1 6533   9.782   5.273   9.881 -0.1534  0.1127  0.0004
  419POPI   GL2 6534   9.852   5.581   9.738  0.0393 -0.1535  0.1437
  419POPI   C1A 6535   9.776   5.162   9.373  0.0387 -0.4177 -0.1337
  419POPI   D2A 6536   9.875   5.301   8.953  0.1010  0.2244  0.1357
  419POPI   C3A 6537   9.768   5.058   8.569 -0.1617 -0.0660  0.2052
  419POPI   C4A 6538   9.922   4.937   8.250 -0.0302 -0.1360 -0.1321
  419POPI   C1B 6539   9.904   5.706   9.279  0.1694 -0.0063 -0.0157
  419POPI   C2B 6540   9.658   5.746   8.866 -0.1266  0.3528  0.0973
  419POPI   C3B 6541   9.554   5.757   8.423  0.4683 -0.2897 -0.1269
  419POPI   C4B 6542   9.819   5.853   8.117 -0.1670 -0.0046 -0.0821
  420POPI    C1 6543  13.435  15.481  11.089 -0.0084  0.0179 -0.2522
  420POPI    C2 6544  13.561  15.807  11.284 -0.1383 -0.1387  0.1017
  420POPI    C3 6545  13.818  15.513  11.200 -0.0883 -0.0848  0.0657
  420POPI   PO4 6546  13.299  15.608  10.929  0.2039 -0.0238  0.0202
  420POPI   GL1 6547  13.320  15.573  10.479 -0.0208 -0.2116  0.0620
  420POPI   GL2 6548  13.506  15.724  10.333 -0.2178  0.2074  0.4356
  420POPI   C1A 6549  13.084  15.400  10.081  0.1748 -0.0334  0.1501
  420POPI   D2A 6550  13.033  15.406   9.639 -0.2618 -0.1265  0.0082
  420POPI   C3A 6551  12.925  15.243   9.235  0.1229 -0.2738  0.3214
  420POPI   C4A 6552  12.795  14.995   8.869  0.0018  0.2830 -0.1035
  420POPI   C1B 6553  13.346  15.770   9.926 -0.1687  0.3172  0.0785
  420POPI   C2B 6554  13.306  15.792   9.479  0.2396 -0.4342  0.6792
  420POPI   C3B 6555  13.173  15.648   9.043  0.0751  0.0079 -0.2613
  420POPI   C4B 6556  12.946  15.406   8.729 -0.1671 -0.3855  0.0783
  421POPI    C1 6557  15.291   9.939  10.635 -0.0654  0.0274 -0.2612
  421POPI    C2 6558  15.106   9.627  10.805 -0.0306  0.0979 -0.0919
  421POPI    C3 6559  15.027   9.999  10.929  0.1890  0.1322 -0.0508
  421POPI   PO4 6560  15.259   9.863  10.341  0.0049 -0.1076 -0.1824
  421POPI   GL1 6561  15.053   9.920   9.995  0.0923 -0.1192  0.1938
  421POPI   GL2 6562  15.125   9.711   9.849  0.4614  0.1009  0.1166
  421POPI   C1A 6563  14.769  10.176   9.616  0.0729  0.1387 -0.2123
  421POPI   D2A 6564  14.434  10.321   9.422  0.0346 -0.1445 -0.3025
  421POPI   C3A 6565  14.340  10.271   9.057 -0.0253  0.0815  0.1596
  421POPI   C4A 6566  14.108  10.420   8.804  0.0280  0.0691  0.1815
  421POPI   C1B 6567  14.857   9.649   9.436  0.0012  0.0558  0.1906
  421POPI   C2B 6568  14.889   9.842   9.109  0.3747 -0.0282  0.0380
  421POPI   C3B 6569  14.752  10.059   8.719  0.0408  0.0252 -0.0410
  421POPI   C4B 6570  14.411  10.175   8.435 -0.3109  0.3085  0.0693
  422POPI    C1 6571  14.237  11.897  10.925 -0.1242 -0.1054 -0.2423
  422POPI    C2 6572  13.981  11.706  10.684 -0.1216 -0.2306 -0.1466
  422POPI    C3 6573  13.909  11.727  11.077 -0.1184 -0.0397 -0.1553
  422POPI   PO4 6574  14.483  11.780  10.914 -0.2305  0.1315 -0.1296
  422POPI   GL1 6575  14.506  11.523  10.561 -0.0611  0.1655  0.1122
  422POPI   GL2 6576  14.525  11.766  10.361 -0.0845 -0.0313 -0.1145
  422POPI   C1A 6577  14.627  11.304  10.121  0.0146 -0.3120 -0.3537
  422POPI   D2A 6578  14.599  11.201   9.700 -0.2189  0.2088 -0.1253
  422POPI   C3A 6579  14.531  11.363   9.354  0.0314  0.0185  0.3408
  422POPI   C4A 6580  14.620  11.506   8.961 -0.2854 -0.2868 -0.0070
  422POPI   C1B 6581  14.953  11.710  10.049  0.3809  0.0183  0.0965
  422POPI   C2B 6582  14.923  11.600   9.647  0.0417 -0.0815  0.0111
  422POPI   C3B 6583  14.991  11.658   9.219  0.3178 -0.1343 -0.1180
  422POPI   C4B 6584  15.033  11.803   8.805  0.3014  0.4215  0.3079
  423DPPI    C1 6585   7.455  10.217  10.987  0.1056  0.1128 -0.0815
  423DPPI    C2 6586   7.631  10.467  11.245  0.0194  0.1076 -0.0174
  423DPPI    C3 6587   7.263  10.327  11.320  0.1368 -0.1802  0.0368
  423DPPI   PO4 6588   7.486  10.302  10.767 -0.0217  0.4116  0.4587
  423DPPI   GL1 6589   7.375  10.422  10.438  0.2861  0.1057 -0.1239
  423DPPI   GL2 6590   7.584  10.666  10.380  0.2338 -0.0723  0.2162
  423DPPI   C1A 6591   7.381  10.234  10.032 -0.2118  0.1679 -0.1007
  423DPPI   C2A 6592   7.392  10.159   9.574 -0.0961  0.2198  0.1307
  423DPPI   C3A 6593   7.280  10.086   9.059  0.4372  0.2069 -0.0141
  423DPPI   C4A 6594   7.397  10.063   8.631 -0.0048  0.0659  0.0148
  423DPPI   C1B 6595   7.693  10.647   9.973 -0.3704  0.1478  0.2618
  423DPPI   C2B 6596   7.644  10.651   9.549  0.0989  0.2138 -0.0943
  423DPPI   C3B 6597   7.474  10.486   9.183 -0.0453 -0.0250  0.4119
  423DPPI   C4B 6598   7.187  10.550   8.886 -0.1404 -0.1362 -0.0755
  424DPPI    C1 6599  10.301   5.442  10.621  0.0334 -0.0911 -0.0602
  424DPPI    C2 6600  10.469   5.286  10.949  0.0234 -0.0016 -0.0124
  424DPPI    C3 6601  10.071   5.319  10.925  0.0199 -0.0832 -0.0673
  424DPPI   PO4 6602  10.357   5.722  10.581 -0.0053  0.0086 -0.1613
  424DPPI   GL1 6603  10.084   5.909  10.247  0.0173 -0.1977  0.0243
  424DPPI   GL2 6604  10.132   5.579  10.173 -0.2930  0.2185 -0.1009
  424DPPI   C1A 6605  10.207   6.265   9.937  0.1517 -0.2353 -0.3842
  424DPPI   C2A 6606  10.248   6.373   9.528  0.0759  0.0708  0.0254
  424DPPI   C3A 6607  10.089   6.513   9.150 -0.1257  0.0348  0.0254
  424DPPI   C4A 6608  10.010   6.557   8.727  0.1423 -0.1764 -0.0253
  424DPPI   C1B 6609  10.305   5.814   9.802  0.1744  0.1738 -0.0814
  424DPPI   C2B 6610  10.345   5.883   9.411 -0.2304  0.3523  0.1186
  424DPPI   C3B 6611  10.208   6.055   9.007  0.3086 -0.0146  0.0514
  424DPPI   C4B 6612   9.968   6.050   8.536 -0.2218 -0.2025 -0.1847
  425DPPI    C1 6613  15.484  14.481  11.033  0.1118 -0.1938  0.0457
  425DPPI    C2 6614  15.695  14.213  11.242 -0.2147 -0.1450  0.4492
  425DPPI    C3 6615  15.738  14.604  11.316  0.4332 -0.0500 -0.2958
  425DPPI   PO4 6616  15.384  14.299  10.810  0.1431 -0.2218  0.2531
  425DPPI   GL1 6617  15.284  14.259  10.428 -0.1243  0.0695  0.1355
  425DPPI   GL2 6618  15.317  14.604  10.316 -0.2771  0.2681 -0.4620
  425DPPI   C1A 6619  15.044  14.125   9.982 -0.1006  0.1302 -0.1436
  425DPPI   C2A 6620  14.982  14.179   9.508 -0.1175 -0.0156 -0.0414
  425DPPI   C3A 6621  14.921  14.243   9.120 -0.0482  0.1714 -0.1206
  425DPPI   C4A 6622  15.078  14.324   8.826 -0.2697 -0.0612 -0.1032
  425DPPI   C1B 6623  15.277  14.523   9.900 -0.1231  0.0237  0.0940
  425DPPI   C2B 6624  15.225  14.643   9.492 -0.2124 -0.1517 -0.1117
  425DPPI   C3B 6625  15.401  14.637   9.145  0.1614 -0.1648 -0.1126
  425DPPI   C4B 6626  15.422  14.741   8.730 -0.2035 -0.0898 -0.1472
  426DPPI    C1 6627  10.356  12.051  10.629 -0.0425  0.0358  0.0919
  426DPPI    C2 6628  10.163  11.787  10.859  0.1453 -0.1872 -0.0027
  426DPPI    C3 6629  10.532  11.906  10.957  0.0818  0.0026  0.0110
  426DPPI   PO4 6630  10.150  12.213  10.580  0.1234 -0.0821 -0.0458
  426DPPI   GL1 6631   9.841  12.221  10.299  0.0169 -0.1587  0.0886
  426DPPI   GL2 6632   9.882  12.576  10.367  0.0381 -0.3440  0.0969
  426DPPI   C1A 6633   9.740  12.233   9.973 -0.1697  0.1439 -0.1520
  426DPPI   C2A 6634   9.784  12.281   9.539 -0.1920 -0.0557 -0.1442
  426DPPI   C3A 6635   9.747  12.166   9.065  0.1121 -0.2003  0.1627
  426DPPI   C4A 6636   9.832  12.266   8.657  0.2921  0.2629  0.4297
  426DPPI   C1B 6637  10.087  12.617   9.959  0.2961  0.2490  0.2225
  426DPPI   C2B 6638  10.161  12.628   9.603  0.1241  0.0826 -0.2081
  426DPPI   C3B 6639  10.118  12.549   9.129 -0.0603 -0.0532 -0.0324
  426DPPI   C4B 6640  10.267  12.569   8.642 -0.1540 -0.0050 -0.4098
  427DPPI    C1 6641  10.616   4.092  10.915  0.0144  0.0888  0.1990
  427DPPI    C2 6642  10.677   3.750  11.113  0.0141  0.0872  0.1963
  427DPPI    C3 6643  10.323   3.934  11.137 -0.1661 -0.1892 -0.2230
  427DPPI   PO4 6644  10.713   3.988  10.627 -0.2604 -0.0869 -0.0997
  427DPPI   GL1 6645  10.633   3.900  10.193  0.2709  0.1200 -0.0672
  427DPPI   GL2 6646  10.614   3.547  10.245 -0.0306 -0.0997  0.1814
  427DPPI   C1A 6647  10.324   3.798   9.812  0.2809 -0.0594 -0.0277
  427DPPI   C2A 6648  10.282   3.872   9.345 -0.4463 -0.0871  0.4794
  427DPPI   C3A 6649  10.364   3.658   8.941 -0.0170 -0.1736 -0.0173
  427DPPI   C4A 6650  10.384   3.659   8.520 -0.2101  0.0449  0.0333
  427DPPI   C1B 6651  10.540   3.415   9.759 -0.2848  0.0123  0.0900
  427DPPI   C2B 6652  10.564   3.432   9.336 -0.2293 -0.2541  0.1635
  427DPPI   C3B 6653  10.746   3.358   8.926  0.0038  0.1441 -0.3017
  427DPPI   C4B 6654  10.878   3.573   8.454 -0.2305  0.2505  0.2129
  428DPPI    C1 6655  10.579   6.507  10.704  0.1565 -0.3070 -0.0534
  428DPPI    C2 6656  10.446   6.658  11.050  0.0693 -0.0594 -0.1923
  428DPPI    C3 6657  10.571   6.278  11.032 -0.0919 -0.1274  0.0692
  428DPPI   PO4 6658  10.419   6.622  10.519 -0.0207 -0.1503 -0.2079
  428DPPI   GL1 6659  10.408   6.658  10.115  0.4988  0.1288  0.1665
  428DPPI   GL2 6660  10.276   6.993  10.259 -0.6450  0.2518  0.0824
  428DPPI   C1A 6661  10.528   6.743   9.713 -0.1834  0.1456  0.1979
  428DPPI   C2A 6662  10.527   6.764   9.266  0.2209 -0.2259  0.1753
  428DPPI   C3A 6663  10.487   7.013   8.953 -0.1465  0.0735  0.0561
  428DPPI   C4A 6664  10.504   7.015   8.481  0.0760 -0.0229  0.0667
  428DPPI   C1B 6665  10.270   7.115   9.939 -0.1633 -0.0472  0.3261
  428DPPI   C2B 6666  10.429   7.321   9.579 -0.0247 -0.3121  0.0169
  428DPPI   C3B 6667  10.423   7.525   9.106  0.0115  0.2885 -0.3953
  428DPPI   C4B 6668  10.326   7.495   8.656 -0.2413  0.1058 -0.0954
  429DPPI    C1 6669  11.633  11.223  10.948 -0.1384  0.2295  0.1454
  429DPPI    C2 6670  11.699  11.611  11.015 -0.1492  0.1847  0.4264
  429DPPI    C3 6671  11.386  11.429  11.186 -0.0846  0.0285  0.3795
  429DPPI   PO4 6672  11.685  11.173  10.719  0.2399  0.2580  0.2125
  429DPPI   GL1 6673  11.468  10.897  10.360  0.3435 -0.0765  0.2549
  429DPPI   GL2 6674  11.399  11.206  10.351  0.2461 -0.0838  0.2264
  429DPPI   C1A 6675  11.184  10.571   9.933  0.3627 -0.0014 -0.2642
  429DPPI   C2A 6676  11.042  10.496   9.548  0.1489 -0.0413 -0.0045
  429DPPI   C3A 6677  10.827  10.235   9.415  0.1294  0.0708 -0.3869
  429DPPI   C4A 6678  10.738   9.782   9.410 -0.0254 -0.1248 -0.0545
  429DPPI   C1B 6679  11.549  11.397   9.974  0.2612 -0.1039  0.1217
  429DPPI   C2B 6680  11.595  11.291   9.540  0.1453 -0.5352  0.1334
  429DPPI   C3B 6681  11.584  11.325   9.032 -0.0928 -0.2663  0.0509
  429DPPI   C4B 6682  11.584  11.423   8.562  0.2607  0.2441  0.1346
  430DPPI    C1 6683   1.427   4.190  11.159 -0.2042  0.0067 -0.0574
  430DPPI    C2 6684   1.579   4.078  11.512 -0.2167 -0.0029 -0.0551
  430DPPI    C3 6685   1.210   3.963  11.407 -0.2123 -0.0015 -0.0720
  430DPPI   PO4 6686   1.554   4.149  10.978 -0.0477 -0.1370  0.2657
  430DPPI   GL1 6687   1.486   4.014  10.668  0.1183 -0.0743 -0.0622
  430DPPI   GL2 6688   1.312   4.022  10.471 -0.2444 -0.0203 -0.3147
  430DPPI   C1A 6689   1.671   4.209  10.284 -0.2843 -0.0461 -0.0326
  430DPPI   C2A 6690   1.587   4.074   9.859  0.1404 -0.1134  0.0464
  430DPPI   C3A 6691   1.766   4.049   9.389 -0.1090  0.0132 -0.1824
  430DPPI   C4A 6692   1.804   4.134   8.850  0.2041 -0.0618  0.5590
  430DPPI   C1B 6693   1.352   3.695  10.238  0.0210  0.0303 -0.1975
  430DPPI   C2B 6694   1.496   3.609   9.904  0.1316  0.0654 -0.0580
  430DPPI   C3B 6695   1.404   3.730   9.560 -0.1243 -0.1699 -0.2483
  430DPPI   C4B 6696   1.382   3.895   9.113 -0.1295 -0.1021  0.0089
  431DPPI    C1 6697   6.462   6.169  11.188 -0.0741 -0.1419  0.0987
  431DPPI    C2 6698   6.086   6.117  11.312 -0.1594  0.1151 -0.0443
  431DPPI    C3 6699   6.388   6.097  11.574 -0.2782 -0.0097  0.0854
  431DPPI   PO4 6700   6.502   5.985  10.948  0.3221  0.2607 -0.0476
  431DPPI   GL1 6701   6.416   5.910  10.534 -0.1488  0.2429  0.2064
  431DPPI   GL2 6702   6.163   6.121  10.318 -0.1067 -0.2319 -0.4000
  431DPPI   C1A 6703   6.613   5.899  10.199 -0.1628 -0.0009  0.1296
  431DPPI   C2A 6704   6.781   6.127   9.923  0.1147  0.0792  0.3133
  431DPPI   C3A 6705   6.736   6.082   9.514  0.0357 -0.0409 -0.1217
  431DPPI   C4A 6706   6.800   6.142   9.156 -0.1387 -0.0709  0.1385
  431DPPI   C1B 6707   6.270   6.158   9.881 -0.0530  0.1957  0.2862
  431DPPI   C2B 6708   6.221   6.144   9.540 -0.0027 -0.0781 -0.0296
  431DPPI   C3B 6709   6.290   6.209   9.047  0.1903 -0.0656  0.1890
  431DPPI   C4B 6710   6.220   6.160   8.629 -0.0653  0.2530  0.0511
  432DPPI    C1 6711  11.750   9.249  10.609  0.1637  0.0735  0.0863
  432DPPI    C2 6712  11.691   9.169  10.996  0.1537  0.1199  0.0945
  432DPPI    C3 6713  11.583   9.524  10.847  0.1427  0.0961  0.0455
  432DPPI   PO4 6714  11.652   9.127  10.508 -0.0165  0.4725  0.0142
  432DPPI   GL1 6715  11.634   8.983  10.059 -0.1195 -0.1493  0.0487
  432DPPI   GL2 6716  11.511   9.314  10.051  0.0638 -0.0429  0.2244
  432DPPI   C1A 6717  11.202   8.966   9.885 -0.0609  0.1796  0.0822
  432DPPI   C2A 6718  11.152   8.830   9.443  0.0095  0.0928  0.1118
  432DPPI   C3A 6719  10.843   8.721   9.125 -0.0303 -0.1201 -0.1665
  432DPPI   C4A 6720  10.514   8.517   8.948 -0.0675  0.1077 -0.1135
  432DPPI   C1B 6721  11.368   9.379   9.674 -0.0079  0.0050 -0.1877
  432DPPI   C2B 6722  11.403   9.191   9.238  0.0262 -0.1473 -0.2997
  432DPPI   C3B 6723  11.297   8.867   8.884 -0.0524 -0.1024 -0.0319
  432DPPI   C4B 6724  11.343   8.796   8.521 -0.1399  0.0548  0.2522
  433DPPI    C1 6725   3.879  14.897  11.084  0.0890  0.2482  0.0766
  433DPPI    C2 6726   4.253  14.945  11.216  0.1520  0.0523 -0.0268
  433DPPI    C3 6727   4.033  14.636  11.345 -0.0291  0.2521  0.1513
  433DPPI   PO4 6728   3.946  14.791  10.771 -0.0215 -0.2721 -0.0155
  433DPPI   GL1 6729   3.821  14.974  10.445 -0.3592  0.0777  0.1039
  433DPPI   GL2 6730   3.559  14.875  10.428 -0.2878 -0.2429 -0.0103
  433DPPI   C1A 6731   4.106  14.968  10.194  0.0954  0.3190  0.0101
  433DPPI   C2A 6732   4.068  14.991   9.811 -0.0832  0.0464 -0.0991
  433DPPI   C3A 6733   4.053  15.150   9.356  0.0017  0.1708  0.1707
  433DPPI   C4A 6734   4.259  15.130   9.038 -0.0504  0.0812  0.3380
  433DPPI   C1B 6735   3.634  14.760  10.033  0.0851  0.0221  0.1950
  433DPPI   C2B 6736   3.694  14.802   9.543  0.0606  0.3116 -0.1834
  433DPPI   C3B 6737   3.635  14.901   9.149  0.0395 -0.1892  0.0185
  433DPPI   C4B 6738   3.666  15.128   8.965 -0.0512  0.2618 -0.0327
  434DPPI    C1 6739  16.636  16.645  11.191  0.2256 -0.0111 -0.0225
  434DPPI    C2 6740  16.251  16.748  11.154  0.2432 -0.0860 -0.4572
  434DPPI    C3 6741  16.397  16.644  11.512 -0.0886  0.1400 -0.2515
  434DPPI   PO4 6742  16.650  16.575  10.941 -0.0047  0.0763 -0.1635
  434DPPI   GL1 6743  16.651  16.680  10.504  0.0791  0.4427 -0.2073
  434DPPI   GL2 6744  16.628  16.375  10.503  0.2197  0.1274  0.0052
  434DPPI   C1A 6745  16.573  16.636  10.017 -0.0069  0.0973 -0.2317
  434DPPI   C2A 6746  16.677  16.542   9.592 -0.3871  0.2874 -0.2704
  434DPPI   C3A 6747  16.630  16.328   9.241  0.0102  0.1152  0.0328
  434DPPI   C4A 6748  16.435  16.046   8.908  0.2029  0.1896  0.0653
  434DPPI   C1B 6749  16.886  16.235  10.148  0.3743 -0.1332 -0.0166
  434DPPI   C2B 6750  17.153  16.366   9.820 -0.1100 -0.1568 -0.3695
  434DPPI   C3B 6751  17.474  16.440   9.559 -0.0232 -0.0970 -0.0014
  434DPPI   C4B 6752  17.533  16.672   9.216  0.0369 -0.3412  0.1695
  435DPPI    C1 6753   1.686   5.065  11.132 -0.1840 -0.1118  0.0112
  435DPPI    C2 6754   1.585   4.683  11.071 -0.1205 -0.1805  0.3209
  435DPPI    C3 6755   1.501   4.859  11.420 -0.1183  0.0795  0.1925
  435DPPI   PO4 6756   1.887   5.059  11.007  0.0506  0.0652  0.3128
  435DPPI   GL1 6757   2.068   4.885  10.651 -0.1555  0.0184  0.3031
  435DPPI   GL2 6758   2.351   5.142  10.707  0.2964  0.0361  0.2999
  435DPPI   C1A 6759   1.909   4.732  10.401 -0.1411  0.0733  0.0720
  435DPPI   C2A 6760   1.835   4.614   9.955  0.1036  0.1144  0.0590
  435DPPI   C3A 6761   1.865   4.635   9.578  0.0254 -0.0600  0.0749
  435DPPI   C4A 6762   1.844   4.556   9.210 -0.2460  0.0155  0.3255
  435DPPI   C1B 6763   2.481   5.055  10.228 -0.1176  0.0023  0.2783
  435DPPI   C2B 6764   2.549   5.199   9.806 -0.0213  0.4191 -0.0652
  435DPPI   C3B 6765   2.456   5.241   9.445  0.0817 -0.1891  0.0469
  435DPPI   C4B 6766   2.468   5.380   9.073  0.2596  0.0670 -0.0704
  436DPPI    C1 6767   5.948  10.222  11.112 -0.0339 -0.0744 -0.1853
  436DPPI    C2 6768   6.224  10.511  11.106 -0.1200  0.0105 -0.0811
  436DPPI    C3 6769   5.946  10.507  11.393 -0.0272 -0.2620  0.0074
  436DPPI   PO4 6770   5.866  10.214  10.857  0.0240  0.0833  0.1337
  436DPPI   GL1 6771   5.888  10.281  10.391 -0.1162 -0.4471 -0.2509
  436DPPI   GL2 6772   5.818  10.669  10.227  0.1820 -0.0919 -0.1376
  436DPPI   C1A 6773   5.847  10.205   9.954  0.0290 -0.2629  0.0619
  436DPPI   C2A 6774   5.881  10.175   9.602  0.1312  0.2018 -0.1553
  436DPPI   C3A 6775   5.785  10.165   9.153 -0.2065  0.2837 -0.0061
  436DPPI   C4A 6776   5.690  10.203   8.663 -0.1980  0.1131  0.1601
  436DPPI   C1B 6777   5.670  10.783   9.844  0.2178 -0.1503  0.3986
  436DPPI   C2B 6778   5.630  10.668   9.387 -0.0228 -0.0766 -0.3746
  436DPPI   C3B 6779   5.753  10.640   9.041 -0.2738 -0.2492 -0.1024
  436DPPI   C4B 6780   6.027  10.946   9.032 -0.3085  0.2806 -0.0023
  437DPPI    C1 6781   2.373   7.683  11.021 -0.1984  0.1764  0.0496
  437DPPI    C2 6782   2.427   7.289  11.063 -0.1928  0.1691 -0.0250
  437DPPI    C3 6783   2.435   7.527  11.384 -0.0042  0.1325 -0.0012
  437DPPI   PO4 6784   2.311   7.626  10.712 -0.1140  0.0361 -0.0594
  437DPPI   GL1 6785   2.165   7.321  10.393 -0.2423 -0.4953  0.2039
  437DPPI   GL2 6786   2.496   7.392  10.343  0.0235 -0.1400 -0.0329
  437DPPI   C1A 6787   2.140   7.298   9.934  0.1556  0.0354 -0.2079
  437DPPI   C2A 6788   2.135   7.244   9.517 -0.0714 -0.1386  0.0783
  437DPPI   C3A 6789   2.287   7.071   9.161 -0.0144  0.0544 -0.0528
  437DPPI   C4A 6790   2.402   7.083   8.773  0.3106 -0.0970 -0.1451
  437DPPI   C1B 6791   2.810   7.518   9.986 -0.1315  0.1405 -0.2153
  437DPPI   C2B 6792   2.816   7.643   9.575 -0.1780  0.2433 -0.0963
  437DPPI   C3B 6793   2.906   7.727   9.171 -0.1220 -0.0490 -0.0406
  437DPPI   C4B 6794   3.035   7.902   8.719 -0.0986  0.1387 -0.2872
  438DPPI    C1 6795   7.153  14.906  10.654  0.1558  0.1527 -0.0284
  438DPPI    C2 6796   7.526  14.856  10.789  0.0863 -0.2066  0.0416
  438DPPI    C3 6797   7.268  15.083  10.993  0.2285 -0.0596  0.0598
  438DPPI   PO4 6798   7.132  14.814  10.379 -0.2951  0.0725  0.1043
  438DPPI   GL1 6799   7.020  14.931  10.059 -0.3623  0.0977 -0.0048
  438DPPI   GL2 6800   7.139  15.253  10.049  0.2991  0.2448  0.2581
  438DPPI   C1A 6801   6.967  14.747   9.652 -0.0122 -0.3434 -0.0443
  438DPPI   C2A 6802   6.871  14.727   9.166 -0.1619  0.1303  0.4073
  438DPPI   C3A 6803   7.137  14.709   8.759  0.1883 -0.1786  0.0795
  438DPPI   C4A 6804   7.477  14.648   8.564  0.4294  0.0372 -0.0314
  438DPPI   C1B 6805   7.152  15.229   9.676  0.1335 -0.0906 -0.2396
  438DPPI   C2B 6806   7.183  15.269   9.291 -0.1753 -0.2952 -0.1750
  438DPPI   C3B 6807   7.093  15.174   8.950 -0.0101  0.0660  0.0321
  438DPPI   C4B 6808   7.265  15.294   8.572 -0.2825  0.0614  0.1655
  439DPPI    C1 6809  10.858  10.912  10.871 -0.0137  0.0173 -0.0886
  439DPPI    C2 6810  11.086  11.235  10.808 -0.0857  0.1186  0.1583
  439DPPI    C3 6811  11.037  11.093  11.179  0.0051 -0.2232  0.0436
  439DPPI   PO4 6812  10.976  10.786  10.580 -0.0768 -0.1547  0.0343
  439DPPI   GL1 6813  10.996  10.988  10.224 -0.0100 -0.0937  0.1443
  439DPPI   GL2 6814  10.745  11.101  10.136  0.0201  0.3541  0.0735
  439DPPI   C1A 6815  11.289  11.028   9.866  0.0336 -0.4586  0.1015
  439DPPI   C2A 6816  11.264  10.953   9.426 -0.0694  0.0571  0.0475
  439DPPI   C3A 6817  11.375  10.827   9.093 -0.0892  0.0782 -0.0241
  439DPPI   C4A 6818  11.237  10.587   8.717  0.1482  0.2387  0.0706
  439DPPI   C1B 6819  10.830  10.936   9.728  0.2110  0.1074 -0.2842
  439DPPI   C2B 6820  10.737  11.031   9.364 -0.1718 -0.0803 -0.0094
  439DPPI   C3B 6821  10.838  10.659   9.079 -0.2216 -0.0743  0.1414
  439DPPI   C4B 6822  10.667  10.569   8.601 -0.1423 -0.1512  0.1369
  440DPPI    C1 6823   6.913  12.856  10.740 -0.2157  0.1520  0.0676
  440DPPI    C2 6824   7.070  13.182  10.570  0.0423 -0.0695 -0.1287
  440DPPI    C3 6825   7.287  12.967  10.829 -0.1635 -0.0297  0.0801
  440DPPI   PO4 6826   6.781  12.792  10.493  0.1665  0.1572  0.1659
  440DPPI   GL1 6827   7.071  12.754  10.195 -0.1155 -0.1407 -0.0752
  440DPPI   GL2 6828   7.148  12.430  10.062 -0.2079 -0.1157  0.0430
  440DPPI   C1A 6829   6.864  12.836   9.852  0.1567  0.0783 -0.1309
  440DPPI   C2A 6830   6.892  12.820   9.389 -0.0792 -0.0473 -0.0285
  440DPPI   C3A 6831   6.803  12.776   8.992 -0.1020 -0.3243  0.2861
  440DPPI   C4A 6832   6.825  12.692   8.583 -0.1462  0.0945 -0.1078
  440DPPI   C1B 6833   7.191  12.457   9.631  0.1217 -0.1484 -0.0134
  440DPPI   C2B 6834   7.263  12.332   9.209  0.3123  0.1399  0.0444
  440DPPI   C3B 6835   7.223  12.270   8.770  0.0418  0.0311 -0.0823
  440DPPI   C4B 6836   7.131  11.900   8.537 -0.0204 -0.0392 -0.1953
  441DPPI    C1 6837  16.212   5.181  11.382 -0.0249 -0.0674 -0.0258
  441DPPI    C2 6838  16.365   5.525  11.247 -0.1760  0.0187  0.0198
  441DPPI    C3 6839  16.073   5.530  11.521 -0.1722 -0.1462  0.0277
  441DPPI   PO4 6840  16.179   5.051  11.131 -0.0280  0.2111 -0.2259
  441DPPI   GL1 6841  16.095   4.862  10.752 -0.1471  0.0171  0.0196
  441DPPI   GL2 6842  16.181   4.943  10.464  0.2084 -0.0309 -0.0432
  441DPPI   C1A 6843  15.866   4.540  10.423  0.1029 -0.1808  0.3820
  441DPPI   C2A 6844  15.847   4.379  10.022  0.0184 -0.1780 -0.2355
  441DPPI   C3A 6845  15.769   4.323   9.575  0.1184 -0.0209 -0.0717
  441DPPI   C4A 6846  15.766   4.378   9.142  0.1997 -0.0659  0.2636
  441DPPI   C1B 6847  16.063   5.124  10.065 -0.0691 -0.2536 -0.0430
  441DPPI   C2B 6848  16.140   5.208   9.641  0.2240  0.0995  0.0388
  441DPPI   C3B 6849  16.222   5.281   9.149 -0.1116 -0.1209 -0.0933
  441DPPI   C4B 6850  16.352   5.341   8.674 -0.2997  0.4785  0.2471
  442DPPI    C1 6851  14.186   2.109  10.777  0.0871 -0.1718 -0.1286
  442DPPI    C2 6852  14.287   2.447  10.588  0.0671 -0.1204 -0.0481
  442DPPI    C3 6853  14.156   2.461  10.966 -0.0161 -0.2100 -0.0731
  442DPPI   PO4 6854  13.983   1.955  10.734 -0.0440  0.1433  0.2290
  442DPPI   GL1 6855  13.954   1.817  10.400  0.0533  0.0256  0.0914
  442DPPI   GL2 6856  14.050   2.054  10.272 -0.1020  0.0710  0.1114
  442DPPI   C1A 6857  13.771   1.638  10.023  0.0245  0.0017  0.0385
  442DPPI   C2A 6858  13.797   1.708   9.612 -0.0174 -0.0886  0.1290
  442DPPI   C3A 6859  13.562   1.971   9.154  0.0528 -0.2548  0.2303
  442DPPI   C4A 6860  13.140   2.063   8.896 -0.2446  0.2692  0.3270
  442DPPI   C1B 6861  13.687   2.140   9.956  0.0296 -0.3164  0.1714
  442DPPI   C2B 6862  13.486   2.248   9.617  0.1669 -0.2298 -0.1234
  442DPPI   C3B 6863  13.096   2.202   9.394 -0.1756 -0.2012  0.1344
  442DPPI   C4B 6864  12.771   2.176   9.188  0.0347 -0.1228 -0.0702
  443DPPI    C1 6865   4.948   8.845  10.923 -0.0063  0.0947  0.0142
  443DPPI    C2 6866   5.218   8.576  11.043  0.0220  0.0893 -0.0613
  443DPPI    C3 6867   4.927   8.691  11.292  0.0002 -0.0232 -0.0341
  443DPPI   PO4 6868   4.866   8.697  10.681 -0.1297  0.1532 -0.0344
  443DPPI   GL1 6869   4.679   8.442  10.354 -0.0406 -0.0478 -0.1427
  443DPPI   GL2 6870   4.428   8.584  10.237  0.1024  0.0446 -0.1454
  443DPPI   C1A 6871   4.893   8.301  10.172  0.0621  0.0064 -0.0105
  443DPPI   C2A 6872   4.860   8.210   9.665 -0.2469  0.1962 -0.0516
  443DPPI   C3A 6873   5.025   7.890   9.460  0.1569 -0.1200  0.0337
  443DPPI   C4A 6874   5.172   7.666   9.078  0.2141 -0.0006  0.1895
  443DPPI   C1B 6875   4.579   8.576   9.818 -0.2168 -0.2476  0.2368
  443DPPI   C2B 6876   4.557   8.521   9.406 -0.1058  0.0700  0.1642
  443DPPI   C3B 6877   4.736   8.458   9.084  0.0792 -0.2934  0.2597
  443DPPI   C4B 6878   4.949   8.243   9.031 -0.0588 -0.1379  0.2047
  444DPPI    C1 6879   1.443  15.731  10.956 -0.0192 -0.1032 -0.0611
  444DPPI    C2 6880   1.115  15.630  11.162 -0.0673 -0.1061 -0.1388
  444DPPI    C3 6881   1.176  16.011  11.056  0.0217 -0.0831 -0.0075
  444DPPI   PO4 6882   1.411  15.543  10.772  0.0668  0.0480 -0.3350
  444DPPI   GL1 6883   1.476  15.382  10.324  0.0290 -0.0439  0.0669
  444DPPI   GL2 6884   1.735  15.387  10.192 -0.1271  0.2815  0.0655
  444DPPI   C1A 6885   1.197  15.654  10.101  0.1662  0.1381 -0.1280
  444DPPI   C2A 6886   1.181  15.843   9.713  0.0816  0.1661 -0.2131
  444DPPI   C3A 6887   1.247  15.899   9.318 -0.1434  0.0228  0.2287
  444DPPI   C4A 6888   1.202  15.709   8.933 -0.0122 -0.0799  0.0238
  444DPPI   C1B 6889   1.637  15.580   9.789  0.2180  0.0003 -0.0677
  444DPPI   C2B 6890   1.680  15.666   9.311  0.0783  0.2271  0.1079
  444DPPI   C3B 6891   1.674  15.756   8.965  0.3080 -0.0204 -0.1069
  444DPPI   C4B 6892   1.588  15.437   8.650  0.4760  0.1485 -0.2003
  445DPPI    C1 6893   8.770   6.843  11.128 -0.0710  0.1813 -0.0474
  445DPPI    C2 6894   9.071   6.821  11.391 -0.1268 -0.1536 -0.0076
  445DPPI    C3 6895   8.695   6.762  11.512 -0.1982  0.1307 -0.0828
  445DPPI   PO4 6896   8.916   6.833  10.867  0.0127  0.4364  0.0814
  445DPPI   GL1 6897   8.873   6.751  10.496  0.0919  0.0268  0.4590
  445DPPI   GL2 6898   8.901   7.046  10.397  0.2982  0.0043  0.1942
  445DPPI   C1A 6899   9.081   6.547  10.148  0.0866  0.1942  0.0799
  445DPPI   C2A 6900   8.979   6.511   9.714 -0.1390  0.2468  0.1435
  445DPPI   C3A 6901   9.188   6.523   9.277  0.0595 -0.2279 -0.2296
  445DPPI   C4A 6902   9.146   6.472   8.848 -0.0722 -0.0759  0.1508
  445DPPI   C1B 6903   8.619   7.107   9.983 -0.0835 -0.2102  0.0398
  445DPPI   C2B 6904   8.549   7.125   9.485  0.2582  0.1486 -0.0486
  445DPPI   C3B 6905   8.613   7.159   8.994 -0.0116 -0.2209 -0.1740
  445DPPI   C4B 6906   8.629   7.108   8.674  0.0353  0.1091  0.0962
  446DPPI    C1 6907   4.718   6.041  11.080  0.2436 -0.0259 -0.2380
  446DPPI    C2 6908   4.403   5.825  10.963  0.0188  0.2739 -0.1989
  446DPPI    C3 6909   4.452   5.912  11.350  0.2822  0.0286 -0.1737
  446DPPI   PO4 6910   4.703   6.222  10.851 -0.3046 -0.0545 -0.3012
  446DPPI   GL1 6911   4.533   6.052  10.386  0.0813 -0.2697 -0.0898
  446DPPI   GL2 6912   4.612   5.687  10.346  0.0239  0.0856  0.1037
  446DPPI   C1A 6913   4.745   6.085  10.026 -0.1003  0.0693  0.1455
  446DPPI   C2A 6914   4.811   6.258   9.601 -0.0074  0.1221  0.0286
  446DPPI   C3A 6915   4.879   6.229   9.157  0.0403  0.1376 -0.1150
  446DPPI   C4A 6916   4.933   6.127   8.850 -0.1161  0.1977  0.0801
  446DPPI   C1B 6917   4.665   5.617   9.869 -0.1032  0.4950  0.0730
  446DPPI   C2B 6918   4.865   5.781   9.550  0.2809 -0.1510  0.1457
  446DPPI   C3B 6919   4.965   5.659   9.173 -0.0963  0.0858 -0.1078
  446DPPI   C4B 6920   4.950   5.551   8.840 -0.1412 -0.0273 -0.3745
  447DPPI    C1 6921   0.389   5.472  11.052  0.0125  0.0012  0.1807
  447DPPI    C2 6922   0.163   5.675  11.312 -0.0550  0.1301  0.0230
  447DPPI    C3 6923   0.396   5.872  11.053  0.0292  0.0023  0.0009
  447DPPI   PO4 6924   0.294   5.304  10.912 -0.0982  0.0838 -0.0798
  447DPPI   GL1 6925   0.401   5.205  10.565 -0.0027  0.2568 -0.0322
  447DPPI   GL2 6926   0.287   4.877  10.535  0.0117  0.1180  0.2270
  447DPPI   C1A 6927   0.661   5.127  10.265  0.0398 -0.0768  0.3350
  447DPPI   C2A 6928   0.626   5.092   9.791  0.0600 -0.1042 -0.0955
  447DPPI   C3A 6929   0.636   5.068   9.418  0.1072  0.1967 -0.1440
  447DPPI   C4A 6930   0.618   4.929   9.009  0.1112 -0.1343 -0.1359
  447DPPI   C1B 6931   0.226   4.912  10.111  0.2425 -0.3463  0.1270
  447DPPI   C2B 6932   0.123   4.896   9.666  0.0638 -0.1645 -0.0259
  447DPPI   C3B 6933   0.151   4.731   9.290  0.2320 -0.1508 -0.1432
  447DPPI   C4B 6934   0.036   4.679   8.951 -0.3081 -0.0478  0.1054
  448DPPI    C1 6935  17.653   0.025  10.841 -0.1482  0.0075 -0.0239
  448DPPI    C2 6936  18.018   0.185  10.880 -0.1214 -0.0493 -0.0412
  448DPPI    C3 6937  17.727   0.288  11.133 -0.0450 -0.1409  0.0850
  448DPPI   PO4 6938  17.604   0.046  10.592  0.0902  0.1909 -0.0442
  448DPPI   GL1 6939  17.675   0.076  10.098 -0.2487 -0.1998 -0.0566
  448DPPI   GL2 6940  17.439   0.066   9.995 -0.1157  0.2290  0.3076
  448DPPI   C1A 6941  18.023  -0.159  10.003  0.2616 -0.1842  0.0772
  448DPPI   C2A 6942  18.157  -0.066   9.662 -0.0128 -0.1376 -0.1780
  448DPPI   C3A 6943  18.527   0.143   9.405 -0.1502 -0.0213 -0.0454
  448DPPI   C4A 6944  18.545   0.442   9.100  0.0026 -0.1471  0.4283
  448DPPI   C1B 6945  17.707   0.082   9.631 -0.1518 -0.0568 -0.0278
  448DPPI   C2B 6946  17.637   0.134   9.246 -0.2354 -0.1415  0.1022
  448DPPI   C3B 6947  17.560  -0.080   8.932 -0.0418  0.0817 -0.0195
  448DPPI   C4B 6948  17.349  -0.145   8.615  0.0683  0.1868  0.0446
  449DPPI    C1 6949  15.161   6.579  11.046 -0.0137  0.0510 -0.1265
  449DPPI    C2 6950  15.099   6.962  11.143  0.0896  0.0533 -0.0680
  449DPPI    C3 6951  14.846   6.680  11.271  0.0745  0.0890 -0.0187
  449DPPI   PO4 6952  15.344   6.601  10.882 -0.1129 -0.0807 -0.0756
  449DPPI   GL1 6953  15.356   6.717  10.511  0.2255  0.3023  0.2573
  449DPPI   GL2 6954  15.462   7.012  10.389  0.1334 -0.0329  0.1312
  449DPPI   C1A 6955  15.812   6.596  10.338  0.0891 -0.0123  0.0377
  449DPPI   C2A 6956  16.060   6.852  10.120 -0.3388  0.1248  0.1697
  449DPPI   C3A 6957  15.990   7.223   9.935  0.0189 -0.1564 -0.0465
  449DPPI   C4A 6958  16.154   7.376   9.657  0.1882  0.0178  0.1264
  449DPPI   C1B 6959  15.566   6.942  10.056  0.1972 -0.1502 -0.2053
  449DPPI   C2B 6960  15.747   6.851   9.676  0.1967 -0.0105 -0.0947
  449DPPI   C3B 6961  15.862   7.042   9.246  0.0709 -0.1034 -0.0140
  449DPPI   C4B 6962  16.224   7.279   9.147 -0.1054 -0.0520  0.0275
  450DPPI    C1 6963   9.515  12.871  10.948 -0.1992 -0.0249  0.0870
  450DPPI    C2 6964   9.592  13.196  11.168  0.0364 -0.1576  0.2048
  450DPPI    C3 6965   9.627  12.832  11.330 -0.0293 -0.2490  0.0168
  450DPPI   PO4 6966   9.648  12.947  10.701 -0.0773 -0.0295  0.2379
  450DPPI   GL1 6967  10.149  13.011  10.494 -0.2904  0.1900 -0.1488
  450DPPI   GL2 6968   9.947  13.102  10.254 -0.3797  0.1516 -0.1179
  450DPPI   C1A 6969  10.428  12.951  10.148  0.0372 -0.1413  0.1312
  450DPPI   C2A 6970  10.525  12.969   9.728  0.2248 -0.0488 -0.1336
  450DPPI   C3A 6971  10.503  12.844   9.289  0.1399 -0.3150  0.1061
  450DPPI   C4A 6972  10.391  12.960   8.853 -0.0534 -0.0669  0.0293
  450DPPI   C1B 6973   9.921  13.077   9.820 -0.2171 -0.2552 -0.2332
  450DPPI   C2B 6974   9.986  13.040   9.395  0.1265 -0.2005  0.1177
  450DPPI   C3B 6975   9.883  13.137   9.057  0.0967 -0.0123 -0.1044
  450DPPI   C4B 6976   9.875  13.101   8.546  0.4039  0.0751  0.0195
  451DPPI    C1 6977   4.684   2.178  11.118  0.0536  0.1163  0.2499
  451DPPI    C2 6978   4.392   1.976  11.302  0.1533 -0.1085  0.1650
  451DPPI    C3 6979   4.745   1.800  11.235  0.2058  0.0591 -0.0066
  451DPPI   PO4 6980   4.612   2.309  10.882 -0.1160 -0.1176  0.4004
  451DPPI   GL1 6981   4.372   2.246  10.468 -0.0092 -0.3120 -0.3906
  451DPPI   GL2 6982   4.135   2.427  10.319 -0.2424  0.0034 -0.0688
  451DPPI   C1A 6983   4.492   2.178  10.006 -0.0726  0.1300  0.1060
  451DPPI   C2A 6984   4.614   2.239   9.580  0.1765 -0.1780  0.2366
  451DPPI   C3A 6985   4.782   2.196   9.160  0.0523  0.0683 -0.0637
  451DPPI   C4A 6986   4.659   2.321   8.815 -0.0702  0.1661 -0.0994
  451DPPI   C1B 6987   3.994   2.797  10.171  0.0334 -0.3870 -0.3152
  451DPPI   C2B 6988   4.147   3.262  10.027  0.1034  0.0045 -0.1036
  451DPPI   C3B 6989   4.164   3.407   9.614 -0.0273 -0.0136 -0.4478
  451DPPI   C4B 6990   4.213   3.137   9.182  0.1216 -0.0804  0.1621
  452DPPI    C1 6991   9.709   9.916  10.582  0.0575 -0.2353 -0.2308
  452DPPI    C2 6992  10.009   9.711  10.749  0.1559  0.1380  0.0641
  452DPPI    C3 6993   9.634   9.574  10.776  0.2401 -0.0884  0.1072
  452DPPI   PO4 6994   9.723  10.078  10.408 -0.1518  0.2139 -0.0039
  452DPPI   GL1 6995   9.853  10.139  10.048 -0.0807 -0.1336 -0.2700
  452DPPI   GL2 6996  10.082  10.293  10.059  0.1616  0.1006 -0.0891
  452DPPI   C1A 6997   9.831  10.171   9.542 -0.1297 -0.4192 -0.1156
  452DPPI   C2A 6998   9.809  10.154   9.104 -0.1890 -0.2099 -0.1656
  452DPPI   C3A 6999   9.746   9.978   8.662 -0.1664 -0.2131 -0.3239
  452DPPI   C4A 7000   9.570   9.709   8.265  0.3173  0.0849 -0.2079
  452DPPI   C1B 7001  10.062  10.623   9.783  0.1584 -0.0285 -0.0632
  452DPPI   C2B 7002   9.972  10.646   9.358  0.4261  0.0983  0.0059
  452DPPI   C3B 7003   9.962  10.641   8.899  0.2224  0.3697 -0.1476
  452DPPI   C4B 7004   9.843  10.520   8.515 -0.1237 -0.0255 -0.0719
  453DPPI    C1 7005   9.516  16.959  11.137 -0.0095  0.0558 -0.1311
  453DPPI    C2 7006   9.308  16.837  10.819 -0.0565 -0.1213 -0.0333
  453DPPI    C3 7007   9.120  16.913  11.163  0.0544 -0.4211  0.0969
  453DPPI   PO4 7008   9.755  17.080  10.932 -0.0888  0.0214 -0.0835
  453DPPI   GL1 7009   9.735  17.087  10.536  0.0291 -0.3640 -0.0604
  453DPPI   GL2 7010  10.032  17.271  10.426  0.0176  0.0036  0.0651
  453DPPI   C1A 7011   9.464  17.031  10.149 -0.1648  0.3168 -0.2389
  453DPPI   C2A 7012   9.521  16.868   9.753  0.2306  0.1381  0.2649
  453DPPI   C3A 7013   9.593  16.806   9.343  0.1387 -0.0009  0.2253
  453DPPI   C4A 7014   9.536  16.544   9.022 -0.0347  0.2385  0.0286
  453DPPI   C1B 7015   9.959  17.058  10.056 -0.1396  0.0744  0.0682
  453DPPI   C2B 7016   9.878  17.146   9.595 -0.1537  0.1978 -0.0413
  453DPPI   C3B 7017   9.870  17.152   9.112  0.3099 -0.0235  0.0375
  453DPPI   C4B 7018   9.745  17.587   8.920 -0.2223  0.1659  0.1233
  454DPPI    C1 7019  12.525   0.511  11.363 -0.0935  0.1505  0.2516
  454DPPI    C2 7020  12.563   0.838  11.590 -0.2481  0.1411  0.2921
  454DPPI    C3 7021  12.701   0.486  11.721 -0.3882  0.1245  0.3977
  454DPPI   PO4 7022  12.531   0.737  11.090  0.2381  0.0645  0.2110
  454DPPI   GL1 7023  12.655   0.814  10.668 -0.0589 -0.0363 -0.0229
  454DPPI   GL2 7024  12.423   0.599  10.521 -0.1971  0.0926  0.0541
  454DPPI   C1A 7025  12.627   0.955  10.212 -0.0092  0.1208 -0.1346
  454DPPI   C2A 7026  12.633   0.852   9.787 -0.2011  0.0605 -0.0897
  454DPPI   C3A 7027  12.710   0.866   9.400  0.1285  0.0498 -0.4442
  454DPPI   C4A 7028  12.659   0.776   8.869  0.0456 -0.4736  0.1949
  454DPPI   C1B 7029  12.329   0.528  10.108 -0.3459  0.4047 -0.0505
  454DPPI   C2B 7030  12.291   0.447   9.756 -0.0471 -0.2268  0.0118
  454DPPI   C3B 7031  12.292   0.564   9.316  0.3307  0.1451  0.1281
  454DPPI   C4B 7032  12.174   0.679   8.921 -0.0625  0.1010  0.3296
  455DPPI    C1 7033   0.730   3.533  10.961 -0.0828  0.0432  0.1175
  455DPPI    C2 7034   0.742   3.801  11.258 -0.0691 -0.0204  0.1745
  455DPPI    C3 7035   1.033   3.528  11.222 -0.1597 -0.1221  0.2056
  455DPPI   PO4 7036   0.448   3.587  10.763 -0.0813 -0.1213  0.0465
  455DPPI   GL1 7037   0.270   3.605  10.381 -0.1342  0.0913 -0.3147
  455DPPI   GL2 7038   0.375   3.892  10.371  0.0303  0.1112 -0.3400
  455DPPI   C1A 7039   0.311   3.520   9.897 -0.1636  0.2802 -0.2523
  455DPPI   C2A 7040   0.323   3.516   9.545  0.0653 -0.1517  0.0538
  455DPPI   C3A 7041   0.539   3.349   9.241 -0.0976 -0.0513 -0.0400
  455DPPI   C4A 7042   0.702   3.333   8.781  0.0238  0.3437 -0.1521
  455DPPI   C1B 7043   0.342   4.135  10.087 -0.2061 -0.1336 -0.1941
  455DPPI   C2B 7044   0.326   4.025   9.655  0.1200 -0.0934 -0.0540
  455DPPI   C3B 7045   0.328   3.983   9.293 -0.1207 -0.1970  0.0470
  455DPPI   C4B 7046   0.545   3.817   8.906  0.0945 -0.1021 -0.2236
  456DPPI    C1 7047  10.555   3.223  11.022  0.1097  0.1914 -0.0301
  456DPPI    C2 7048  10.543   3.062  11.388  0.2491  0.1839 -0.0283
  456DPPI    C3 7049  10.337   3.395  11.309  0.1891  0.1648  0.0467
  456DPPI   PO4 7050  10.557   2.959  10.851 -0.0735  0.0017 -0.3268
  456DPPI   GL1 7051  10.607   2.904  10.518 -0.2320  0.2433  0.1766
  456DPPI   GL2 7052  10.434   2.994  10.171  0.2215 -0.1041  0.0959
  456DPPI   C1A 7053  10.910   2.691  10.154  0.0012 -0.0616  0.1703
  456DPPI   C2A 7054  10.972   2.615   9.769 -0.2431 -0.1205  0.0642
  456DPPI   C3A 7055  11.243   2.796   9.388 -0.0315 -0.1335 -0.0287
  456DPPI   C4A 7056  11.402   2.770   8.843 -0.3272  0.1129 -0.1266
  456DPPI   C1B 7057  10.608   2.938   9.694  0.1860 -0.0552 -0.0325
  456DPPI   C2B 7058  10.753   2.889   9.291 -0.3092 -0.1503  0.1095
  456DPPI   C3B 7059  10.913   2.887   8.932  0.0372  0.0580 -0.1832
  456DPPI   C4B 7060  10.936   2.716   8.569 -0.0565  0.0060 -0.2747
  457DPPI    C1 7061   9.629   4.047  10.469 -0.0195  0.0721  0.1958
  457DPPI    C2 7062   9.310   4.245  10.606 -0.2437 -0.0404 -0.1507
  457DPPI    C3 7063   9.458   3.937  10.814 -0.3110  0.0617  0.0511
  457DPPI   PO4 7064   9.730   4.108  10.347 -0.0960  0.2160  0.0241
  457DPPI   GL1 7065   9.970   4.173   9.970 -0.0057  0.1941 -0.1009
  457DPPI   GL2 7066  10.290   4.281   9.988  0.0267  0.2746 -0.2391
  457DPPI   C1A 7067   9.889   3.915   9.710 -0.0321  0.2186  0.0627
  457DPPI   C2A 7068   9.786   3.909   9.296  0.2011 -0.1055 -0.0750
  457DPPI   C3A 7069   9.841   3.780   8.944  0.0607 -0.3165 -0.0124
  457DPPI   C4A 7070   9.820   3.609   8.594 -0.2738 -0.0123  0.0722
  457DPPI   C1B 7071  10.118   4.324   9.531 -0.1744 -0.0039  0.3321
  457DPPI   C2B 7072  10.052   4.227   9.059  0.1111  0.4359  0.1962
  457DPPI   C3B 7073  10.095   4.063   8.636 -0.0043  0.1695 -0.0908
  457DPPI   C4B 7074  10.337   4.103   8.236 -0.1439 -0.1338 -0.2601
  458DPPI    C1 7075   9.480   6.448  10.942  0.2282 -0.0664 -0.2260
  458DPPI    C2 7076   9.243   6.434  10.619 -0.1020  0.1206  0.0029
  458DPPI    C3 7077   9.402   6.782  10.737  0.1549  0.0242 -0.0523
  458DPPI   PO4 7078   9.694   6.181  10.862  0.0420 -0.3509  0.2617
  458DPPI   GL1 7079   9.608   6.082  10.417 -0.1584  0.1583 -0.2104
  458DPPI   GL2 7080   9.512   6.383  10.203  0.2656 -0.0746  0.2203
  458DPPI   C1A 7081   9.744   6.039   9.981  0.1071 -0.0572  0.2412
  458DPPI   C2A 7082   9.802   6.109   9.547 -0.0148 -0.0048 -0.0567
  458DPPI   C3A 7083   9.645   6.258   9.120  0.2177  0.1368  0.1440
  458DPPI   C4A 7084   9.553   6.308   8.668  0.1153 -0.3339 -0.0700
  458DPPI   C1B 7085   9.477   6.608   9.831 -0.0843 -0.0280  0.2580
  458DPPI   C2B 7086   9.672   6.632   9.478  0.1583  0.1790 -0.0522
  458DPPI   C3B 7087   9.585   6.784   9.019  0.2709  0.0151 -0.0422
  458DPPI   C4B 7088   9.494   6.837   8.618 -0.0420 -0.1666 -0.4021
  459DPPI    C1 7089   7.592  16.094  11.117  0.0088  0.1833 -0.0443
  459DPPI    C2 7090   7.348  16.027  11.427  0.0190 -0.0733 -0.0892
  459DPPI    C3 7091   7.735  15.930  11.453  0.0455  0.0171 -0.1402
  459DPPI   PO4 7092   7.539  16.345  11.046  0.0632  0.1457  0.1262
  459DPPI   GL1 7093   7.439  16.570  10.702  0.1648  0.1736 -0.1425
  459DPPI   GL2 7094   7.264  16.347  10.600 -0.0160  0.3595 -0.2406
  459DPPI   C1A 7095   7.547  16.689  10.395  0.1962  0.0934  0.1271
  459DPPI   C2A 7096   7.775  16.499  10.182  0.1349 -0.1632  0.1665
  459DPPI   C3A 7097   7.907  16.307   9.890  0.0500  0.0174  0.0323
  459DPPI   C4A 7098   7.912  16.233   9.565  0.1239  0.0926  0.1796
  459DPPI   C1B 7099   7.376  16.224  10.184  0.0886 -0.0969 -0.0337
  459DPPI   C2B 7100   7.446  16.060   9.861  0.1930  0.1165 -0.0077
  459DPPI   C3B 7101   7.454  15.840   9.526 -0.1260 -0.1810 -0.0628
  459DPPI   C4B 7102   7.337  15.725   9.101  0.1813  0.2302 -0.0030
  460DPPI    C1 7103  17.057   7.097  10.953  0.0461  0.0513  0.2685
  460DPPI    C2 7104  16.682   6.960  10.939  0.1173 -0.1268  0.0149
  460DPPI    C3 7105  16.965   6.748  11.125  0.2300 -0.3387 -0.3858
  460DPPI   PO4 7106  17.117   7.072  10.744 -0.0786 -0.2268  0.1517
  460DPPI   GL1 7107  17.035   7.086  10.356 -0.3285  0.0597 -0.0997
  460DPPI   GL2 7108  16.962   7.480  10.286  0.0375  0.0958  0.3762
  460DPPI   C1A 7109  17.064   6.855   9.948 -0.0986 -0.2013 -0.0533
  460DPPI   C2A 7110  17.047   6.977   9.565  0.0203 -0.3959  0.0168
  460DPPI   C3A 7111  17.222   6.956   9.203 -0.0942  0.0264 -0.0310
  460DPPI   C4A 7112  16.971   6.852   8.836  0.5047  0.1188 -0.3625
  460DPPI   C1B 7113  16.996   7.402   9.818 -0.1718 -0.0061 -0.2157
  460DPPI   C2B 7114  17.092   7.473   9.373  0.0335  0.3013  0.2574
  460DPPI   C3B 7115  17.243   7.405   8.969  0.3240  0.4472 -0.4199
  460DPPI   C4B 7116  17.514   7.457   8.487  0.1562  0.2322 -0.4201
  461DPPI    C1 7117   8.469  15.564  11.012  0.1385 -0.0328 -0.0326
  461DPPI    C2 7118   8.599  15.491  11.383  0.1393 -0.0184 -0.0300
  461DPPI    C3 7119   8.295  15.280  11.232  0.0478  0.0699  0.0296
  461DPPI   PO4 7120   8.711  15.553  10.915 -0.1691 -0.0289 -0.0624
  461DPPI   GL1 7121   8.764  15.472  10.454 -0.0039 -0.1935 -0.0254
  461DPPI   GL2 7122   8.709  15.722  10.453 -0.2344 -0.2347 -0.1067
  461DPPI   C1A 7123   8.928  15.400  10.020 -0.2888  0.1118 -0.0460
  461DPPI   C2A 7124   9.023  15.478   9.680 -0.1321  0.2960 -0.1407
  461DPPI   C3A 7125   9.148  15.347   9.222 -0.2061 -0.0379 -0.1545
  461DPPI   C4A 7126   9.352  15.389   8.787 -0.1752 -0.0256 -0.0005
  461DPPI   C1B 7127   8.465  15.541  10.014  0.2769 -0.2285 -0.0604
  461DPPI   C2B 7128   8.443  15.591   9.513  0.0754 -0.1777 -0.2843
  461DPPI   C3B 7129   8.377  15.780   9.168 -0.1477  0.0722  0.1796
  461DPPI   C4B 7130   8.202  15.717   8.689 -0.1141 -0.2312  0.1468
  462DPPI    C1 7131   9.629  11.659  10.783  0.0205 -0.1271 -0.0777
  462DPPI    C2 7132   9.369  11.710  11.083 -0.0831 -0.1515 -0.1627
  462DPPI    C3 7133   9.762  11.712  11.156 -0.1063 -0.0860 -0.0377
  462DPPI   PO4 7134   9.630  11.907  10.626 -0.0124  0.0035 -0.1551
  462DPPI   GL1 7135   9.360  12.074  10.303 -0.0825  0.1330  0.1821
  462DPPI   GL2 7136   9.487  11.883  10.135 -0.1097 -0.0436 -0.2864
  462DPPI   C1A 7137   9.209  12.206   9.858 -0.2246  0.2167 -0.2581
  462DPPI   C2A 7138   9.165  12.288   9.442 -0.0317 -0.0947  0.0141
  462DPPI   C3A 7139   9.157  12.276   8.924  0.0919 -0.1609  0.0804
  462DPPI   C4A 7140   9.351  12.198   8.518 -0.2336 -0.1743  0.0719
  462DPPI   C1B 7141   9.495  11.837   9.708  0.0683 -0.0526 -0.0786
  462DPPI   C2B 7142   9.468  11.788   9.278  0.3044  0.0551  0.3221
  462DPPI   C3B 7143   9.523  11.779   8.791  0.0169  0.2357 -0.1190
  462DPPI   C4B 7144   9.649  11.722   8.377  0.1928  0.0207  0.0947
  463DPPI    C1 7145   5.375  10.113  10.820 -0.1386 -0.3525  0.0247
  463DPPI    C2 7146   5.276   9.755  10.969 -0.1547 -0.2531  0.2578
  463DPPI    C3 7147   5.521   9.996  11.174 -0.1197 -0.1419  0.0879
  463DPPI   PO4 7148   5.372  10.216  10.589  0.1696 -0.3020 -0.0224
  463DPPI   GL1 7149   5.179   9.992  10.243  0.0850  0.0229 -0.1923
  463DPPI   GL2 7150   5.487   9.877  10.226  0.1084 -0.0437  0.0538
  463DPPI   C1A 7151   4.945  10.155   9.905  0.1501  0.0102  0.0474
  463DPPI   C2A 7152   4.901  10.094   9.488  0.0177  0.1875  0.0240
  463DPPI   C3A 7153   4.809  10.130   9.069 -0.1077  0.2559 -0.1650
  463DPPI   C4A 7154   4.680   9.964   8.774 -0.2588  0.1723 -0.1904
  463DPPI   C1B 7155   5.440   9.870   9.814  0.0273  0.0337  0.1553
  463DPPI   C2B 7156   5.404   9.955   9.393  0.1064 -0.0041 -0.1104
  463DPPI   C3B 7157   5.334   9.962   8.959 -0.0480 -0.1697 -0.2745
  463DPPI   C4B 7158   5.150  10.163   8.665 -0.0676  0.1773  0.1619
  464DPPI    C1 7159  14.248   0.757  10.928  0.1475  0.0182  0.0117
  464DPPI    C2 7160  14.249   1.112  10.744 -0.0085 -0.0189 -0.0619
  464DPPI    C3 7161  13.913   0.895  10.760  0.0550 -0.1081  0.0902
  464DPPI   PO4 7162  14.409   0.573  10.763 -0.1591  0.0470 -0.0980
  464DPPI   GL1 7163  14.569   0.343  10.546  0.1099  0.1386 -0.1285
  464DPPI   GL2 7164  14.855   0.259  10.336 -0.1548 -0.1376  0.0099
  464DPPI   C1A 7165  14.411   0.310  10.060 -0.3101 -0.0088 -0.0928
  464DPPI   C2A 7166  14.621   0.253   9.665 -0.0213 -0.1518 -0.0653
  464DPPI   C3A 7167  14.443   0.159   9.288 -0.0166  0.1488  0.0044
  464DPPI   C4A 7168  14.671   0.121   8.900  0.0025  0.0805  0.2952
  464DPPI   C1B 7169  15.080   0.080   9.996 -0.0527  0.4313  0.0055
  464DPPI   C2B 7170  15.138   0.074   9.510  0.1748 -0.2695 -0.2535
  464DPPI   C3B 7171  14.952  -0.108   9.208 -0.1575 -0.0323 -0.2054
  464DPPI   C4B 7172  15.098  -0.258   8.751 -0.0426 -0.0389  0.1892
  465DPPI    C1 7173   6.326  13.081  10.684 -0.0325  0.1532  0.0965
  465DPPI    C2 7174   6.524  13.083  11.032 -0.2838  0.3371  0.2422
  465DPPI    C3 7175   6.558  13.393  10.781  0.1279  0.0772 -0.0370
  465DPPI   PO4 7176   6.076  13.040  10.623 -0.0842 -0.1251 -0.2652
  465DPPI   GL1 7177   5.855  13.069  10.293  0.2308  0.1181  0.3813
  465DPPI   GL2 7178   6.059  13.274  10.194 -0.2402 -0.0055 -0.1512
  465DPPI   C1A 7179   5.835  12.904   9.952 -0.2336 -0.0177 -0.1110
  465DPPI   C2A 7180   5.765  12.971   9.542  0.0403 -0.0306  0.0014
  465DPPI   C3A 7181   5.639  12.930   9.129 -0.2149  0.2854  0.3286
  465DPPI   C4A 7182   5.293  12.810   8.902  0.0495  0.2301 -0.2710
  465DPPI   C1B 7183   6.197  13.287   9.742 -0.0510  0.2340  0.0031
  465DPPI   C2B 7184   6.643  13.251   9.654 -0.3452 -0.0516  0.1254
  465DPPI   C3B 7185   6.959  13.319   9.385 -0.1982 -0.0535  0.1176
  465DPPI   C4B 7186   7.216  13.285   9.090 -0.1517  0.0933 -0.0862
  466DPPI    C1 7187   2.653   8.654  10.595 -0.2113  0.0177  0.0243
  466DPPI    C2 7188   2.261   8.682  10.669 -0.1761 -0.0369  0.2383
  466DPPI    C3 7189   2.526   8.781  10.952 -0.0367 -0.2094  0.1698
  466DPPI   PO4 7190   2.628   8.438  10.467 -0.2136  0.1219 -0.1041
  466DPPI   GL1 7191   2.918   8.256  10.202 -0.0842 -0.0351  0.0009
  466DPPI   GL2 7192   3.032   8.493  10.122 -0.2119  0.0684 -0.0785
  466DPPI   C1A 7193   2.766   8.103   9.843  0.0398  0.0864 -0.0470
  466DPPI   C2A 7194   2.619   8.084   9.445  0.1523  0.2307 -0.0980
  466DPPI   C3A 7195   2.580   8.108   9.009 -0.4453 -0.0555 -0.2140
  466DPPI   C4A 7196   2.573   8.198   8.615 -0.0796 -0.1330  0.3722
  466DPPI   C1B 7197   2.909   8.530   9.675 -0.1020 -0.0220  0.3226
  466DPPI   C2B 7198   2.839   8.569   9.263 -0.4060 -0.1238 -0.1297
  466DPPI   C3B 7199   2.616   8.636   8.865 -0.1025 -0.2772 -0.1050
  466DPPI   C4B 7200   2.297   8.867   8.700  0.1352 -0.3749 -0.0986
  467DPPI    C1 7201  14.369  13.913  10.676  0.1359 -0.1432  0.0139
  467DPPI    C2 7202  14.350  13.704  11.016  0.1639  0.1749  0.2153
  467DPPI    C3 7203  14.705  13.782  10.848  0.1397 -0.1377  0.0106
  467DPPI   PO4 7204  14.375  14.167  10.643 -0.3111  0.0538 -0.0272
  467DPPI   GL1 7205  14.655  14.174  10.292 -0.1700  0.2208  0.3074
  467DPPI   GL2 7206  14.799  14.515  10.304  0.0842  0.0828 -0.2267
  467DPPI   C1A 7207  14.505  14.039   9.842  0.3870 -0.0971 -0.2853
  467DPPI   C2A 7208  14.436  14.271   9.409 -0.3027 -0.0165 -0.0818
  467DPPI   C3A 7209  14.433  14.282   8.982  0.1432 -0.0421  0.1091
  467DPPI   C4A 7210  14.576  14.059   8.529  0.0093  0.2443  0.0606
  467DPPI   C1B 7211  14.708  14.505   9.841 -0.1283  0.1027 -0.0228
  467DPPI   C2B 7212  14.685  14.678   9.409 -0.2194 -0.0623  0.0227
  467DPPI   C3B 7213  14.773  14.737   8.938  0.1994  0.0050  0.0127
  467DPPI   C4B 7214  14.626  14.546   8.571  0.3095  0.1209  0.0577
  468DPPI    C1 7215  13.585  11.252  11.209 -0.0195 -0.0242  0.2323
  468DPPI    C2 7216  13.949  11.269  11.375  0.0153 -0.2068  0.1780
  468DPPI    C3 7217  13.623  11.303  11.604  0.0652  0.1439  0.2034
  468DPPI   PO4 7218  13.682  11.290  10.970  0.2653 -0.0306  0.0494
  468DPPI   GL1 7219  13.624  11.271  10.566 -0.0857  0.0193  0.1839
  468DPPI   GL2 7220  13.569  11.546  10.455 -0.2345  0.3737 -0.0151
  468DPPI   C1A 7221  13.354  11.020  10.248 -0.1001 -0.0233  0.0477
  468DPPI   C2A 7222  13.369  11.095   9.739  0.1017 -0.1679 -0.0114
  468DPPI   C3A 7223  13.406  11.231   9.312 -0.3238 -0.0574  0.0824
  468DPPI   C4A 7224  13.177  11.320   8.934  0.3459  0.3557 -0.1933
  468DPPI   C1B 7225  13.618  11.438  10.009 -0.1430 -0.1534 -0.3799
  468DPPI   C2B 7226  13.559  11.592   9.678 -0.0549 -0.2937 -0.0404
  468DPPI   C3B 7227  13.574  11.705   9.168  0.1046 -0.0089  0.2541
  468DPPI   C4B 7228  13.357  11.763   8.771 -0.0604 -0.0944  0.0404
  469DPPI    C1 7229  11.274  13.380  11.291 -0.0351  0.0368  0.0595
  469DPPI    C2 7230  10.974  13.451  11.547 -0.1132 -0.1147  0.0108
  469DPPI    C3 7231  11.333  13.339  11.685 -0.0378  0.2001  0.0777
  469DPPI   PO4 7232  11.208  13.568  11.056 -0.1793 -0.2088 -0.0898
  469DPPI   GL1 7233  11.361  13.686  10.702  0.1439 -0.0243  0.1114
  469DPPI   GL2 7234  11.617  13.746  10.594 -0.0069 -0.0713 -0.0713
  469DPPI   C1A 7235  11.189  13.748  10.329 -0.0430 -0.3484  0.3901
  469DPPI   C2A 7236  11.122  13.820   9.884  0.0651 -0.1617  0.2446
  469DPPI   C3A 7237  11.182  13.825   9.517  0.5748  0.2229 -0.0059
  469DPPI   C4A 7238  11.035  13.656   9.200 -0.3751 -0.0686  0.2066
  469DPPI   C1B 7239  11.723  13.697  10.204  0.0021  0.0149 -0.0676
  469DPPI   C2B 7240  11.647  13.680   9.836 -0.1965  0.1898 -0.0245
  469DPPI   C3B 7241  11.701  13.697   9.496 -0.2472  0.0845 -0.1523
  469DPPI   C4B 7242  11.583  13.829   9.058  0.3716  0.1258  0.0408
  470DPPI    C1 7243  11.448   7.333  10.707 -0.0722 -0.1439  0.0020
  470DPPI    C2 7244  11.647   7.105  10.969 -0.1077 -0.3721 -0.1665
  470DPPI    C3 7245  11.445   7.427  11.096  0.0817 -0.3364  0.0510
  470DPPI   PO4 7246  11.513   7.209  10.452 -0.1602 -0.1437 -0.1538
  470DPPI   GL1 7247  11.690   7.085  10.066 -0.1746  0.0004  0.0718
  470DPPI   GL2 7248  11.836   7.375  10.109  0.0746  0.2946 -0.0044
  470DPPI   C1A 7249  11.493   7.073   9.664  0.1852  0.0160  0.1476
  470DPPI   C2A 7250  11.508   6.873   9.330 -0.0432 -0.0584  0.0318
  470DPPI   C3A 7251  11.451   6.850   8.974  0.1844  0.0887  0.3388
  470DPPI   C4A 7252  11.590   7.023   8.589 -0.0941  0.3042  0.2240
  470DPPI   C1B 7253  11.850   7.736   9.809  0.2514 -0.1159 -0.2483
  470DPPI   C2B 7254  11.793   7.868   9.396 -0.2100 -0.1398  0.1128
  470DPPI   C3B 7255  11.985   7.639   9.109 -0.0616  0.0080 -0.0410
  470DPPI   C4B 7256  11.754   7.491   8.750  0.2624 -0.0458  0.0118
  471DPPI    C1 7257   9.760  15.381  11.083  0.0752 -0.1433  0.1472
  471DPPI    C2 7258   9.581  15.080  10.891 -0.1339  0.0173  0.0865
  471DPPI    C3 7259   9.643  15.057  11.285 -0.1971 -0.0828  0.0911
  471DPPI   PO4 7260   9.581  15.578  10.986 -0.0810 -0.3366 -0.1407
  471DPPI   GL1 7261   9.528  15.621  10.481 -0.1951 -0.1158  0.0717
  471DPPI   GL2 7262   9.229  15.428  10.386 -0.0880  0.0739  0.2492
  471DPPI   C1A 7263   9.587  15.608  10.046  0.0588 -0.2829  0.1854
  471DPPI   C2A 7264   9.949  15.415   9.873 -0.1753 -0.1959  0.0178
  471DPPI   C3A 7265   9.984  15.359   9.405  0.0192 -0.0385  0.1971
  471DPPI   C4A 7266   9.875  15.385   8.943  0.2898 -0.5363  0.1527
  471DPPI   C1B 7267   9.452  15.108  10.386  0.1161  0.2592  0.0504
  471DPPI   C2B 7268   9.789  14.944  10.036 -0.4355  0.0036  0.0581
  471DPPI   C3B 7269   9.762  14.929   9.558  0.0151  0.2385  0.2191
  471DPPI   C4B 7270   9.547  15.067   9.137 -0.2751 -0.1107 -0.0908
  472DPPI    C1 7271   2.127   0.706  11.197  0.1898  0.1419  0.1754
  472DPPI    C2 7272   1.891   0.486  11.434  0.3336 -0.1343  0.0672
  472DPPI    C3 7273   2.094   0.797  11.585 -0.1753  0.1744  0.1408
  472DPPI   PO4 7274   1.971   0.699  10.928  0.0565  0.1028  0.2846
  472DPPI   GL1 7275   1.814   0.633  10.520 -0.1632  0.2119  0.0003
  472DPPI   GL2 7276   1.511   0.595  10.396  0.0966  0.0703 -0.0057
  472DPPI   C1A 7277   1.990   0.688  10.209 -0.1258 -0.1625 -0.1172
  472DPPI   C2A 7278   2.008   0.712   9.757 -0.0133  0.6015  0.3124
  472DPPI   C3A 7279   2.115   0.798   9.383  0.1892 -0.3278 -0.2743
  472DPPI   C4A 7280   2.165   0.669   8.941  0.1421 -0.0186  0.2361
  472DPPI   C1B 7281   1.435   0.722   9.976  0.0368 -0.0137 -0.2262
  472DPPI   C2B 7282   1.498   0.730   9.580  0.0979  0.0846  0.0413
  472DPPI   C3B 7283   1.672   0.865   9.070  0.0727  0.1392  0.0853
  472DPPI   C4B 7284   1.914   1.045   8.662  0.1304 -0.0200 -0.1589
  473PYPI    C1 7285  11.097   7.039  10.778  0.0643  0.2502 -0.0373
  473PYPI    C2 7286  10.904   7.380  10.696 -0.2909  0.0176 -0.1968
  473PYPI    C3 7287  10.937   7.254  11.074 -0.2019  0.2010 -0.1424
  473PYPI   PO4 7288  10.969   6.759  10.546  0.1832  0.0698 -0.1303
  473PYPI   GL1 7289  10.850   6.475  10.226  0.0264  0.1106 -0.1065
  473PYPI   GL2 7290  10.624   6.130  10.213  0.4115  0.1847 -0.0112
  473PYPI   C1A 7291  11.127   6.212   9.953 -0.1487 -0.0462  0.0552
  473PYPI   C2A 7292  11.377   6.031   9.644  0.1289 -0.2292  0.1558
  473PYPI   D3A 7293  11.624   6.324   9.285  0.1738 -0.0148 -0.0675
  473PYPI   C4A 7294  11.540   6.152   8.863 -0.0268  0.0321 -0.0309
  473PYPI   C1B 7295  10.700   6.131   9.746  0.1451 -0.0234 -0.1396
  473PYPI   C2B 7296  10.905   6.002   9.510  0.0315  0.0998  0.1188
  473PYPI   C3B 7297  11.201   6.009   9.188  0.2219 -0.0672  0.1560
  473PYPI   C4B 7298  11.675   5.834   9.241  0.0982 -0.0034  0.3690
  474PYPI    C1 7299  10.079  11.306  10.952  0.0451  0.3320  0.2141
  474PYPI    C2 7300  10.466  11.397  10.994  0.1156  0.1435 -0.0043
  474PYPI    C3 7301  10.202  11.516  11.269  0.3427  0.1868  0.1990
  474PYPI   PO4 7302  10.013  11.340  10.665 -0.2359 -0.0209  0.1036
  474PYPI   GL1 7303  10.101  11.228  10.303 -0.1109  0.3685 -0.0405
  474PYPI   GL2 7304   9.898  10.962  10.128 -0.0243  0.1241  0.1971
  474PYPI   C1A 7305  10.274  11.080   9.863  0.1514 -0.1774 -0.0985
  474PYPI   C2A 7306  10.209  11.107   9.538  0.0203 -0.1072  0.2334
  474PYPI   D3A 7307  10.176  11.037   9.196 -0.1110  0.1935  0.0168
  474PYPI   C4A 7308  10.458  10.955   8.880  0.2942 -0.1535  0.1401
  474PYPI   C1B 7309   9.740  10.976   9.684 -0.0488  0.3511  0.0382
  474PYPI   C2B 7310   9.672  11.058   9.183 -0.0376  0.1549 -0.0905
  474PYPI   C3B 7311   9.557  10.997   8.744  0.1295  0.0008 -0.0316
  474PYPI   C4B 7312   9.392  10.780   8.459 -0.1930 -0.0185 -0.2546
  475PYPI    C1 7313  13.357  16.729  11.072 -0.0520  0.0195 -0.2505
  475PYPI    C2 7314  12.968  16.774  11.154 -0.0263  0.1751 -0.2127
  475PYPI    C3 7315  13.242  16.844  11.437  0.0272  0.0198 -0.2255
  475PYPI   PO4 7316  13.440  16.875  10.816  0.1933  0.0962 -0.0193
  475PYPI   GL1 7317  13.377  17.199  10.589  0.1620  0.1175  0.2181
  475PYPI   GL2 7318  13.489  17.451  10.629  0.0485  0.1902 -0.3098
  475PYPI   C1A 7319  13.337  17.150  10.090 -0.1001  0.2075  0.1363
  475PYPI   C2A 7320  13.359  17.147   9.627 -0.1633  0.0355 -0.3732
  475PYPI   D3A 7321  13.212  17.098   9.196  0.0756  0.1796  0.3356
  475PYPI   C4A 7322  13.127  17.280   8.834  0.0500  0.2153  0.1966
  475PYPI   C1B 7323  13.626  17.536  10.229 -0.1417  0.0646 -0.2363
  475PYPI   C2B 7324  13.607  17.526   9.817 -0.1234  0.0162  0.2721
  475PYPI   C3B 7325  13.550  17.543   9.350 -0.1058 -0.2485  0.0659
  475PYPI   C4B 7326  13.562  17.614   8.916  0.1567 -0.2025 -0.1290
  476PYPI    C1 7327  11.252  16.520  11.239 -0.0211  0.1099 -0.0398
  476PYPI    C2 7328  10.978  16.380  11.494 -0.0967  0.1667 -0.0890
  476PYPI    C3 7329  11.317  16.542  11.633  0.0059 -0.0907 -0.0317
  476PYPI   PO4 7330  11.315  16.345  10.998  0.1835  0.4113 -0.3472
  476PYPI   GL1 7331  11.571  16.126  10.636  0.2459  0.1294 -0.0666
  476PYPI   GL2 7332  11.945  15.921  10.582  0.3706 -0.0020  0.1539
  476PYPI   C1A 7333  11.441  16.011  10.186 -0.0850 -0.1340 -0.1728
  476PYPI   C2A 7334  11.248  15.979   9.784  0.0736  0.1310 -0.3121
  476PYPI   D3A 7335  11.394  16.019   9.407 -0.1692 -0.2588  0.0488
  476PYPI   C4A 7336  11.197  15.919   9.098 -0.2127 -0.1041 -0.1590
  476PYPI   C1B 7337  11.943  15.823  10.172  0.1475 -0.1961 -0.1282
  476PYPI   C2B 7338  11.808  15.938   9.791  0.2688 -0.0354 -0.1428
  476PYPI   C3B 7339  11.821  15.892   9.282  0.0296 -0.2546  0.0674
  476PYPI   C4B 7340  11.773  15.922   8.938  0.3086  0.0558 -0.2255
  477PYPI    C1 7341   3.708  11.032  10.831  0.1855 -0.1921  0.0275
  477PYPI    C2 7342   3.957  11.050  11.144 -0.0714  0.1205  0.2213
  477PYPI    C3 7343   3.601  10.872  11.182 -0.0016 -0.0651  0.0295
  477PYPI   PO4 7344   3.875  10.982  10.580 -0.0850 -0.0209  0.0267
  477PYPI   GL1 7345   3.765  11.060  10.172 -0.1098 -0.1160 -0.1916
  477PYPI   GL2 7346   3.920  11.368  10.280  0.1441 -0.1625  0.0267
  477PYPI   C1A 7347   3.558  11.145   9.770 -0.0482  0.0617 -0.0011
  477PYPI   C2A 7348   3.523  11.317   9.407  0.1138  0.0893 -0.1109
  477PYPI   D3A 7349   3.276  11.146   9.004 -0.0558  0.0942 -0.0332
  477PYPI   C4A 7350   3.299  10.962   8.692  0.1318 -0.1191  0.0360
  477PYPI   C1B 7351   4.027  11.245   9.832  0.0506 -0.0803  0.3375
  477PYPI   C2B 7352   4.028  11.312   9.386 -0.1318  0.0200 -0.2923
  477PYPI   C3B 7353   3.861  11.198   9.047 -0.0748  0.2663 -0.1228
  477PYPI   C4B 7354   3.583  10.797   9.049  0.3347 -0.1153  0.0557
  478PYPI    C1 7355  12.586  17.073  10.951  0.2586 -0.0171  0.1267
  478PYPI    C2 7356  12.937  17.260  10.910  0.0062  0.3581 -0.4405
  478PYPI    C3 7357  12.596  17.458  10.843 -0.2995 -0.1257 -0.3606
  478PYPI   PO4 7358  12.634  16.822  10.776  0.0979 -0.0652  0.0744
  478PYPI   GL1 7359  12.630  16.800  10.422  0.0190 -0.0259  0.1783
  478PYPI   GL2 7360  12.778  17.123  10.399 -0.3379  0.0068  0.0889
  478PYPI   C1A 7361  12.472  16.815  10.055 -0.0263 -0.0284 -0.2251
  478PYPI   C2A 7362  12.446  16.804   9.602  0.3232  0.0945 -0.1287
  478PYPI   D3A 7363  12.346  16.763   9.121 -0.0974 -0.0045 -0.1148
  478PYPI   C4A 7364  12.433  16.991   8.649 -0.0779  0.4052 -0.2281
  478PYPI   C1B 7365  12.782  17.196   9.960 -0.1336  0.0291 -0.0042
  478PYPI   C2B 7366  12.738  17.166   9.498 -0.1878 -0.0326 -0.0784
  478PYPI   C3B 7367  12.664  17.419   9.253  0.2450 -0.2546 -0.0593
  478PYPI   C4B 7368  12.552  17.505   8.817 -0.1025 -0.0792  0.1386
  479PYPI    C1 7369   8.842  17.598  10.882  0.0641 -0.3767 -0.0018
  479PYPI    C2 7370   9.070  17.445  11.173  0.2281 -0.1461 -0.0062
  479PYPI    C3 7371   8.873  17.788  11.233 -0.0397 -0.2915 -0.0380
  479PYPI   PO4 7372   8.838  17.417  10.660  0.1549 -0.0049 -0.1578
  479PYPI   GL1 7373   9.003  17.113  10.383  0.2281 -0.1152  0.1369
  479PYPI   GL2 7374   9.211  17.386  10.279 -0.1613 -0.2123 -0.1591
  479PYPI   C1A 7375   9.068  17.049   9.881 -0.0694  0.3454  0.0135
  479PYPI   C2A 7376   9.122  17.037   9.416  0.1229 -0.0175  0.3822
  479PYPI   D3A 7377   9.188  16.972   9.010 -0.0697  0.1652  0.4793
  479PYPI   C4A 7378   9.021  17.303   8.738  0.0456  0.0138  0.1587
  479PYPI   C1B 7379   8.953  17.512   9.983  0.1078 -0.0160  0.0388
  479PYPI   C2B 7380   8.753  17.347   9.686 -0.0839 -0.1805  0.1791
  479PYPI   C3B 7381   8.596  17.382   9.234  0.1597  0.0029 -0.2956
  479PYPI   C4B 7382   8.672  17.004   8.939 -0.1903 -0.2870 -0.0187
  480PYPI    C1 7383   4.435   0.397  11.108  0.0682 -0.1189 -0.0710
  480PYPI    C2 7384   4.554   0.577  11.445  0.0718 -0.0448 -0.1114
  480PYPI    C3 7385   4.523   0.788  11.107 -0.0600 -0.0897 -0.1277
  480PYPI   PO4 7386   4.523   0.163  10.986 -0.1643 -0.2176 -0.0842
  480PYPI   GL1 7387   4.612   0.144  10.673 -0.1834 -0.0809 -0.1188
  480PYPI   GL2 7388   4.860   0.052  10.470 -0.0696 -0.4150 -0.1639
  480PYPI   C1A 7389   4.496   0.276  10.247  0.0782  0.2424 -0.1544
  480PYPI   C2A 7390   4.500   0.246   9.843 -0.0237 -0.3763 -0.1620
  480PYPI   D3A 7391   4.251   0.159   9.467  0.0909 -0.2549 -0.3107
  480PYPI   C4A 7392   3.854   0.236   9.689 -0.0517  0.1007  0.2529
  480PYPI   C1B 7393   4.981   0.326  10.173 -0.0757  0.2346 -0.1839
  480PYPI   C2B 7394   5.003   0.498   9.809  0.0075 -0.5055  0.2856
  480PYPI   C3B 7395   5.222   0.465   9.433 -0.1340  0.0730  0.3539
  480PYPI   C4B 7396   5.434   0.521   8.986  0.2170 -0.0615 -0.1426
  481PYPI    C1 7397  10.900   4.793  10.615 -0.0555 -0.0144  0.1093
  481PYPI    C2 7398  10.881   5.051  10.920  0.2336 -0.1063  0.2091
  481PYPI    C3 7399  10.689   4.701  10.942 -0.0515  0.0416  0.1278
  481PYPI   PO4 7400  10.829   4.961  10.401  0.1755  0.0266  0.0153
  481PYPI   GL1 7401  10.613   5.289  10.192 -0.0644 -0.1922  0.0811
  481PYPI   GL2 7402  10.663   5.593  10.215  0.2050  0.1729  0.1675
  481PYPI   C1A 7403  10.317   5.295   9.766  0.2424  0.0078 -0.1992
  481PYPI   C2A 7404  10.242   5.376   9.340  0.3188 -0.0086 -0.1445
  481PYPI   D3A 7405  10.335   5.583   8.942 -0.0104 -0.0403  0.1811
  481PYPI   C4A 7406  10.057   5.579   8.534  0.0707  0.2482 -0.0467
  481PYPI   C1B 7407  10.774   5.578   9.761 -0.0997 -0.1609 -0.2188
  481PYPI   C2B 7408  10.712   5.554   9.335  0.0416  0.1913 -0.2232
  481PYPI   C3B 7409  10.743   5.901   9.055 -0.1132 -0.2984 -0.0976
  481PYPI   C4B 7410  10.596   6.282   9.183  0.1243  0.0967 -0.0061
  482PYPI    C1 7411   2.996   8.081  10.687  0.1873 -0.2006 -0.0762
  482PYPI    C2 7412   2.848   8.343  10.950  0.1154  0.1184 -0.4260
  482PYPI    C3 7413   2.886   7.958  11.052  0.2740  0.2675  0.1154
  482PYPI   PO4 7414   3.249   8.086  10.617  0.2620 -0.0200  0.1089
  482PYPI   GL1 7415   3.383   8.102  10.294 -0.0094  0.1085 -0.2727
  482PYPI   GL2 7416   3.698   7.948  10.221 -0.0626  0.4458 -0.2842
  482PYPI   C1A 7417   3.338   7.847   9.830 -0.2066  0.1775  0.1193
  482PYPI   C2A 7418   3.134   8.050   9.465  0.0721  0.1727 -0.2274
  482PYPI   D3A 7419   3.251   8.324   9.041  0.2024 -0.1245 -0.0107
  482PYPI   C4A 7420   3.079   8.418   8.755  0.1360  0.2268 -0.3198
  482PYPI   C1B 7421   3.823   8.036   9.851 -0.1298  0.2647  0.0586
  482PYPI   C2B 7422   4.069   8.348   9.441  0.3059 -0.0399 -0.1789
  482PYPI   C3B 7423   4.256   8.215   9.041 -0.0998 -0.2728 -0.2262
  482PYPI   C4B 7424   4.094   8.220   8.614  0.0354 -0.1987  0.0342
  483PYPI    C1 7425   2.574   0.567  11.338 -0.0461 -0.0790 -0.0825
  483PYPI    C2 7426   2.733   0.247  11.158 -0.1453 -0.0909 -0.1498
  483PYPI    C3 7427   2.421   0.203  11.405 -0.1391 -0.0499 -0.1347
  483PYPI   PO4 7428   2.642   0.770  11.169  0.1803 -0.1949 -0.5367
  483PYPI   GL1 7429   2.829   0.796  10.731 -0.1296  0.1067  0.3877
  483PYPI   GL2 7430   2.756   0.567  10.502  0.0080 -0.0076 -0.0460
  483PYPI   C1A 7431   2.782   1.126  10.365 -0.2062  0.2537 -0.0860
  483PYPI   C2A 7432   2.691   1.199   9.972 -0.4881 -0.0297  0.0985
  483PYPI   D3A 7433   2.864   1.096   9.783  0.5298 -0.0102  0.3396
  483PYPI   C4A 7434   3.049   0.861  10.004 -0.0962  0.2516 -0.1983
  483PYPI   C1B 7435   2.522   0.743  10.153  0.0092 -0.1099  0.0633
  483PYPI   C2B 7436   2.469   0.805   9.741 -0.0479  0.0105  0.5320
  483PYPI   C3B 7437   2.630   0.761   9.305 -0.2211 -0.1940 -0.1565
  483PYPI   C4B 7438   2.718   0.615   8.873  0.0024 -0.1726  0.0113
  484PYPI    C1 7439   8.935  10.402  10.818  0.2574  0.0444  0.0388
  484PYPI    C2 7440   8.914  10.113  11.093 -0.2216  0.1636  0.1379
  484PYPI    C3 7441   9.193  10.398  11.123  0.1519 -0.1913  0.1277
  484PYPI   PO4 7442   8.768  10.393  10.698  0.2418 -0.0275 -0.1887
  484PYPI   GL1 7443   8.513  10.710  10.291  0.0244  0.0615 -0.1402
  484PYPI   GL2 7444   8.426  10.397  10.230 -0.0458  0.1448  0.1436
  484PYPI   C1A 7445   8.659  10.681   9.933  0.3842 -0.1707  0.0542
  484PYPI   C2A 7446   8.678  10.744   9.563  0.1933  0.3768 -0.1833
  484PYPI   D3A 7447   8.670  10.835   9.129  0.1809 -0.2337 -0.1510
  484PYPI   C4A 7448   8.496  10.656   8.732  0.0888  0.2678  0.2818
  484PYPI   C1B 7449   8.481  10.197   9.852 -0.0282 -0.0660 -0.1651
  484PYPI   C2B 7450   8.425  10.270   9.408 -0.0691 -0.0214  0.0086
  484PYPI   C3B 7451   8.334  10.300   9.043  0.1623 -0.0352 -0.1782
  484PYPI   C4B 7452   8.171  10.208   8.657  0.1775  0.1857 -0.1988
  485PYPI    C1 7453  11.302   5.323  10.866 -0.0656 -0.1186  0.0380
  485PYPI    C2 7454  11.428   5.015  11.089 -0.2232  0.0516  0.3698
  485PYPI    C3 7455  11.457   5.389  11.229 -0.0083  0.1949 -0.0405
  485PYPI   PO4 7456  11.298   5.219  10.599 -0.1586  0.2903 -0.0489
  485PYPI   GL1 7457  11.137   5.375  10.199 -0.0520 -0.0627  0.1739
  485PYPI   GL2 7458  11.045   5.094  10.008  0.0344 -0.0802  0.4165
  485PYPI   C1A 7459  11.279   5.560   9.834  0.5820 -0.1492 -0.3918
  485PYPI   C2A 7460  11.305   5.589   9.470  0.0343  0.0489  0.0678
  485PYPI   D3A 7461  11.296   5.563   9.024  0.4469 -0.1621  0.1228
  485PYPI   C4A 7462  11.106   5.868   8.657 -0.1608  0.0883 -0.3082
  485PYPI   C1B 7463  10.925   5.134   9.605  0.1198 -0.1122 -0.0536
  485PYPI   C2B 7464  11.009   5.092   9.156  0.1209 -0.1843 -0.3024
  485PYPI   C3B 7465  10.771   5.304   8.815  0.1286  0.2830 -0.4707
  485PYPI   C4B 7466  10.735   5.519   8.428 -0.0132  0.0965 -0.0267
  486PYPI    C1 7467   7.825   4.510  10.966 -0.0504 -0.1880 -0.0880
  486PYPI    C2 7468   8.101   4.508  11.255 -0.1623 -0.3887  0.0200
  486PYPI    C3 7469   7.774   4.734  11.293 -0.0571 -0.2200 -0.0669
  486PYPI   PO4 7470   7.821   4.294  10.916  0.1206 -0.1287 -0.2283
  486PYPI   GL1 7471   7.764   4.157  10.470  0.4664  0.0371  0.1013
  486PYPI   GL2 7472   7.774   3.880  10.244  0.0132 -0.2137 -0.0269
  486PYPI   C1A 7473   7.481   4.243  10.126  0.2864  0.0164  0.1462
  486PYPI   C2A 7474   7.299   4.189   9.729 -0.0007  0.1331 -0.2086
  486PYPI   D3A 7475   7.312   4.000   9.365  0.0561 -0.2295 -0.0332
  486PYPI   C4A 7476   6.950   3.610   9.247 -0.2131  0.2419 -0.0676
  486PYPI   C1B 7477   7.768   3.859   9.766 -0.3351 -0.1214  0.1036
  486PYPI   C2B 7478   7.748   3.743   9.344 -0.1393 -0.1368  0.1435
  486PYPI   C3B 7479   7.701   3.608   8.976 -0.0158  0.3411  0.0133
  486PYPI   C4B 7480   7.720   3.319   8.579 -0.2267 -0.0204 -0.3848
  487PYPI    C1 7481  12.211   4.601  11.047 -0.0139 -0.1070 -0.1965
  487PYPI    C2 7482  12.373   4.304  11.260  0.1805  0.1310 -0.0059
  487PYPI    C3 7483  12.236   4.631  11.445  0.1375  0.2411 -0.2289
  487PYPI   PO4 7484  12.356   4.643  10.827  0.2161  0.2136  0.0846
  487PYPI   GL1 7485  12.568   4.598  10.375  0.0794  0.2822 -0.0230
  487PYPI   GL2 7486  12.661   4.793  10.278  0.1585 -0.2325  0.2729
  487PYPI   C1A 7487  12.557   4.330  10.002  0.1231 -0.1920 -0.2510
  487PYPI   C2A 7488  12.534   4.465   9.533  0.1903 -0.0383 -0.0242
  487PYPI   D3A 7489  12.437   4.550   9.120 -0.0710  0.0023 -0.0704
  487PYPI   C4A 7490  12.510   4.897   8.945 -0.3678 -0.0804 -0.0129
  487PYPI   C1B 7491  12.440   4.995   9.914 -0.1514  0.2782 -0.1134
  487PYPI   C2B 7492  12.518   4.998   9.465 -0.1780  0.1546  0.0053
  487PYPI   C3B 7493  12.403   5.418   9.099 -0.0510  0.0698  0.1070
  487PYPI   C4B 7494  12.488   5.569   8.725 -0.0886 -0.0982  0.1624
  488PYPI    C1 7495   8.190   5.853  10.997  0.1953  0.2166  0.0104
  488PYPI    C2 7496   8.034   5.741  11.348  0.1840 -0.1642 -0.1107
  488PYPI    C3 7497   8.262   6.070  11.325  0.0139 -0.0192  0.2099
  488PYPI   PO4 7498   7.942   5.858  10.811  0.3741 -0.1104  0.1844
  488PYPI   GL1 7499   7.794   5.819  10.405  0.0776 -0.0327 -0.3831
  488PYPI   GL2 7500   7.790   6.182  10.382  0.1147  0.2198 -0.0483
  488PYPI   C1A 7501   7.842   5.497  10.155 -0.1591 -0.2314  0.0422
  488PYPI   C2A 7502   7.819   5.314   9.802  0.2296 -0.2849  0.1788
  488PYPI   D3A 7503   8.036   5.199   9.454  0.1272 -0.1225  0.0318
  488PYPI   C4A 7504   8.021   5.449   9.130 -0.0143  0.1501 -0.2719
  488PYPI   C1B 7505   7.773   5.961   9.909 -0.2172 -0.0920 -0.0782
  488PYPI   C2B 7506   7.861   5.829   9.521  0.2782 -0.1485  0.1097
  488PYPI   C3B 7507   7.944   5.913   9.017 -0.1393  0.0562  0.1032
  488PYPI   C4B 7508   8.223   5.985   8.615 -0.1193 -0.2450  0.0616
  489PYPI    C1 7509  14.464   6.291  11.005 -0.0507 -0.0683  0.1449
  489PYPI    C2 7510  14.428   5.940  11.193 -0.0346 -0.0515  0.1795
  489PYPI    C3 7511  14.459   6.277  11.405  0.0813 -0.0419  0.1478
  489PYPI   PO4 7512  14.282   6.336  10.756 -0.2533 -0.2919  0.0300
  489PYPI   GL1 7513  14.482   6.316  10.354  0.1387  0.0510 -0.4404
  489PYPI   GL2 7514  14.326   6.686  10.373  0.2344 -0.0203  0.2097
  489PYPI   C1A 7515  14.697   6.171   9.980 -0.1631 -0.1148 -0.2573
  489PYPI   C2A 7516  14.583   6.125   9.519  0.1984  0.1739  0.1338
  489PYPI   D3A 7517  14.843   6.250   9.207 -0.1144  0.1159  0.2110
  489PYPI   C4A 7518  15.218   6.353   9.150 -0.1332 -0.0848 -0.0389
  489PYPI   C1B 7519  14.558   6.676   9.966  0.2874 -0.0152  0.0207
  489PYPI   C2B 7520  14.566   6.604   9.502  0.2387 -0.2166  0.1228
  489PYPI   C3B 7521  14.378   6.505   9.127 -0.2277  0.0861  0.1760
  489PYPI   C4B 7522  14.423   6.592   8.708 -0.1861  0.0309  0.0004
  490PYPI    C1 7523   9.216  12.191  10.873  0.1607 -0.1868 -0.0199
  490PYPI    C2 7524   9.168  12.531  11.078 -0.0523 -0.0283 -0.3245
  490PYPI    C3 7525   9.470  12.285  11.166  0.1040  0.2387 -0.1003
  490PYPI   PO4 7526   9.080  12.263  10.658 -0.2636  0.3090 -0.1664
  490PYPI   GL1 7527   8.838  12.090  10.320 -0.0082 -0.0193 -0.0434
  490PYPI   GL2 7528   8.496  11.865  10.285 -0.0345  0.0240  0.1073
  490PYPI   C1A 7529   8.711  12.066   9.799  0.0258 -0.2236 -0.2134
  490PYPI   C2A 7530   8.690  12.174   9.371 -0.0208  0.3995 -0.1136
  490PYPI   D3A 7531   8.548  12.097   8.998  0.1583 -0.0456 -0.1482
  490PYPI   C4A 7532   8.828  12.307   8.572 -0.0488 -0.0041  0.1950
  490PYPI   C1B 7533   8.529  11.609   9.804  0.1555 -0.2543 -0.1241
  490PYPI   C2B 7534   8.458  11.721   9.365 -0.3389  0.0468  0.0222
  490PYPI   C3B 7535   8.454  11.596   9.048 -0.2600 -0.1513  0.1941
  490PYPI   C4B 7536   8.375  11.772   8.615  0.2029 -0.2570  0.0022
  491PYPI    C1 7537   8.033   2.151  10.970 -0.1820 -0.0310 -0.1717
  491PYPI    C2 7538   8.295   2.451  10.939 -0.2661  0.0356 -0.2459
  491PYPI    C3 7539   8.335   2.179  11.230 -0.2164  0.1450 -0.1499
  491PYPI   PO4 7540   8.080   2.024  10.717 -0.0220 -0.1311  0.0561
  491PYPI   GL1 7541   8.159   1.794  10.470 -0.1402  0.0312 -0.4475
  491PYPI   GL2 7542   8.173   1.486  10.361  0.0026  0.0467 -0.2107
  491PYPI   C1A 7543   7.849   1.943  10.132 -0.2915 -0.0200 -0.0721
  491PYPI   C2A 7544   7.704   1.944   9.704 -0.2354 -0.1074  0.0531
  491PYPI   D3A 7545   7.756   1.856   9.299 -0.0874  0.0143  0.0497
  491PYPI   C4A 7546   7.676   1.948   8.901 -0.0069  0.3359  0.0766
  491PYPI   C1B 7547   8.153   1.615   9.948 -0.0303 -0.3213 -0.3036
  491PYPI   C2B 7548   8.046   1.546   9.523 -0.0547 -0.1593 -0.0462
  491PYPI   C3B 7549   7.927   1.393   9.156  0.0824  0.2531  0.1273
  491PYPI   C4B 7550   7.798   1.519   8.705 -0.2332  0.2235 -0.2716
  492PYPI    C1 7551  16.409  10.389  10.705 -0.0733  0.1134 -0.0540
  492PYPI    C2 7552  16.289  10.082  10.478  0.0565 -0.0882  0.1464
  492PYPI    C3 7553  16.087  10.427  10.470 -0.0276 -0.1420 -0.1612
  492PYPI   PO4 7554  16.655  10.399  10.565 -0.0687 -0.0496  0.2443
  492PYPI   GL1 7555  16.743  10.325  10.072 -0.0398 -0.1857 -0.2843
  492PYPI   GL2 7556  16.423  10.340  10.087  0.2997  0.0652 -0.3020
  492PYPI   C1A 7557  16.779  10.480   9.644 -0.2005  0.3509  0.1304
  492PYPI   C2A 7558  16.913  10.533   9.231 -0.0765 -0.1037  0.0197
  492PYPI   D3A 7559  16.668  10.668   8.876  0.2978  0.0149 -0.0085
  492PYPI   C4A 7560  16.635  11.053   8.727  0.0375 -0.2659 -0.0474
  492PYPI   C1B 7561  16.295  10.521   9.750  0.1893  0.0728  0.1534
  492PYPI   C2B 7562  16.190  10.936   9.681  0.4281  0.0670 -0.1612
  492PYPI   C3B 7563  16.037  10.991   9.288  0.0308  0.1762 -0.1206
  492PYPI   C4B 7564  16.206  11.179   8.935 -0.1574 -0.1286  0.1929
  493PYPI    C1 7565  10.971  16.115  10.733  0.1052  0.1064 -0.2576
  493PYPI    C2 7566  10.621  16.291  10.652 -0.0083  0.0387  0.0702
  493PYPI    C3 7567  10.778  16.318  11.019  0.1622 -0.2194  0.0188
  493PYPI   PO4 7568  10.924  15.891  10.639 -0.0188 -0.0630  0.3342
  493PYPI   GL1 7569  10.943  15.588  10.354  0.0514  0.3701  0.2333
  493PYPI   GL2 7570  11.216  15.352  10.404 -0.1079  0.1233  0.2344
  493PYPI   C1A 7571  11.062  15.560   9.958  0.2385 -0.2085  0.0076
  493PYPI   C2A 7572  11.000  15.491   9.544 -0.1339 -0.2211  0.0681
  493PYPI   D3A 7573  10.990  15.507   9.089 -0.0038 -0.1573 -0.2118
  493PYPI   C4A 7574  10.720  15.324   8.700 -0.0121 -0.3382 -0.1999
  493PYPI   C1B 7575  11.235  15.081  10.054 -0.1065  0.2297 -0.2232
  493PYPI   C2B 7576  11.208  15.031   9.728  0.1115  0.0543 -0.1879
  493PYPI   C3B 7577  11.220  15.113   9.282 -0.2102  0.2040  0.1181
  493PYPI   C4B 7578  11.200  15.033   8.799  0.2082 -0.1138 -0.6962
  494PYPI    C1 7579   6.265  14.348  10.868 -0.0075  0.1172 -0.1624
  494PYPI    C2 7580   5.924  14.362  11.078  0.0238 -0.1045 -0.0940
  494PYPI    C3 7581   5.972  14.087  10.791  0.1780 -0.1308 -0.0445
  494PYPI   PO4 7582   6.312  14.584  10.829 -0.0439  0.0009 -0.0451
  494PYPI   GL1 7583   6.283  14.786  10.541  0.0313  0.2255 -0.0120
  494PYPI   GL2 7584   6.328  14.384  10.378 -0.2411 -0.2683 -0.3209
  494PYPI   C1A 7585   5.986  14.702  10.103 -0.1914 -0.2858  0.3244
  494PYPI   C2A 7586   5.961  14.661   9.658 -0.1980 -0.1825 -0.1143
  494PYPI   D3A 7587   5.700  14.677   9.245  0.0017  0.1604  0.1197
  494PYPI   C4A 7588   5.570  14.605   8.761  0.0701 -0.0342 -0.1434
  494PYPI   C1B 7589   6.355  14.172  10.081  0.2025  0.0962  0.2055
  494PYPI   C2B 7590   6.259  14.145   9.654 -0.0972  0.0799 -0.2015
  494PYPI   C3B 7591   6.186  14.113   9.238  0.1862 -0.2012 -0.2576
  494PYPI   C4B 7592   6.131  13.859   8.958 -0.0130  0.1390 -0.0925
  495PYPI    C1 7593   6.847   9.106  10.971  0.3798  0.2186 -0.1142
  495PYPI    C2 7594   7.189   9.053  11.172  0.2761  0.0965  0.0321
  495PYPI    C3 7595   6.858   8.859  11.285  0.1495  0.2394 -0.0883
  495PYPI   PO4 7596   6.877   9.049  10.650 -0.0997 -0.0375  0.1784
  495PYPI   GL1 7597   6.698   9.064  10.187 -0.0494 -0.0893  0.1059
  495PYPI   GL2 7598   7.024   9.109  10.152 -0.1288 -0.2085 -0.0683
  495PYPI   C1A 7599   6.751   8.921   9.790 -0.0406 -0.3345 -0.1750
  495PYPI   C2A 7600   6.705   8.904   9.397  0.0236 -0.1398 -0.0864
  495PYPI   D3A 7601   6.598   8.987   8.948 -0.2011 -0.2571  0.1315
  495PYPI   C4A 7602   6.521   8.827   8.503 -0.0928 -0.1521 -0.2321
  495PYPI   C1B 7603   7.282   8.874   9.827  0.0631 -0.0044 -0.1133
  495PYPI   C2B 7604   7.212   8.846   9.384  0.0240  0.0029 -0.1475
  495PYPI   C3B 7605   7.250   8.834   8.997 -0.0067  0.1216  0.1337
  495PYPI   C4B 7606   7.041   8.926   8.498  0.0477  0.2124  0.1027
  496PYPI    C1 7607   3.398  15.228  10.858 -0.1717  0.1474 -0.0214
  496PYPI    C2 7608   3.107  15.380  11.086 -0.0061  0.2389  0.1313
  496PYPI    C3 7609   3.426  15.210  11.257 -0.0977 -0.1102 -0.0363
  496PYPI   PO4 7610   3.215  15.184  10.637  0.0008  0.1025  0.2698
  496PYPI   GL1 7611   2.778  15.337  10.366 -0.0115 -0.1718  0.1214
  496PYPI   GL2 7612   2.681  15.598  10.350  0.3182 -0.0839  0.0193
  496PYPI   C1A 7613   2.701  15.146   9.942 -0.0230  0.1015  0.0394
  496PYPI   C2A 7614   2.562  15.188   9.587 -0.2324 -0.1202  0.0311
  496PYPI   D3A 7615   2.859  15.279   9.323 -0.0164  0.0799 -0.1780
  496PYPI   C4A 7616   3.097  15.431   9.665  0.1131  0.0217  0.2566
  496PYPI   C1B 7617   2.543  15.681   9.882  0.3854 -0.2579 -0.1073
  496PYPI   C2B 7618   2.502  15.642   9.389  0.1596 -0.1178 -0.0711
  496PYPI   C3B 7619   2.613  15.712   8.970  0.2391 -0.0680 -0.0365
  496PYPI   C4B 7620   2.881  15.766   8.589 -0.1619 -0.2213  0.1273
  497PYPI    C1 7621   4.404  17.135  11.172  0.1467 -0.0341  0.0373
  497PYPI    C2 7622   4.153  17.287  11.444  0.0176 -0.1339 -0.0251
  497PYPI    C3 7623   4.476  17.494  11.332 -0.3272  0.2450 -0.3499
  497PYPI   PO4 7624   4.211  16.997  10.980  0.0433 -0.2863  0.2563
  497PYPI   GL1 7625   4.231  16.677  10.598  0.1676 -0.2831 -0.0782
  497PYPI   GL2 7626   4.004  16.862  10.488 -0.0790 -0.0136  0.2622
  497PYPI   C1A 7627   4.173  16.439  10.222 -0.3289  0.0893  0.1981
  497PYPI   C2A 7628   4.214  16.575   9.748  0.0771 -0.0270  0.1294
  497PYPI   D3A 7629   3.887  16.742   9.448 -0.0889  0.0300 -0.0330
  497PYPI   C4A 7630   3.830  17.134   9.323 -0.0895 -0.1805  0.2354
  497PYPI   C1B 7631   4.172  17.203  10.234  0.3659  0.1673 -0.0344
  497PYPI   C2B 7632   4.040  17.558   9.997 -0.2028  0.0482 -0.0658
  497PYPI   C3B 7633   3.830  17.473   9.721  0.1955  0.2680  0.2608
  497PYPI   C4B 7634   3.751  17.648   9.281  0.1098  0.0576  0.0346
  498PYPI    C1 7635   3.289   5.561  10.886 -0.0776 -0.0617  0.1352
  498PYPI    C2 7636   3.088   5.757  11.172 -0.0788  0.1898 -0.0344
  498PYPI    C3 7637   3.488   5.770  11.163 -0.0781  0.1700 -0.0356
  498PYPI   PO4 7638   3.188   5.671  10.654 -0.1166  0.1306  0.3430
  498PYPI   GL1 7639   3.286   5.920  10.372 -0.1681  0.0350 -0.3099
  498PYPI   GL2 7640   3.183   6.273  10.369  0.0264  0.1088  0.4165
  498PYPI   C1A 7641   3.300   6.054   9.953 -0.5423 -0.1244 -0.0110
  498PYPI   C2A 7642   3.355   6.097   9.512  0.1818  0.3118 -0.1110
  498PYPI   D3A 7643   3.772   6.372   9.318  0.1480 -0.2161 -0.0149
  498PYPI   C4A 7644   3.939   6.347   8.818  0.1436 -0.1519 -0.4013
  498PYPI   C1B 7645   3.165   6.539   9.974 -0.2924 -0.3722  0.1657
  498PYPI   C2B 7646   3.452   6.588   9.652 -0.1472  0.0541  0.0496
  498PYPI   C3B 7647   3.606   6.868   9.368  0.1833 -0.1613  0.1767
  498PYPI   C4B 7648   3.705   7.021   8.868 -0.0759 -0.2707 -0.2140
  499PYPI    C1 7649  13.565   5.988  10.931 -0.1826  0.3689 -0.1346
  499PYPI    C2 7650  13.254   5.851  10.721 -0.2791  0.1426  0.1492
  499PYPI    C3 7651  13.423   5.621  11.001  0.1825  0.2413 -0.0394
  499PYPI   PO4 7652  13.747   6.030  10.733 -0.0926 -0.2687 -0.4428
  499PYPI   GL1 7653  13.897   6.189  10.377  0.1972 -0.2024  0.4234
  499PYPI   GL2 7654  13.871   6.464  10.218  0.0334 -0.2345  0.1843
  499PYPI   C1A 7655  14.136   6.065   9.995  0.0279  0.0401 -0.1043
  499PYPI   C2A 7656  14.155   5.847   9.577 -0.0493  0.1232  0.0781
  499PYPI   D3A 7657  14.226   5.980   9.196 -0.1372  0.0407 -0.0786
  499PYPI   C4A 7658  14.207   5.757   8.872 -0.3843 -0.1148  0.0197
  499PYPI   C1B 7659  14.074   6.599   9.926 -0.2678  0.0106 -0.1627
  499PYPI   C2B 7660  14.105   6.357   9.512 -0.1358  0.0909  0.0108
  499PYPI   C3B 7661  13.892   6.409   9.124 -0.2615 -0.0502 -0.0836
  499PYPI   C4B 7662  14.031   6.209   8.793  0.1829 -0.2677 -0.1107
  500PYPI    C1 7663   0.108  10.445  10.676  0.1765 -0.0519  0.0489
  500PYPI    C2 7664   0.319  10.753  10.531  0.0911 -0.1213 -0.2291
  500PYPI    C3 7665   0.508  10.429  10.670  0.1800  0.0363  0.0248
  500PYPI   PO4 7666  -0.112  10.363  10.474 -0.2441 -0.0491 -0.1644
  500PYPI   GL1 7667  -0.494  10.268  10.140  0.0525  0.0181 -0.1487
  500PYPI   GL2 7668  -0.523   9.986  10.223 -0.0511  0.2460  0.1091
  500PYPI   C1A 7669  -0.436  10.393   9.851 -0.0452  0.1734 -0.1233
  500PYPI   C2A 7670  -0.393  10.345   9.462  0.1357  0.1050  0.1374
  500PYPI   D3A 7671  -0.245  10.274   9.018  0.0674 -0.1433  0.0578
  500PYPI   C4A 7672  -0.301  10.318   8.520  0.2913 -0.3157  0.1697
  500PYPI   C1B 7673  -0.700   9.896   9.802 -0.0546  0.1927 -0.2290
  500PYPI   C2B 7674  -0.753   9.950   9.387 -0.3022  0.0572 -0.1631
  500PYPI   C3B 7675  -0.782  10.063   9.009 -0.0646 -0.0952  0.1639
  500PYPI   C4B 7676  -0.743  10.332   8.736  0.0563  0.2017  0.2489
  501PYPI    C1 7677  15.103   2.846  11.000 -0.0406 -0.0098  0.2795
  501PYPI    C2 7678  14.879   2.659  11.274 -0.1123  0.1578  0.3366
  501PYPI    C3 7679  15.099   2.976  11.378  0.0237  0.0946  0.2444
  501PYPI   PO4 7680  15.311   2.751  10.914  0.2984  0.3415  0.2914
  501PYPI   GL1 7681  15.285   2.578  10.554 -0.1974  0.2181  0.0111
  501PYPI   GL2 7682  15.565   2.466  10.544  0.0227 -0.0968  0.3172
  501PYPI   C1A 7683  15.004   2.294  10.152  0.3084 -0.0228  0.0261
  501PYPI   C2A 7684  14.837   2.106   9.763 -0.2871 -0.3102  0.0527
  501PYPI   D3A 7685  14.992   2.060   9.355  0.0829  0.0792  0.2841
  501PYPI   C4A 7686  14.919   2.260   8.874 -0.1468  0.1313 -0.0867
  501PYPI   C1B 7687  15.477   2.277  10.144  0.2169  0.2551 -0.2265
  501PYPI   C2B 7688  15.305   2.321   9.723 -0.0329 -0.0536 -0.0764
  501PYPI   C3B 7689  15.320   2.547   9.360 -0.0927 -0.1888 -0.0409
  501PYPI   C4B 7690  15.241   2.705   8.949 -0.0786  0.1536 -0.1404
  502PYPI    C1 7691   4.752   4.974  10.827  0.3499  0.1376 -0.0734
  502PYPI    C2 7692   5.051   4.709  10.846  0.2245  0.0007  0.0102
  502PYPI    C3 7693   4.878   4.839  11.182  0.0567 -0.0739 -0.0460
  502PYPI   PO4 7694   4.674   5.028  10.606  0.2447 -0.1275 -0.1724
  502PYPI   GL1 7695   4.748   5.217  10.257  0.2355 -0.2896 -0.0341
  502PYPI   GL2 7696   4.527   5.185  10.144 -0.1191 -0.1042 -0.2884
  502PYPI   C1A 7697   5.128   5.413   9.959 -0.0251  0.1384  0.2154
  502PYPI   C2A 7698   5.332   5.506   9.528  0.2303 -0.1621  0.0971
  502PYPI   D3A 7699   5.227   5.255   9.107 -0.0216 -0.1058  0.0437
  502PYPI   C4A 7700   5.523   5.324   8.780  0.2141 -0.1579  0.0069
  502PYPI   C1B 7701   4.416   5.155   9.822  0.2439  0.1880 -0.1325
  502PYPI   C2B 7702   4.270   5.092   9.428 -0.1607  0.1107 -0.1003
  502PYPI   C3B 7703   4.321   4.974   9.045  0.1641 -0.0748  0.1135
  502PYPI   C4B 7704   4.377   4.816   8.698 -0.1587  0.2021 -0.0178
  503PYPI    C1 7705  14.397  10.975  10.449 -0.0117  0.0285  0.0786
  503PYPI    C2 7706  14.484  10.909  10.833 -0.0191 -0.2313  0.0374
  503PYPI    C3 7707  14.524  10.614  10.566  0.0695 -0.0282 -0.1770
  503PYPI   PO4 7708  14.143  11.166  10.487 -0.1517  0.0184 -0.2747
  503PYPI   GL1 7709  14.073  11.488  10.239 -0.2406  0.1365  0.4010
  503PYPI   GL2 7710  14.044  11.688  10.048 -0.0149  0.1590 -0.0959
  503PYPI   C1A 7711  14.101  11.287   9.740 -0.2007  0.2610  0.0201
  503PYPI   C2A 7712  13.921  11.321   9.339  0.0544 -0.0327  0.1395
  503PYPI   D3A 7713  13.727  11.248   8.895  0.0747  0.0643  0.0394
  503PYPI   C4A 7714  13.880  11.644   8.681  0.1239  0.0532  0.0558
  503PYPI   C1B 7715  14.441  11.700   9.775 -0.0723 -0.0288  0.2658
  503PYPI   C2B 7716  14.609  11.938   9.464 -0.2831 -0.2861 -0.0526
  503PYPI   C3B 7717  14.709  12.066   9.125 -0.1514 -0.0462 -0.3595
  503PYPI   C4B 7718  14.811  12.287   8.828 -0.0451  0.3095  0.0822
  504PYPI    C1 7719   2.711   3.703  11.397 -0.0214  0.1365  0.2385
  504PYPI    C2 7720   2.875   4.051  11.505  0.1273  0.0810  0.1934
  504PYPI    C3 7721   2.803   3.770  11.780 -0.0918  0.1874  0.2468
  504PYPI   PO4 7722   2.417   3.741  11.131 -0.0137  0.1367 -0.0229
  504PYPI   GL1 7723   2.435   3.441  10.729  0.1434  0.1896 -0.0797
  504PYPI   GL2 7724   2.166   3.497  10.566 -0.3072  0.1177 -0.2756
  504PYPI   C1A 7725   2.607   3.677  10.410 -0.0020  0.0548  0.0743
  504PYPI   C2A 7726   2.540   3.762   9.906  0.0483  0.0960  0.2302
  504PYPI   D3A 7727   2.689   3.976   9.495 -0.4244 -0.2566  0.0729
  504PYPI   C4A 7728   3.147   4.156   9.410 -0.0328 -0.2164 -0.0621
  504PYPI   C1B 7729   2.286   3.385  10.163  0.0565 -0.2348  0.0808
  504PYPI   C2B 7730   2.226   3.308   9.644 -0.1441  0.1415 -0.0517
  504PYPI   C3B 7731   2.271   3.281   9.153  0.0110 -0.0189 -0.3570
  504PYPI   C4B 7732   2.185   3.265   8.722  0.0284  0.3492 -0.1107
  505PYPI    C1 7733   3.328   3.080  10.951 -0.2669  0.0243  0.0673
  505PYPI    C2 7734   3.402   2.918  11.310  0.1836 -0.1440 -0.0941
  505PYPI    C3 7735   3.454   3.311  11.253  0.1643 -0.1260  0.0094
  505PYPI   PO4 7736   3.132   3.008  10.854  0.1144 -0.0303 -0.0181
  505PYPI   GL1 7737   3.021   2.847  10.506 -0.0223  0.4039 -0.0234
  505PYPI   GL2 7738   3.199   2.591  10.543 -0.0079  0.2250 -0.2079
  505PYPI   C1A 7739   3.171   2.956  10.098  0.1331 -0.3417 -0.1245
  505PYPI   C2A 7740   3.588   3.019   9.948 -0.0098 -0.1322  0.2321
  505PYPI   D3A 7741   3.894   2.954   9.654  0.2308 -0.2289  0.3451
  505PYPI   C4A 7742   3.820   2.829   9.255 -0.0710  0.1870  0.1978
  505PYPI   C1B 7743   2.954   2.431  10.156  0.0655 -0.2323  0.0369
  505PYPI   C2B 7744   2.949   2.560   9.751 -0.2247  0.0289 -0.0891
  505PYPI   C3B 7745   2.972   2.673   9.359  0.1199  0.1113  0.0812
  505PYPI   C4B 7746   2.745   2.439   9.008  0.1173  0.2298 -0.4141
  506ERGO   ROH 7747  14.867  10.842  10.287  0.0525 -0.1491 -0.1241
  506ERGO    R1 7748  14.882  10.852  10.004  0.0812 -0.0615 -0.1189
  506ERGO    R2 7749  14.980  10.643   9.853 -0.1147 -0.1036 -0.1849
  506ERGO    R3 7750  14.741  10.666   9.725 -0.0853  0.1768 -0.1986
  506ERGO    R4 7751  14.937  10.624   9.510 -0.1147 -0.0635 -0.1878
  506ERGO    R5 7752  14.792  10.787   9.525  0.0737  0.1136 -0.2004
  506ERGO    C1 7753  14.687  10.634   9.191 -0.0871  0.2232 -0.2025
  506ERGO    C2 7754  14.885  10.393   9.036 -0.1417  0.0447 -0.1265
  507ERGO   ROH 7755  10.753   7.085  10.209  0.0813 -0.1523  0.0646
  507ERGO    R1 7756  10.766   7.113   9.928  0.0605 -0.1560  0.0630
  507ERGO    R2 7757  10.927   7.301   9.804 -0.0084 -0.1026  0.0504
  507ERGO    R3 7758  11.021   7.083   9.670  0.0614 -0.0749  0.0548
  507ERGO    R4 7759  10.930   7.266   9.460  0.2391 -0.0030  0.0404
  507ERGO    R5 7760  10.871   7.058   9.486  0.1936 -0.0022 -0.0635
  507ERGO    C1 7761  11.020   7.042   9.135  0.4488  0.0810  0.0389
  507ERGO    C2 7762  10.983   6.884   8.818 -0.2527 -0.2105 -0.1349
  508ERGO   ROH 7763   0.883   3.707  10.487  0.0482 -0.1238 -0.0131
  508ERGO    R1 7764   0.823   3.623  10.223  0.0618 -0.0650 -0.0360
  508ERGO    R2 7765   0.724   3.796  10.031 -0.1302 -0.0653  0.0538
  508ERGO    R3 7766   0.936   3.706   9.887 -0.0804  0.1766 -0.0252
  508ERGO    R4 7767   0.726   3.755   9.688 -0.2580 -0.2064  0.0695
  508ERGO    R5 7768   0.839   3.570   9.716  0.0205 -0.0346  0.0862
  508ERGO    C1 7769   0.927   3.648   9.353 -0.2858 -0.0614  0.0044
  508ERGO    C2 7770   0.986   3.614   9.060  0.4034 -0.4394  0.2730
  509ERGO   ROH 7771  15.312   4.392  10.463  0.1164 -0.1690 -0.0059
  509ERGO    R1 7772  15.215   4.370  10.198  0.1142 -0.2392  0.0006
  509ERGO    R2 7773  15.284   4.550   9.999 -0.1215 -0.1186  0.0265
  509ERGO    R3 7774  15.358   4.325   9.867  0.1376 -0.0076 -0.0234
  509ERGO    R4 7775  15.274   4.511   9.656 -0.4816 -0.1899  0.0410
  509ERGO    R5 7776  15.201   4.307   9.687 -0.0661 -0.3301  0.1737
  509ERGO    C1 7777  15.338   4.276   9.332 -0.4479 -0.1273  0.0026
  509ERGO    C2 7778  15.325   4.111   9.028  0.2471  0.3302 -0.0771
  510ERGO   ROH 7779  11.609  16.941  10.358 -0.1258  0.1029 -0.0525
  510ERGO    R1 7780  11.480  16.838  10.129 -0.0982  0.0926 -0.0637
  510ERGO    R2 7781  11.341  16.998   9.951  0.0158  0.0991 -0.1465
  510ERGO    R3 7782  11.505  16.883   9.768  0.0238 -0.0120 -0.0694
  510ERGO    R4 7783  11.276  16.977   9.612 -0.0001 -0.1461 -0.1296
  510ERGO    R5 7784  11.357  16.775   9.614  0.0257 -0.1395  0.0123
  510ERGO    C1 7785  11.393  16.856   9.244 -0.0018 -0.3932 -0.0474
  510ERGO    C2 7786  11.299  16.800   9.000  0.2403  0.0106 -0.2049
  511ERGO   ROH 7787   6.352  12.874  10.219  0.0231  0.2768  0.0387
  511ERGO    R1 7788   6.384  12.913   9.940  0.0269  0.1081  0.0133
  511ERGO    R2 7789   6.430  12.705   9.765 -0.0363 -0.0093  0.1278
  511ERGO    R3 7790   6.214  12.808   9.637 -0.0125 -0.0196  0.0808
  511ERGO    R4 7791   6.380  12.696   9.423  0.0787  0.0792  0.1087
  511ERGO    R5 7792   6.302  12.899   9.434  0.0337  0.0556  0.1382
  511ERGO    C1 7793   6.147  12.787   9.104  0.1680  0.1210  0.0533
  511ERGO    C2 7794   5.944  12.874   8.708  0.1442  0.1684 -0.1229
  512ERGO   ROH 7795  16.979   3.416  10.385 -0.0893 -0.0001 -0.1128
  512ERGO    R1 7796  16.903   3.532  10.138 -0.1041 -0.0077 -0.1111
  512ERGO    R2 7797  17.084   3.655   9.969 -0.1188 -0.0025 -0.1174
  512ERGO    R3 7798  16.982   3.481   9.787 -0.1165 -0.0072 -0.1152
  512ERGO    R4 7799  17.159   3.657   9.632 -0.2151  0.0829 -0.1391
  512ERGO    R5 7800  16.949   3.614   9.590 -0.2178  0.0198 -0.0842
  512ERGO    C1 7801  17.107   3.495   9.264 -0.2689  0.1283 -0.1496
  512ERGO    C2 7802  17.232   3.403   9.174 -0.0035  0.1707  0.1868
  513ERGO   ROH 7803  13.936  10.108  10.150 -0.3216 -0.0389  0.0860
  513ERGO    R1 7804  13.826  10.282   9.956 -0.3825 -0.0750  0.0882
  513ERGO    R2 7805  13.960  10.351   9.724 -0.3455  0.0878  0.1583
  513ERGO    R3 7806  13.733  10.262   9.604 -0.2316 -0.0587  0.0465
  513ERGO    R4 7807  13.891  10.378   9.387 -0.1927  0.0324  0.1211
  513ERGO    R5 7808  13.685  10.427   9.438 -0.2508 -0.0937  0.0163
  513ERGO    C1 7809  13.637  10.310   9.078  0.0033 -0.1375 -0.0054
  513ERGO    C2 7810  13.523  10.273   8.804  0.0945  0.0440 -0.0511
  514ERGO   ROH 7811   9.211   1.722  10.064 -0.1070 -0.0603  0.0021
  514ERGO    R1 7812   9.072   1.843   9.849 -0.0937  0.0575  0.0586
  514ERGO    R2 7813   8.927   2.076   9.878  0.0128  0.1165  0.1463
  514ERGO    R3 7814   9.084   2.162   9.673  0.0152  0.0991  0.1416
  514ERGO    R4 7815   8.906   2.388   9.730 -0.0036  0.0913  0.0966
  514ERGO    R5 7816   8.937   2.292   9.536  0.0138  0.0660  0.1145
  514ERGO    C1 7817   9.041   2.649   9.451 -0.0109  0.0603  0.0634
  514ERGO    C2 7818   9.162   2.980   9.248 -0.1098 -0.2856 -0.0499
  515ERGO   ROH 7819   7.465  12.102  10.281  0.1900  0.1894  0.0929
  515ERGO    R1 7820   7.571  12.107  10.018  0.0746  0.1418  0.0459
  515ERGO    R2 7821   7.623  11.877   9.874  0.0436  0.1181  0.0793
  515ERGO    R3 7822   7.464  11.996   9.688 -0.0513  0.0494  0.1163
  515ERGO    R4 7823   7.668  11.855   9.532 -0.0899  0.0417  0.0652
  515ERGO    R5 7824   7.616  12.066   9.516 -0.1293  0.0319  0.0370
  515ERGO    C1 7825   7.545  11.953   9.159 -0.2567 -0.0672  0.0917
  515ERGO    C2 7826   7.588  11.945   8.857  0.0645  0.1717 -0.2616
  516ERGO   ROH 7827  17.373  11.684  10.074  0.0888  0.1182 -0.1885
  516ERGO    R1 7828  17.426  11.820   9.832  0.2408  0.1180 -0.1556
  516ERGO    R2 7829  17.626  11.741   9.658  0.1035 -0.1110 -0.2100
  516ERGO    R3 7830  17.423  11.740   9.477  0.0693  0.2290 -0.1808
  516ERGO    R4 7831  17.666  11.730   9.315  0.0440 -0.2854 -0.2126
  516ERGO    R5 7832  17.503  11.873   9.296  0.3091  0.0299 -0.2292
  516ERGO    C1 7833  17.499  11.723   8.946 -0.0227 -0.0677 -0.1866
  516ERGO    C2 7834  17.451  11.711   8.647 -0.1019 -0.1743  0.2544
  517ERGO   ROH 7835  13.952   1.288  10.347 -0.1602  0.1043  0.0467
  517ERGO    R1 7836  14.073   1.207  10.104 -0.0766  0.0146  0.1173
  517ERGO    R2 7837  13.938   1.062   9.912 -0.0182 -0.0366  0.1127
  517ERGO    R3 7838  14.018   1.264   9.749  0.0598 -0.0956  0.0778
  517ERGO    R4 7839  14.029   1.024   9.580  0.0805 -0.1456  0.1520
  517ERGO    R5 7840  14.190   1.167   9.614  0.0887 -0.1581  0.1601
  517ERGO    C1 7841  14.157   1.191   9.234  0.2114 -0.2645  0.1420
  517ERGO    C2 7842  14.199   1.199   8.910 -0.2292  0.4068 -0.0805
  518ERGO   ROH 7843   7.916  13.818  10.319 -0.0782  0.0833  0.1005
  518ERGO    R1 7844   8.029  13.972  10.111 -0.2504  0.1841  0.0793
  518ERGO    R2 7845   8.235  13.878   9.952 -0.0378  0.4484  0.1928
  518ERGO    R3 7846   8.065  13.942   9.750 -0.0738  0.0913  0.1034
  518ERGO    R4 7847   8.317  13.873   9.616  0.0106  0.1968  0.2063
  518ERGO    R5 7848   8.203  14.056   9.590 -0.1607  0.0672  0.0099
  518ERGO    C1 7849   8.205  13.929   9.231  0.0051 -0.2849  0.1305
  518ERGO    C2 7850   8.267  13.863   8.980 -0.2260 -0.2422 -0.0012
  519ERGO   ROH 7851   8.475   5.634  10.577 -0.1030 -0.1304 -0.0510
  519ERGO    R1 7852   8.334   5.616  10.332 -0.0965  0.1786 -0.0818
  519ERGO    R2 7853   8.320   5.825  10.152  0.4958  0.1904 -0.1353
  519ERGO    R3 7854   8.416   5.640   9.978  0.0660 -0.1122 -0.0678
  519ERGO    R4 7855   8.297   5.847   9.808  0.6827  0.1992 -0.1481
  519ERGO    R5 7856   8.254   5.634   9.802  0.1025  0.3005 -0.1265
  519ERGO    C1 7857   8.374   5.686   9.444  0.3882 -0.0796 -0.0923
  519ERGO    C2 7858   8.414   5.859   9.145  0.0534 -0.0205 -0.0529
  520ERGO   ROH 7859  11.169   6.997  10.051 -0.0506 -0.0435 -0.0998
  520ERGO    R1 7860  11.196   6.747   9.922  0.1536 -0.0212 -0.1015
  520ERGO    R2 7861  10.993   6.632   9.774  0.1595 -0.3003  0.1036
  520ERGO    R3 7862  11.182   6.623   9.580 -0.0104 -0.0704 -0.0785
  520ERGO    R4 7863  10.937   6.531   9.449 -0.0553 -0.2665  0.1283
  520ERGO    R5 7864  11.128   6.427   9.453  0.0522 -0.0906 -0.0778
  520ERGO    C1 7865  11.082   6.463   9.076 -0.3397 -0.0309 -0.0283
  520ERGO    C2 7866  10.994   6.332   8.777  0.0351 -0.1209 -0.0590
  521ERGO   ROH 7867  15.679   2.987  10.500 -0.1754  0.2094 -0.1304
  521ERGO    R1 7868  15.790   2.876  10.264 -0.2003  0.1370 -0.1077
  521ERGO    R2 7869  15.640   2.730  10.084 -0.2585  0.2343 -0.1341
  521ERGO    R3 7870  15.737   2.911   9.906 -0.1058  0.1691 -0.1195
  521ERGO    R4 7871  15.630   2.695   9.740 -0.2500  0.2463 -0.1361
  521ERGO    R5 7872  15.831   2.778   9.731 -0.1841  0.1004 -0.1129
  521ERGO    C1 7873  15.716   2.845   9.373 -0.1017  0.1921 -0.1237
  521ERGO    C2 7874  15.705   2.796   9.103 -0.2504  0.0905 -0.0867
  522ERGO   ROH 7875   3.228  15.580  10.163 -0.1161  0.0324  0.0103
  522ERGO    R1 7876   3.327  15.773   9.981  0.1307 -0.0518  0.0512
  522ERGO    R2 7877   3.564  15.740   9.842  0.0693 -0.3472  0.0077
  522ERGO    R3 7878   3.406  15.785   9.626  0.0972 -0.0646  0.0439
  522ERGO    R4 7879   3.676  15.852   9.535  0.1937 -0.5174 -0.0109
  522ERGO    R5 7880   3.500  15.980   9.524  0.4053 -0.2154  0.0343
  522ERGO    C1 7881   3.592  15.961   9.154  0.2922 -0.3512  0.0124
  522ERGO    C2 7882   3.793  16.019   8.964  0.1161 -0.1758  0.1425
  523ERGO   ROH 7883   5.514  12.136  10.269 -0.0455 -0.0443  0.0866
  523ERGO    R1 7884   5.619  12.116  10.008 -0.0527 -0.1711  0.0917
  523ERGO    R2 7885   5.626  11.878   9.867 -0.2208 -0.2074  0.1354
  523ERGO    R3 7886   5.495  12.023   9.678 -0.1149 -0.1458  0.1093
  523ERGO    R4 7887   5.669  11.842   9.526 -0.1001 -0.1495  0.1441
  523ERGO    R5 7888   5.659  12.059   9.507 -0.0455 -0.1483  0.1790
  523ERGO    C1 7889   5.570  11.958   9.150  0.0695 -0.0581  0.1247
  523ERGO    C2 7890   5.489  11.846   8.917 -0.1782 -0.2108  0.3778
  524ERGO   ROH 7891   4.969  12.703  10.130 -0.1622  0.0488 -0.0308
  524ERGO    R1 7892   4.920  12.496   9.943 -0.1308 -0.0136  0.0302
  524ERGO    R2 7893   4.999  12.512   9.678 -0.1663 -0.0635  0.0164
  524ERGO    R3 7894   5.121  12.276   9.734 -0.0983 -0.0174  0.0654
  524ERGO    R4 7895   5.043  12.254   9.453 -0.1465 -0.1244  0.0889
  524ERGO    R5 7896   4.996  12.113   9.611 -0.0815 -0.0866  0.1408
  524ERGO    C1 7897   5.184  11.883   9.373 -0.0711 -0.1165  0.1772
  524ERGO    C2 7898   5.297  11.566   9.268 -0.3053 -0.1280 -0.3224
  525ERGO   ROH 7899  16.697   5.018  10.390  0.1217 -0.3063 -0.0024
  525ERGO    R1 7900  16.707   4.914  10.127 -0.0895 -0.2015 -0.0551
  525ERGO    R2 7901  16.525   4.986   9.931 -0.2260 -0.0909  0.1039
  525ERGO    R3 7902  16.750   5.048   9.791 -0.3166 -0.0695 -0.0323
  525ERGO    R4 7903  16.558   4.961   9.588 -0.3941 -0.1718  0.0933
  525ERGO    R5 7904  16.759   4.884   9.617 -0.3617 -0.1093  0.0071
  525ERGO    C1 7905  16.787   5.005   9.256 -0.5767 -0.1987 -0.0406
  525ERGO    C2 7906  16.881   5.003   8.870  0.0459 -0.1318  0.0976
  526ERGO   ROH 7907  13.993  17.617  10.542 -0.3700 -0.0989  0.0368
  526ERGO    R1 7908  14.124  17.659  10.295 -0.1987 -0.1932  0.1090
  526ERGO    R2 7909  14.108  17.479  10.085 -0.2488 -0.1619  0.0790
  526ERGO    R3 7910  14.026  17.698   9.947  0.0193 -0.0724  0.0606
  526ERGO    R4 7911  14.113  17.509   9.741 -0.2816 -0.2281  0.0739
  526ERGO    R5 7912  14.180  17.714   9.764  0.0037 -0.3137  0.0248
  526ERGO    C1 7913  14.040  17.731   9.411 -0.0492 -0.1827  0.0536
  526ERGO    C2 7914  14.025  17.523   9.161 -0.4098 -0.2625  0.0946
  527ERGO   ROH 7915   5.159   7.241  10.665 -0.0016 -0.1131 -0.0060
  527ERGO    R1 7916   5.259   7.373  10.435  0.0127 -0.1427 -0.0153
  527ERGO    R2 7917   5.402   7.243  10.239 -0.1262 -0.2015 -0.0694
  527ERGO    R3 7918   5.213   7.348  10.075 -0.1040 -0.0618 -0.0089
  527ERGO    R4 7919   5.457   7.342   9.912 -0.1970 -0.4737 -0.1676
  527ERGO    R5 7920   5.330   7.515   9.949  0.0389 -0.2810 -0.1858
  527ERGO    C1 7921   5.311   7.498   9.568 -0.2173 -0.5010 -0.1679
  527ERGO    C2 7922   5.303   7.342   9.403  0.3319  0.1090  0.4216
  528ERGO   ROH 7923  13.981  14.031  10.277  0.0580 -0.1129 -0.0322
  528ERGO    R1 7924  13.884  14.044  10.011  0.0959 -0.1809 -0.0493
  528ERGO    R2 7925  13.838  14.283   9.881 -0.1392 -0.2115 -0.0231
  528ERGO    R3 7926  14.002  14.176   9.693  0.0165 -0.0067 -0.0079
  528ERGO    R4 7927  13.834  14.365   9.545 -0.2313 -0.2358 -0.0284
  528ERGO    R5 7928  13.864  14.154   9.499  0.0522 -0.2029 -0.0140
  528ERGO    C1 7929  13.985  14.311   9.173 -0.1386 -0.0578 -0.0172
  528ERGO    C2 7930  13.945  14.338   8.910  0.1974 -0.0088  0.0253
  529ERGO   ROH 7931   9.110   1.190  10.214 -0.0713  0.0169 -0.0457
  529ERGO    R1 7932   8.953   1.204   9.978 -0.0358 -0.0540 -0.0734
  529ERGO    R2 7933   8.990   1.401   9.787 -0.0664 -0.0600 -0.0831
  529ERGO    R3 7934   9.013   1.188   9.620  0.0296 -0.0664 -0.0626
  529ERGO    R4 7935   9.062   1.422   9.450 -0.2222 -0.0472 -0.1167
  529ERGO    R5 7936   8.917   1.263   9.414 -0.1163 -0.1673 -0.0343
  529ERGO    C1 7937   9.126   1.234   9.096 -0.2229 -0.0458 -0.1170
  529ERGO    C2 7938   9.181   1.169   8.732  0.0767  0.0704 -0.0475
  530ERGO   ROH 7939   8.141   9.102   9.658  0.1448 -0.1771  0.0661
  530ERGO    R1 7940   8.024   9.150   9.405  0.0815 -0.0805  0.1143
  530ERGO    R2 7941   8.163   9.266   9.196  0.0323 -0.0159  0.1214
  530ERGO    R3 7942   8.082   9.044   9.061 -0.0168  0.0383  0.0593
  530ERGO    R4 7943   8.180   9.226   8.853  0.2099  0.0034  0.1264
  530ERGO    R5 7944   7.985   9.130   8.860  0.1470  0.1123  0.0070
  530ERGO    C1 7945   8.114   8.995   8.527  0.2672  0.0656  0.0710
  530ERGO    C2 7946   8.274   8.876   8.185 -0.0859  0.2903  0.2900
  531ERGO   ROH 7947  12.162   0.103  10.126 -0.0550 -0.0214  0.1397
  531ERGO    R1 7948  12.051  -0.018   9.895  0.1677 -0.1342  0.0912
  531ERGO    R2 7949  11.926   0.127   9.696  0.0470 -0.2688  0.0800
  531ERGO    R3 7950  12.105  -0.000   9.536  0.2526 -0.0267  0.1056
  531ERGO    R4 7951  11.957   0.176   9.355  0.1053 -0.1225  0.1040
  531ERGO    R5 7952  11.986  -0.038   9.332  0.3541 -0.0976  0.0493
  531ERGO    C1 7953  12.142   0.085   9.007  0.3324  0.1899  0.1419
  531ERGO    C2 7954  12.128   0.245   8.682 -0.0151 -0.1196 -0.0730
  532ERGO   ROH 7955   4.250   4.095  10.294  0.0175  0.0877 -0.0726
  532ERGO    R1 7956   4.268   4.162  10.019 -0.0608 -0.0999 -0.1239
  532ERGO    R2 7957   4.501   4.259   9.905 -0.1570  0.0063 -0.2110
  532ERGO    R3 7958   4.463   4.052   9.733  0.0046 -0.1466 -0.0639
  532ERGO    R4 7959   4.654   4.229   9.597 -0.0274 -0.1443 -0.1348
  532ERGO    R5 7960   4.466   4.155   9.516  0.0306 -0.3018 -0.1451
  532ERGO    C1 7961   4.708   4.019   9.255  0.1997 -0.3754  0.0477
  532ERGO    C2 7962   4.780   3.971   8.909 -0.0265 -0.0190  0.2185
  533ERGO   ROH 7963   7.931  12.090  10.358 -0.1387 -0.4214 -0.0444
  533ERGO    R1 7964   7.986  12.172  10.093 -0.1603 -0.2856 -0.0070
  533ERGO    R2 7965   8.209  12.087   9.954 -0.0836 -0.0786 -0.0101
  533ERGO    R3 7966   8.025  12.010   9.769 -0.0048 -0.1385 -0.0627
  533ERGO    R4 7967   8.258  12.091   9.612  0.0170 -0.0828  0.0034
  533ERGO    R5 7968   8.054  12.164   9.588  0.0061 -0.1413 -0.0618
  533ERGO    C1 7969   8.114  12.021   9.239  0.1496 -0.1414 -0.0382
  533ERGO    C2 7970   8.023  12.074   8.923 -0.0287 -0.0051  0.0234
  534ERGO   ROH 7971   4.779  15.086  10.379  0.1796  0.1087 -0.1055
  534ERGO    R1 7972   4.697  15.044  10.112 -0.0340  0.0585 -0.0335
  534ERGO    R2 7973   4.485  15.179   9.998 -0.0260  0.1506  0.0640
  534ERGO    R3 7974   4.669  15.243   9.809 -0.1158 -0.0399 -0.0920
  534ERGO    R4 7975   4.421  15.371   9.717 -0.0517  0.2882  0.1623
  534ERGO    R5 7976   4.548  15.235   9.602 -0.3206  0.1505  0.0149
  534ERGO    C1 7977   4.558  15.542   9.376 -0.1509  0.1895  0.0731
  534ERGO    C2 7978   4.594  15.581   9.070 -0.1061  0.4921 -0.4480
  535ERGO   ROH 7979  11.983   3.592  10.759  0.0002  0.0993  0.0688
  535ERGO    R1 7980  11.830   3.431  10.583 -0.0286  0.0660  0.1225
  535ERGO    R2 7981  11.608   3.527  10.449 -0.0247  0.0553  0.1022
  535ERGO    R3 7982  11.742   3.436  10.230 -0.0425 -0.0253  0.1253
  535ERGO    R4 7983  11.462   3.449  10.145 -0.0430 -0.0457  0.1371
  535ERGO    R5 7984  11.594   3.276  10.131 -0.0517 -0.0533  0.1888
  535ERGO    C1 7985  11.502   3.319   9.764 -0.0704 -0.1801  0.1792
  535ERGO    C2 7986  11.638   3.306   9.407  0.0629  0.2284  0.1358
  536ERGO   ROH 7987   2.819   4.868  10.603 -0.1484  0.0809 -0.1450
  536ERGO    R1 7988   2.964   4.824  10.364 -0.1241  0.0324 -0.1218
  536ERGO    R2 7989   2.848   4.722  10.135 -0.1154  0.0454 -0.1335
  536ERGO    R3 7990   2.952   4.946  10.021 -0.0473  0.0147 -0.1306
  536ERGO    R4 7991   2.851   4.789   9.796 -0.1468  0.0767 -0.1275
  536ERGO    R5 7992   3.052   4.868   9.818 -0.1126 -0.0046 -0.1545
  536ERGO    C1 7993   2.950   5.037   9.491 -0.1011  0.0663 -0.1211
  536ERGO    C2 7994   2.837   5.064   9.180 -0.0955 -0.1377 -0.0140
  537ERGO   ROH 7995   2.960   8.988  10.277  0.3360 -0.0357 -0.0224
  537ERGO    R1 7996   2.835   8.967  10.024  0.2181 -0.0713  0.0380
  537ERGO    R2 7997   2.650   9.150   9.934  0.1388 -0.1105  0.1175
  537ERGO    R3 7998   2.817   9.166   9.721  0.0344 -0.0887  0.0366
  537ERGO    R4 7999   2.556   9.099   9.606 -0.0117 -0.1193  0.1611
  537ERGO    R5 8000   2.743   8.992   9.574 -0.0141 -0.0959  0.0704
  537ERGO    C1 8001   2.659   9.083   9.214 -0.1973 -0.1040  0.1107
  537ERGO    C2 8002   2.678   9.132   8.905 -0.1961 -0.0486  0.0531
  538ERGO   ROH 8003   0.808  13.898   9.918  0.2584 -0.0834  0.1719
  538ERGO    R1 8004   0.751  13.939   9.644  0.2448  0.0661  0.1960
  538ERGO    R2 8005   0.942  14.025   9.463  0.3614 -0.2769  0.1476
  538ERGO    R3 8006   0.867  13.802   9.327 -0.1193 -0.1216  0.1381
  538ERGO    R4 8007   0.859  14.016   9.127  0.0815 -0.0514  0.2059
  538ERGO    R5 8008   0.698  13.878   9.176 -0.1158  0.2021  0.2890
  538ERGO    C1 8009   0.741  13.801   8.805 -0.5326  0.2256  0.2311
  538ERGO    C2 8010   0.743  13.792   8.510  0.0354  0.3001  0.2109
  539ERGO   ROH 8011   1.180   0.088  10.743  0.0478 -0.2054 -0.1728
  539ERGO    R1 8012   1.099   0.093  10.472 -0.0537 -0.0884 -0.1426
  539ERGO    R2 8013   1.089   0.326  10.323  0.0753 -0.0459 -0.0975
  539ERGO    R3 8014   1.248   0.186  10.153 -0.0983 -0.1449 -0.1778
  539ERGO    R4 8015   1.118   0.387   9.984  0.1158  0.0719 -0.0727
  539ERGO    R5 8016   1.120   0.171   9.951 -0.1280  0.0882 -0.1723
  539ERGO    C1 8017   1.283   0.290   9.627 -0.0235  0.0475 -0.1336
  539ERGO    C2 8018   1.258   0.433   9.312 -0.0497  0.3179  0.4839
  540ERGO   ROH 8019   5.198  10.909  10.106  0.0625 -0.3084 -0.0601
  540ERGO    R1 8020   5.212  11.028   9.850  0.0657 -0.2543 -0.0366
  540ERGO    R2 8021   5.221  10.880   9.617 -0.0985 -0.2082 -0.0827
  540ERGO    R3 8022   5.007  11.033   9.549 -0.0218 -0.0524  0.0269
  540ERGO    R4 8023   5.125  10.954   9.293 -0.1002  0.0409 -0.0259
  540ERGO    R5 8024   5.080  11.157   9.358  0.0174  0.0213  0.0962
  540ERGO    C1 8025   4.869  11.141   9.041 -0.0291  0.3322  0.1100
  540ERGO    C2 8026   4.829  11.055   8.661  0.0458 -0.0087 -0.0966
  541ERGO   ROH 8027  15.684   5.337   9.927 -0.2603 -0.0754 -0.0131
  541ERGO    R1 8028  15.610   5.295   9.657 -0.2007 -0.0931 -0.0270
  541ERGO    R2 8029  15.595   5.501   9.473 -0.2378 -0.0927 -0.0253
  541ERGO    R3 8030  15.764   5.343   9.331 -0.1606 -0.0334  0.0007
  541ERGO    R4 8031  15.644   5.523   9.132 -0.1232 -0.0134 -0.0038
  541ERGO    R5 8032  15.649   5.305   9.124 -0.0823 -0.0107 -0.0473
  541ERGO    C1 8033  15.832   5.387   8.799  0.0160  0.0886  0.0330
  541ERGO    C2 8034  15.964   5.503   8.407 -0.0037 -0.1064  0.1176
  542ERGO   ROH 8035  13.479   1.693  10.534 -0.1954 -0.2341 -0.1461
  542ERGO    R1 8036  13.426   1.914  10.365 -0.2526  0.0196  0.1926
  542ERGO    R2 8037  13.343   1.884  10.103  0.2484  0.3861 -0.0242
  542ERGO    R3 8038  13.139   2.045  10.184 -0.1601 -0.0959 -0.0425
  542ERGO    R4 8039  13.137   2.064   9.892  0.2800  0.4166 -0.0289
  542ERGO    R5 8040  13.146   2.230  10.032 -0.2217  0.1940  0.2949
  542ERGO    C1 8041  12.826   2.320   9.845 -0.0851 -0.0182 -0.0488
  542ERGO    C2 8042  12.620   2.343   9.624  0.1254  0.0421  0.1260
  543ERGO   ROH 8043  14.966   6.614  10.266  0.1813 -0.2936 -0.0110
  543ERGO    R1 8044  15.120   6.638  10.030  0.0976 -0.2281 -0.0590
  543ERGO    R2 8045  15.008   6.633   9.777  0.0011 -0.0961 -0.0185
  543ERGO    R3 8046  15.140   6.869   9.749  0.0433 -0.1130  0.0311
  543ERGO    R4 8047  15.067   6.791   9.476 -0.2281  0.1039  0.0375
  543ERGO    R5 8048  15.267   6.842   9.547 -0.1464 -0.0061 -0.1058
  543ERGO    C1 8049  15.225   7.104   9.273 -0.3219  0.2046  0.1166
  543ERGO    C2 8050  15.393   7.343   9.112 -0.1194  0.1798 -0.0375
  544ERGO   ROH 8051   7.873  10.263  10.432 -0.1200 -0.2334  0.0673
  544ERGO    R1 8052   7.939  10.277  10.158  0.0249 -0.1417  0.1063
  544ERGO    R2 8053   8.010  10.055  10.010  0.0534 -0.0979  0.0599
  544ERGO    R3 8054   7.809  10.139   9.847  0.1563  0.0052 -0.0170
  544ERGO    R4 8055   8.024  10.059   9.664  0.1304 -0.2693  0.0590
  544ERGO    R5 8056   7.921  10.251   9.668  0.2951 -0.1723 -0.0483
  544ERGO    C1 8057   7.844  10.141   9.311  0.2718 -0.2722 -0.0137
  544ERGO    C2 8058   7.845  10.146   9.025 -0.2842 -0.1463 -0.2195
  545ERGO   ROH 8059   0.811  12.348   9.994 -0.0877 -0.0161 -0.0735
  545ERGO    R1 8060   0.696  12.304   9.739 -0.0522 -0.1500 -0.0674
  545ERGO    R2 8061   0.698  12.496   9.540 -0.2461 -0.1623 -0.0833
  545ERGO    R3 8062   0.812  12.297   9.394 -0.0532 -0.0628 -0.0696
  545ERGO    R4 8063   0.699  12.481   9.195 -0.1783 -0.1534 -0.0834
  545ERGO    R5 8064   0.663  12.266   9.209  0.0018 -0.1858 -0.0944
  545ERGO    C1 8065   0.807  12.286   8.857  0.0424 -0.0549 -0.0707
  545ERGO    C2 8066   0.833  12.128   8.564 -0.0150  0.0995 -0.0245
  546ERGO   ROH 8067  15.327  16.807  10.022  0.0377 -0.1321  0.0272
  546ERGO    R1 8068  15.182  16.801   9.779 -0.2028 -0.1354  0.1670
  546ERGO    R2 8069  15.302  16.748   9.536 -0.3512  0.3186 -0.0168
  546ERGO    R3 8070  15.111  16.555   9.521 -0.0358 -0.0043 -0.0059
  546ERGO    R4 8071  15.165  16.628   9.242 -0.3455  0.2691  0.0011
  546ERGO    R5 8072  14.970  16.624   9.340 -0.2801 -0.1269  0.1333
  546ERGO    C1 8073  14.905  16.377   9.057 -0.0460 -0.0628  0.0219
  546ERGO    C2 8074  15.012  16.319   8.709 -0.0855  0.3014 -0.1146
  547ERGO   ROH 8075  16.080   0.131  10.392  0.0563 -0.1634  0.0230
  547ERGO    R1 8076  16.005   0.251  10.147  0.1467  0.0714  0.1050
  547ERGO    R2 8077  16.190   0.332   9.957  0.2120 -0.0043  0.1246
  547ERGO    R3 8078  16.042   0.173   9.793  0.0176  0.2463  0.0542
  547ERGO    R4 8079  16.232   0.308   9.615  0.2387  0.0103  0.1279
  547ERGO    R5 8080  16.015   0.303   9.594  0.2405  0.3260  0.0808
  547ERGO    C1 8081  16.117   0.145   9.262  0.0717  0.2540  0.0638
  547ERGO    C2 8082  15.994   0.134   9.056 -0.3715  0.2213  0.2163
  548ERGO   ROH 8083   5.372  17.404  10.480  0.0279 -0.0859 -0.2137
  548ERGO    R1 8084   5.269  17.459  10.222 -0.0135 -0.0382 -0.1881
  548ERGO    R2 8085   5.299  17.704  10.098 -0.1237  0.0213 -0.1068
  548ERGO    R3 8086   5.405  17.554   9.898 -0.0734  0.1310 -0.1629
  548ERGO    R4 8087   5.305  17.795   9.765 -0.1112  0.1563 -0.0701
  548ERGO    R5 8088   5.258  17.589   9.713 -0.0595  0.1725 -0.1615
  548ERGO    C1 8089   5.408  17.707   9.383 -0.0566  0.3381 -0.1014
  548ERGO    C2 8090   5.511  17.698   9.112  0.1042 -0.1880 -0.2900
  549ERGO   ROH 8091   9.274  16.591  10.356 -0.0809 -0.0825  0.1498
  549ERGO    R1 8092   9.322  16.552  10.079  0.0022 -0.0676  0.1616
  549ERGO    R2 8093   9.194  16.357   9.931 -0.0185 -0.0057  0.0918
  549ERGO    R3 8094   9.128  16.568   9.773  0.1134  0.0396  0.0965
  549ERGO    R4 8095   9.094  16.333   9.601  0.1205  0.0853  0.0426
  549ERGO    R5 8096   9.213  16.509   9.557  0.1898  0.0550  0.1255
  549ERGO    C1 8097   8.974  16.517   9.260  0.3253  0.1808  0.0183
  549ERGO    C2 8098   8.682  16.451   9.051 -0.1830 -0.4018 -0.1852
  550ERGO   ROH 8099  11.628   0.714   8.189 -0.1580  0.2375  0.0614
  550ERGO    R1 8100  11.846   0.786   8.354 -0.0320  0.0988 -0.0426
  550ERGO    R2 8101  12.076   0.634   8.372 -0.1412 -0.0746 -0.1155
  550ERGO    R3 8102  12.197   0.868   8.307  0.0143 -0.1767 -0.2036
  550ERGO    R4 8103  12.403   0.716   8.450 -0.2106 -0.1015  0.2196
  550ERGO    R5 8104  12.336   0.918   8.496 -0.2104 -0.0294 -0.0714
  550ERGO    C1 8105  12.707   0.983   8.434 -0.1048 -0.2131  0.3321
  550ERGO    C2 8106  12.915   1.207   8.389  0.4563  0.0754  0.2263
  551ERGO   ROH 8107   4.284  12.025  10.403 -0.0881 -0.0086  0.0775
  551ERGO    R1 8108   4.315  12.119  10.138 -0.0245 -0.1042  0.0518
  551ERGO    R2 8109   4.554  12.219  10.042  0.0094 -0.1923  0.0573
  551ERGO    R3 8110   4.518  12.031   9.849  0.0003 -0.2445  0.1095
  551ERGO    R4 8111   4.613  12.268   9.705 -0.1183 -0.2354  0.0275
  551ERGO    R5 8112   4.433  12.154   9.662 -0.1026 -0.3026  0.1127
  551ERGO    C1 8113   4.614  12.121   9.327 -0.2012 -0.3094  0.0592
  551ERGO    C2 8114   4.540  12.108   9.031  0.1360  0.0746  0.0157
  552ERGO   ROH 8115   4.971   9.560  10.033 -0.0991 -0.3805 -0.0130
  552ERGO    R1 8116   4.917   9.661   9.774 -0.3234 -0.1035  0.1342
  552ERGO    R2 8117   5.046   9.567   9.548 -0.1834  0.4419 -0.0352
  552ERGO    R3 8118   4.792   9.527   9.459 -0.1365  0.1077 -0.0313
  552ERGO    R4 8119   4.951   9.554   9.215 -0.1886  0.3497 -0.0297
  552ERGO    R5 8120   4.773   9.668   9.266 -0.3392  0.1014 -0.0127
  552ERGO    C1 8121   4.658   9.509   8.939 -0.1475 -0.0177 -0.0229
  552ERGO    C2 8122   4.452   9.567   8.724 -0.2064  0.1931 -0.0435
  553ERGO   ROH 8123  12.447   1.345  10.364  0.2927  0.1760  0.0521
  553ERGO    R1 8124  12.446   1.449  10.101  0.1436  0.1842  0.0541
  553ERGO    R2 8125  12.626   1.365   9.908  0.1318  0.2966 -0.0100
  553ERGO    R3 8126  12.400   1.315   9.765  0.1115  0.1647  0.0672
  553ERGO    R4 8127  12.604   1.373   9.563  0.0096  0.2549 -0.0034
  553ERGO    R5 8128  12.410   1.470   9.582 -0.0330  0.1521  0.0509
  553ERGO    C1 8129  12.379   1.331   9.228 -0.0806  0.1068  0.0730
  553ERGO    C2 8130  12.420   1.169   9.045 -0.1021  0.1284 -0.3146
  554ERGO   ROH 8131  15.391  10.281  10.047  0.1902 -0.0221 -0.0640
  554ERGO    R1 8132  15.459  10.138   9.813 -0.0123 -0.0509 -0.1071
  554ERGO    R2 8133  15.282  10.102   9.604 -0.0910  0.1966 -0.0867
  554ERGO    R3 8134  15.484  10.209   9.457  0.0103 -0.0007 -0.0954
  554ERGO    R4 8135  15.269  10.161   9.264 -0.0060  0.1123 -0.1051
  554ERGO    R5 8136  15.476  10.092   9.249 -0.0573 -0.0526 -0.0635
  554ERGO    C1 8137  15.452  10.296   8.928  0.1387 -0.1220 -0.1240
  554ERGO    C2 8138  15.273  10.290   8.655  0.0454 -0.0715 -0.1799
  555ERGO   ROH 8139   2.700  11.882  10.557  0.2522  0.0634 -0.0249
  555ERGO    R1 8140   2.546  11.842  10.322  0.1063  0.0897  0.0651
  555ERGO    R2 8141   2.300  11.962  10.284  0.1127  0.1508  0.2005
  555ERGO    R3 8142   2.415  12.051  10.054  0.0047  0.1090  0.1300
  555ERGO    R4 8143   2.157  11.940   9.970  0.1124 -0.2170  0.2221
  555ERGO    R5 8144   2.352  11.888   9.890  0.1607 -0.0718  0.2470
  555ERGO    C1 8145   2.181  12.011   9.572  0.0109 -0.4705  0.1685
  555ERGO    C2 8146   2.177  12.092   9.238 -0.1190 -0.0078  0.0227
  556ERGO   ROH 8147  12.165  10.278   9.938  0.1929  0.3042 -0.0107
  556ERGO    R1 8148  12.162  10.232   9.658  0.2265  0.1803  0.0085
  556ERGO    R2 8149  11.976  10.349   9.491  0.2552  0.1189 -0.0688
  556ERGO    R3 8150  12.198  10.433   9.357  0.2790  0.0454 -0.0756
  556ERGO    R4 8151  11.996  10.393   9.148  0.2121  0.2740 -0.0517
  556ERGO    R5 8152  12.196  10.307   9.153  0.1580  0.1467 -0.1365
  556ERGO    C1 8153  12.215  10.499   8.824  0.2094  0.2953 -0.0481
  556ERGO    C2 8154  12.368  10.427   8.463  0.1140  0.3021 -0.2217
  557ERGO   ROH 8155   1.273   9.704   9.853 -0.4146 -0.0449 -0.0390
  557ERGO    R1 8156   1.201   9.814   9.603 -0.3729 -0.1279 -0.0873
  557ERGO    R2 8157   1.383   9.848   9.397 -0.2953 -0.0186 -0.0004
  557ERGO    R3 8158   1.200   9.704   9.256 -0.1210 -0.1705 -0.0764
  557ERGO    R4 8159   1.372   9.825   9.052 -0.3985  0.3379 -0.0254
  557ERGO    R5 8160   1.155   9.837   9.063 -0.4218 -0.0288  0.0841
  557ERGO    C1 8161   1.195   9.676   8.719 -0.2949  0.4030 -0.1113
  557ERGO    C2 8162   1.190   9.500   8.366 -0.0400 -0.1948  0.0502
  558ERGO   ROH 8163   2.351   0.286  10.373  0.0799  0.1778  0.1279
  558ERGO    R1 8164   2.462   0.242  10.116 -0.0342  0.0222  0.1041
  558ERGO    R2 8165   2.340   0.081   9.927 -0.2766  0.1520  0.1469
  558ERGO    R3 8166   2.362   0.302   9.771 -0.0455  0.1154  0.1234
  558ERGO    R4 8167   2.346   0.080   9.582  0.0479  0.0849  0.1492
  558ERGO    R5 8168   2.501   0.233   9.589  0.1019  0.0276  0.2646
  558ERGO    C1 8169   2.370   0.287   9.234  0.4537  0.0115  0.1284
  558ERGO    C2 8170   2.183   0.093   8.835  0.1167  0.0060 -0.2878
  559ERGO   ROH 8171  14.009  16.149  10.457 -0.0258  0.0998 -0.0048
  559ERGO    R1 8172  13.906  16.079  10.203  0.0030  0.0975 -0.0145
  559ERGO    R2 8173  13.666  16.176  10.108 -0.0285  0.0163  0.0013
  559ERGO    R3 8174  13.817  16.253   9.896 -0.0641  0.1045  0.0065
  559ERGO    R4 8175  13.556  16.180   9.780 -0.0795  0.0972  0.0181
  559ERGO    R5 8176  13.753  16.103   9.720 -0.0693  0.1419 -0.0307
  559ERGO    C1 8177  13.635  16.255   9.390 -0.1428  0.2268  0.0327
  559ERGO    C2 8178  13.591  16.217   9.049  0.1183  0.1791 -0.0677
  560ERGO   ROH 8179   1.971   6.273  10.463 -0.2144 -0.0221  0.0265
  560ERGO    R1 8180   2.070   6.352  10.210 -0.1176 -0.0953  0.0409
  560ERGO    R2 8181   2.255   6.202  10.069 -0.1222 -0.1769  0.1182
  560ERGO    R3 8182   2.068   6.218   9.872 -0.0627 -0.1527  0.0636
  560ERGO    R4 8183   2.321   6.179   9.731 -0.0041  0.0046  0.1276
  560ERGO    R5 8184   2.177   6.337   9.696 -0.0488 -0.0320  0.1546
  560ERGO    C1 8185   2.185   6.180   9.349  0.1205  0.1330  0.0819
  560ERGO    C2 8186   1.990   6.112   8.993  0.3077 -0.0420 -0.2873
  561ERGO   ROH 8187  12.629  14.228  10.945  0.2308  0.0475  0.0940
  561ERGO    R1 8188  12.502  14.233  10.692  0.1120 -0.0352  0.1503
  561ERGO    R2 8189  12.348  14.445  10.606  0.0826 -0.0545  0.1449
  561ERGO    R3 8190  12.517  14.439  10.392 -0.0148 -0.1412  0.0710
  561ERGO    R4 8191  12.258  14.522  10.281 -0.0154  0.0011  0.1859
  561ERGO    R5 8192  12.381  14.356  10.213 -0.1367 -0.0628  0.1280
  561ERGO    C1 8193  12.363  14.562   9.892 -0.1638 -0.0479  0.1404
  561ERGO    C2 8194  12.346  14.518   9.587 -0.1849 -0.0952  0.0205
  562ERGO   ROH 8195   1.741   7.767  10.177  0.0648 -0.0048 -0.1101
  562ERGO    R1 8196   1.665   7.743   9.905  0.0164 -0.0286 -0.0954
  562ERGO    R2 8197   1.836   7.804   9.697 -0.0453  0.0270 -0.1329
  562ERGO    R3 8198   1.776   7.552   9.616  0.0190  0.0078 -0.1180
  562ERGO    R4 8199   1.870   7.688   9.373 -0.1014  0.0452 -0.1447
  562ERGO    R5 8200   1.682   7.581   9.397 -0.0564 -0.0214 -0.0892
  562ERGO    C1 8201   1.834   7.384   9.109 -0.0737  0.0379 -0.1374
  562ERGO    C2 8202   2.046   7.445   8.792  0.1243  0.0921  0.1754
  563ERGO   ROH 8203   4.999  11.316  10.145  0.1232  0.2726  0.1610
  563ERGO    R1 8204   4.838  11.337   9.914  0.1689  0.0822  0.1093
  563ERGO    R2 8205   4.775  11.580   9.799  0.0164  0.0016  0.0198
  563ERGO    R3 8206   4.878  11.465   9.575  0.1650  0.0118  0.0819
  563ERGO    R4 8207   4.746  11.710   9.479 -0.2111 -0.2299 -0.0564
  563ERGO    R5 8208   4.713  11.507   9.406  0.0789 -0.3318  0.0710
  563ERGO    C1 8209   4.826  11.676   9.083 -0.2040 -0.3550 -0.0425
  563ERGO    C2 8210   4.969  11.989   8.815 -0.2209 -0.1260  0.0274
  564ERGO   ROH 8211   6.654  15.470  10.142 -0.0708  0.1491  0.0647
  564ERGO    R1 8212   6.727  15.384   9.882 -0.0553  0.2007  0.0517
  564ERGO    R2 8213   6.649  15.140   9.779  0.1427  0.1204  0.0854
  564ERGO    R3 8214   6.553  15.292   9.576 -0.0492  0.0231  0.1004
  564ERGO    R4 8215   6.633  15.041   9.448  0.0868  0.0656  0.1043
  564ERGO    R5 8216   6.696  15.241   9.391 -0.0832  0.1045  0.0520
  564ERGO    C1 8217   6.534  15.126   9.065 -0.1260 -0.0576  0.1294
  564ERGO    C2 8218   6.376  14.981   8.761 -0.1186  0.2159  0.1986
  565ERGO   ROH 8219   9.023   0.105  10.438  0.1143 -0.0801 -0.1221
  565ERGO    R1 8220   9.130   0.265  10.231  0.1125  0.0073 -0.0566
  565ERGO    R2 8221   9.332   0.178  10.064  0.0469  0.0415 -0.1575
  565ERGO    R3 8222   9.156   0.247   9.869  0.0182  0.2064 -0.0744
  565ERGO    R4 8223   9.418   0.249   9.737 -0.0500 -0.1503 -0.2258
  565ERGO    R5 8224   9.273   0.411   9.739  0.1489  0.0308 -0.1832
  565ERGO    C1 8225   9.303   0.355   9.363 -0.1333 -0.1071 -0.1875
  565ERGO    C2 8226   9.364   0.263   9.043  0.1338  0.1569  0.3324
  566ERGO   ROH 8227   1.329  10.212   9.795  0.1808  0.1974  0.0036
  566ERGO    R1 8228   1.261  10.329   9.546 -0.1106  0.0938  0.0303
  566ERGO    R2 8229   1.440  10.346   9.336 -0.2137  0.3942 -0.0397
  566ERGO    R3 8230   1.241  10.220   9.200 -0.0643  0.0642  0.0373
  566ERGO    R4 8231   1.362  10.401   9.004 -0.3584  0.1724 -0.0445
  566ERGO    R5 8232   1.151  10.389   9.056 -0.3340 -0.1104 -0.0036
  566ERGO    C1 8233   1.131  10.314   8.682 -0.3025 -0.2665  0.0249
  566ERGO    C2 8234   1.019  10.378   8.389  0.3013  0.1676 -0.1418
  567ERGO   ROH 8235   1.152  16.800  10.515  0.1445 -0.0703 -0.0502
  567ERGO    R1 8236   1.042  16.827  10.256  0.0223 -0.2656 -0.0209
  567ERGO    R2 8237   1.126  17.021  10.078 -0.3519 -0.1241 -0.0561
  567ERGO    R3 8238   1.165  16.808   9.914 -0.0377 -0.0744 -0.0530
  567ERGO    R4 8239   1.152  17.040   9.734 -0.1630 -0.0815 -0.0411
  567ERGO    R5 8240   1.032  16.858   9.720  0.0298 -0.1990 -0.1289
  567ERGO    C1 8241   1.203  16.851   9.379  0.2420 -0.0101 -0.0295
  567ERGO    C2 8242   1.114  16.994   9.126 -0.2763 -0.1963  0.0653
  568ERGO   ROH 8243   7.031  11.054  10.550  0.1244  0.2114  0.0160
  568ERGO    R1 8244   7.194  11.009  10.323  0.0214  0.1847 -0.0525
  568ERGO    R2 8245   7.132  10.820  10.131 -0.0482  0.1400  0.0159
  568ERGO    R3 8246   7.155  11.031   9.962 -0.1522  0.1075 -0.0401
  568ERGO    R4 8247   7.189  10.796   9.791  0.0851  0.0781  0.0412
  568ERGO    R5 8248   7.324  10.966   9.806 -0.0476  0.1879  0.0372
  568ERGO    C1 8249   7.243  10.981   9.434  0.0652  0.0117  0.0034
  568ERGO    C2 8250   7.270  11.003   9.079 -0.1698  0.3010 -0.2049
  569ERGO   ROH 8251   0.789  11.351  10.163 -0.2768 -0.1150  0.0185
  569ERGO    R1 8252   0.906  11.339   9.906 -0.1393  0.0931  0.0685
  569ERGO    R2 8253   0.869  11.124   9.736  0.1180  0.1361 -0.0459
  569ERGO    R3 8254   0.789  11.317   9.563  0.0461  0.1471  0.0001
  569ERGO    R4 8255   0.797  11.073   9.402 -0.1111  0.1367  0.0022
  569ERGO    R5 8256   0.896  11.261   9.356 -0.0994  0.1147 -0.0691
  569ERGO    C1 8257   0.679  11.224   9.045 -0.3120  0.1473  0.0734
  569ERGO    C2 8258   0.670  11.216   8.777  0.2133  0.3074  0.0745
  570ERGO   ROH 8259  16.781  17.108  10.107  0.0889 -0.0050 -0.0737
  570ERGO    R1 8260  16.779  17.046   9.831  0.1733 -0.0003 -0.0752
  570ERGO    R2 8261  16.591  17.149   9.658  0.0224 -0.2644 -0.0673
  570ERGO    R3 8262  16.810  17.231   9.519 -0.0947  0.0552 -0.0724
  570ERGO    R4 8263  16.604  17.184   9.314  0.0572 -0.6186 -0.1061
  570ERGO    R5 8264  16.805  17.099   9.318  0.2528 -0.1895  0.0667
  570ERGO    C1 8265  16.817  17.281   8.984 -0.0323 -0.5246 -0.1336
  570ERGO    C2 8266  16.778  17.259   8.678 -0.1014 -0.1643 -0.1727
  571ERGO   ROH 8267   5.269   1.755  10.385  0.2087  0.1640 -0.0991
  571ERGO    R1 8268   5.153   1.713  10.131  0.2593  0.0348 -0.1030
  571ERGO    R2 8269   5.064   1.920   9.972  0.0046 -0.0578 -0.0967
  571ERGO    R3 8270   5.227   1.806   9.787  0.1519  0.1472 -0.0947
  571ERGO    R4 8271   5.005   1.917   9.631  0.0547 -0.0838 -0.1042
  571ERGO    R5 8272   5.077   1.711   9.626  0.2816  0.0017 -0.1244
  571ERGO    C1 8273   5.124   1.807   9.260  0.2221  0.0935 -0.1066
  571ERGO    C2 8274   5.191   2.000   8.874 -0.0246 -0.2151  0.0777
  572ERGO   ROH 8275   3.088  10.067   9.899 -0.1058  0.0989  0.1141
  572ERGO    R1 8276   3.059  10.163   9.635 -0.0040  0.0637  0.0886
  572ERGO    R2 8277   3.090  10.000   9.413 -0.0011  0.0115  0.1203
  572ERGO    R3 8278   2.842  10.093   9.350  0.0453  0.0855  0.0477
  572ERGO    R4 8279   2.962  10.019   9.093  0.0667  0.0023  0.0930
  572ERGO    R5 8280   2.873  10.211   9.145  0.1240  0.0365  0.0366
  572ERGO    C1 8281   2.654  10.116   8.848  0.1499  0.0663  0.0089
  572ERGO    C2 8282   2.625  10.163   8.541  0.3189  0.0421  0.2865
  573ERGO   ROH 8283   6.211   1.679  10.458 -0.2079 -0.1728 -0.1159
  573ERGO    R1 8284   6.324   1.617  10.205 -0.1063 -0.0554 -0.1000
  573ERGO    R2 8285   6.190   1.665   9.968 -0.0857 -0.1152 -0.1224
  573ERGO    R3 8286   6.417   1.802   9.906 -0.1687  0.0554 -0.0519
  573ERGO    R4 8287   6.321   1.698   9.649  0.0517 -0.1168 -0.0672
  573ERGO    R5 8288   6.520   1.672   9.733  0.0319  0.0814  0.0458
  573ERGO    C1 8289   6.609   1.847   9.406  0.0538  0.0425  0.0311
  573ERGO    C2 8290   6.655   1.934   9.083 -0.0371  0.1503  0.0118
  574ERGO   ROH 8291   4.721   2.774  10.506  0.2305  0.0884 -0.1045
  574ERGO    R1 8292   4.528   2.715  10.308  0.1326  0.1269 -0.0221
  574ERGO    R2 8293   4.469   2.887  10.101  0.1864  0.0754 -0.0855
  574ERGO    R3 8294   4.523   2.670   9.947  0.0012 -0.0323 -0.0011
  574ERGO    R4 8295   4.353   2.841   9.779 -0.0306 -0.0623  0.0105
  574ERGO    R5 8296   4.320   2.631   9.827 -0.0865 -0.0194  0.1467
  574ERGO    C1 8297   4.337   2.610   9.446 -0.3306 -0.2437  0.1457
  574ERGO    C2 8298   4.412   2.691   9.103  0.0148 -0.0716  0.0527
  575ERGO   ROH 8299  17.478  13.774  10.172 -0.0180  0.0058  0.0040
  575ERGO    R1 8300  17.427  13.774   9.894  0.0102  0.0721 -0.0010
  575ERGO    R2 8301  17.195  13.669   9.785  0.0374  0.0667 -0.0516
  575ERGO    R3 8302  17.176  13.915   9.671  0.0119  0.0941  0.0105
  575ERGO    R4 8303  17.016  13.742   9.498  0.1063  0.1013 -0.0865
  575ERGO    R5 8304  17.178  13.873   9.436  0.0941  0.1589 -0.0015
  575ERGO    C1 8305  16.894  14.015   9.225  0.1222  0.1472 -0.0486
  575ERGO    C2 8306  16.800  14.148   8.926 -0.1528  0.2980  0.4405
  576ERGO   ROH 8307   6.937   8.647  10.251  0.0572 -0.1769  0.0485
  576ERGO    R1 8308   6.968   8.475  10.029  0.0278 -0.1703  0.0394
  576ERGO    R2 8309   6.760   8.418   9.855  0.0250 -0.1061  0.0227
  576ERGO    R3 8310   6.938   8.502   9.667  0.0584 -0.1397  0.0389
  576ERGO    R4 8311   6.698   8.428   9.515  0.0352 -0.0379  0.0227
  576ERGO    R5 8312   6.901   8.356   9.481  0.0126 -0.1022  0.0175
  576ERGO    C1 8313   6.828   8.513   9.141  0.0725 -0.0297  0.0378
  576ERGO    C2 8314   6.820   8.581   8.847  0.1358  0.1376  0.2332
  577ERGO   ROH 8315   8.386   2.269  10.451  0.1404  0.0660  0.0091
  577ERGO    R1 8316   8.332   2.305  10.176 -0.0767 -0.0902  0.0284
  577ERGO    R2 8317   8.518   2.248   9.980 -0.0662  0.2213 -0.0547
  577ERGO    R3 8318   8.317   2.095   9.879  0.1647 -0.1862  0.0807
  577ERGO    R4 8319   8.490   2.154   9.649 -0.2831  0.4920 -0.1177
  577ERGO    R5 8320   8.275   2.189   9.662 -0.3726 -0.0566  0.2250
  577ERGO    C1 8321   8.285   1.955   9.361 -0.1926  0.2671 -0.0274
  577ERGO    C2 8322   8.167   1.867   8.972  0.0544 -0.1202 -0.0879
  578ERGO   ROH 8323  16.261   2.647  10.301 -0.0331 -0.1506 -0.0907
  578ERGO    R1 8324  16.168   2.704  10.040 -0.0904 -0.0955 -0.0579
  578ERGO    R2 8325  16.335   2.795   9.839 -0.1414 -0.0226 -0.0654
  578ERGO    R3 8326  16.233   2.583   9.703 -0.1398  0.0001 -0.1030
  578ERGO    R4 8327  16.376   2.739   9.500 -0.0420 -0.0192 -0.0543
  578ERGO    R5 8328  16.168   2.674   9.491 -0.0542  0.0209 -0.1224
  578ERGO    C1 8329  16.304   2.507   9.176  0.0178  0.0042 -0.0831
  578ERGO    C2 8330  16.353   2.652   8.823  0.0002  0.0150  0.1599
  579ERGO   ROH 8331   9.028   8.163  10.405 -0.0872 -0.0684  0.2656
  579ERGO    R1 8332   9.090   8.015  10.171 -0.0423  0.0004  0.2333
  579ERGO    R2 8333   8.901   7.954   9.979 -0.0243 -0.0094  0.2149
  579ERGO    R3 8334   9.081   8.072   9.812 -0.0528  0.0797  0.2467
  579ERGO    R4 8335   8.894   7.932   9.634  0.1503 -0.1525  0.2192
  579ERGO    R5 8336   9.112   7.912   9.636  0.1655  0.0372  0.3231
  579ERGO    C1 8337   9.059   8.029   9.277  0.2250 -0.1521  0.2517
  579ERGO    C2 8338   8.952   7.995   9.042  0.0150  0.4872  0.0049
  580ERGO   ROH 8339  16.335   6.070  10.327  0.4325 -0.1954  0.2221
  580ERGO    R1 8340  16.438   5.969  10.083  0.2086 -0.0861  0.0789
  580ERGO    R2 8341  16.325   6.029   9.838  0.0065  0.0607  0.2011
  580ERGO    R3 8342  16.578   6.108   9.778 -0.0313  0.0518  0.0300
  580ERGO    R4 8343  16.436   6.108   9.521 -0.2007  0.0691  0.1295
  580ERGO    R5 8344  16.623   6.005   9.566 -0.1770  0.0612 -0.0032
  580ERGO    C1 8345  16.738   6.228   9.279 -0.3567  0.0655 -0.0730
  580ERGO    C2 8346  16.766   6.237   8.913  0.1046 -0.2248  0.0771
  581ERGO   ROH 8347   0.674   1.161  10.283  0.0531 -0.0397  0.0068
  581ERGO    R1 8348   0.576   1.206  10.021 -0.0664 -0.2370  0.0165
  581ERGO    R2 8349   0.678   1.401   9.855 -0.4250 -0.0769 -0.0210
  581ERGO    R3 8350   0.709   1.194   9.683 -0.0954 -0.0472 -0.0035
  581ERGO    R4 8351   0.734   1.434   9.515 -0.3173 -0.0142  0.0021
  581ERGO    R5 8352   0.599   1.265   9.482 -0.1007 -0.1850 -0.0532
  581ERGO    C1 8353   0.796   1.258   9.156  0.0548  0.0500  0.0316
  581ERGO    C2 8354   0.943   1.286   8.776  0.1284 -0.1691 -0.1065
  582ERGO   ROH 8355   0.235   2.565  10.294  0.0359 -0.1115  0.1126
  582ERGO    R1 8356   0.460   2.721  10.223 -0.0529 -0.0539 -0.0465
  582ERGO    R2 8357   0.686   2.736  10.380 -0.0442  0.2060 -0.0785
  582ERGO    R3 8358   0.812   2.661  10.151 -0.0274  0.0675 -0.0244
  582ERGO    R4 8359   1.028   2.751  10.327 -0.0533  0.3020 -0.1125
  582ERGO    R5 8360   0.988   2.820  10.124 -0.0945  0.1183 -0.1677
  582ERGO    C1 8361   1.344   2.688  10.081 -0.0429  0.2279 -0.0817
  582ERGO    C2 8362   1.649   2.850  10.121 -0.1598  0.1472 -0.1140
  583ERGO   ROH 8363  15.505   3.442  10.369 -0.0555 -0.0531 -0.1056
  583ERGO    R1 8364  15.594   3.313  10.133  0.0774 -0.0175 -0.0750
  583ERGO    R2 8365  15.428   3.266   9.917  0.1840 -0.0393 -0.1506
  583ERGO    R3 8366  15.623   3.398   9.780  0.2160  0.0115 -0.0579
  583ERGO    R4 8367  15.483   3.241   9.577  0.3196  0.0118 -0.1338
  583ERGO    R5 8368  15.697   3.240   9.615  0.3064  0.0430 -0.0498
  583ERGO    C1 8369  15.697   3.350   9.250  0.4287  0.0893 -0.0370
  583ERGO    C2 8370  15.670   3.214   8.847  0.0327  0.0780  0.1110
  584ERGO   ROH 8371   5.977   2.712  10.615 -0.2825  0.1217 -0.1108
  584ERGO    R1 8372   5.882   2.590  10.377 -0.1055  0.0456 -0.1441
  584ERGO    R2 8373   5.627   2.635  10.279 -0.1067 -0.1505 -0.2349
  584ERGO    R3 8374   5.762   2.703  10.052 -0.0769 -0.0491 -0.1874
  584ERGO    R4 8375   5.492   2.633   9.961 -0.0498 -0.0498 -0.2603
  584ERGO    R5 8376   5.680   2.550   9.887 -0.0275  0.0025 -0.2586
  584ERGO    C1 8377   5.539   2.696   9.563  0.0113  0.1040 -0.2305
  584ERGO    C2 8378   5.549   2.711   9.146  0.2331  0.1328 -0.0117
  585ERGO   ROH 8379  16.873  15.384  10.353 -0.0061 -0.0035 -0.0824
  585ERGO    R1 8380  16.829  15.262  10.101  0.0510 -0.0653 -0.0637
  585ERGO    R2 8381  16.606  15.316   9.947  0.0195 -0.1975 -0.0732
  585ERGO    R3 8382  16.792  15.372   9.757 -0.0062 -0.1347 -0.0786
  585ERGO    R4 8383  16.545  15.321   9.607 -0.0381 -0.0004 -0.0604
  585ERGO    R5 8384  16.738  15.225   9.576 -0.0681 -0.0225 -0.1484
  585ERGO    C1 8385  16.683  15.377   9.230 -0.0958  0.1735 -0.0579
  585ERGO    C2 8386  16.783  15.316   8.935 -0.0428 -0.1164  0.3826
  586ERGO   ROH 8387   7.447  14.836   9.891  0.0763  0.0985  0.1797
  586ERGO    R1 8388   7.512  14.757   9.627  0.0070  0.0654  0.1719
  586ERGO    R2 8389   7.372  14.847   9.406 -0.0159  0.0834  0.1914
  586ERGO    R3 8390   7.619  14.922   9.321 -0.0145  0.0208  0.1412
  586ERGO    R4 8391   7.461  14.891   9.075 -0.0602  0.0361  0.1732
  586ERGO    R5 8392   7.653  14.797   9.119 -0.0757 -0.0018  0.1470
  586ERGO    C1 8393   7.745  14.987   8.802 -0.0846 -0.0501  0.1156
  586ERGO    C2 8394   7.786  15.068   8.442 -0.0363 -0.0265 -0.0047
  587ERGO   ROH 8395   6.377   0.383  10.650 -0.1833 -0.2452 -0.1707
  587ERGO    R1 8396   6.289   0.372  10.381 -0.3520 -0.0279 -0.1270
  587ERGO    R2 8397   6.082   0.529  10.286 -0.0542  0.4626 -0.0087
  587ERGO    R3 8398   6.266   0.603  10.101  0.0331  0.0526 -0.0966
  587ERGO    R4 8399   6.009   0.631   9.964  0.0573  0.2863 -0.0916
  587ERGO    R5 8400   6.181   0.518   9.894 -0.1022 -0.0113 -0.0143
  587ERGO    C1 8401   6.139   0.761   9.603  0.2043 -0.2013 -0.2224
  587ERGO    C2 8402   6.072   0.930   9.256  0.3609 -0.1524 -0.0886
  588ERGO   ROH 8403   3.769  12.845  10.412 -0.0253 -0.3619 -0.1317
  588ERGO    R1 8404   3.625  12.835  10.168  0.0014 -0.2235 -0.1531
  588ERGO    R2 8405   3.607  13.053   9.997  0.1277 -0.1659 -0.0928
  588ERGO    R3 8406   3.702  12.876   9.815  0.0657 -0.1598 -0.1322
  588ERGO    R4 8407   3.561  13.077   9.656  0.2248 -0.0175 -0.0963
  588ERGO    R5 8408   3.530  12.862   9.649  0.0962  0.0021 -0.1799
  588ERGO    C1 8409   3.625  12.926   9.285  0.2232  0.0747 -0.1354
  588ERGO    C2 8410   3.661  12.991   9.031  0.0094  0.3414 -0.3817
  589ERGO   ROH 8411  11.657   4.974  10.285 -0.1364 -0.1001 -0.0498
  589ERGO    R1 8412  11.538   4.947  10.029 -0.0623 -0.0677 -0.0882
  589ERGO    R2 8413  11.524   5.155   9.849  0.0509 -0.0646 -0.0920
  589ERGO    R3 8414  11.645   4.977   9.683  0.0556 -0.0958 -0.0553
  589ERGO    R4 8415  11.430   5.096   9.522 -0.0112 -0.1983 -0.0504
  589ERGO    R5 8416  11.464   4.883   9.556  0.0456 -0.1811  0.0178
  589ERGO    C1 8417  11.488   4.894   9.175 -0.0430 -0.3055  0.0082
  589ERGO    C2 8418  11.336   4.884   8.893 -0.0778 -0.0136  0.0543
  590ERGO   ROH 8419   3.295   4.550  10.647 -0.1628  0.0158 -0.0924
  590ERGO    R1 8420   3.376   4.464  10.390  0.0103  0.0560 -0.0522
  590ERGO    R2 8421   3.196   4.404  10.190  0.1388 -0.1041 -0.1204
  590ERGO    R3 8422   3.343   4.584  10.048  0.0554 -0.0015 -0.0775
  590ERGO    R4 8423   3.176   4.450   9.848  0.2229 -0.1408 -0.1307
  590ERGO    R5 8424   3.393   4.472   9.843  0.2118  0.0213 -0.0547
  590ERGO    C1 8425   3.301   4.646   9.516  0.1936 -0.0659 -0.0963
  590ERGO    C2 8426   3.187   4.547   9.134  0.1568  0.0188  0.0465
  591ERGO   ROH 8427  13.660   7.611  10.232  0.3578 -0.0613  0.1021
  591ERGO    R1 8428  13.724   7.480   9.989  0.3315 -0.0175  0.0727
  591ERGO    R2 8429  13.593   7.534   9.751  0.2202 -0.0685  0.1276
  591ERGO    R3 8430  13.845   7.579   9.660  0.1655  0.0549  0.0308
  591ERGO    R4 8431  13.671   7.656   9.437  0.0337 -0.0546  0.0847
  591ERGO    R5 8432  13.837   7.515   9.429  0.1082  0.0274  0.0363
  591ERGO    C1 8433  13.953   7.769   9.169 -0.1263  0.0692 -0.0313
  591ERGO    C2 8434  13.923   7.957   8.990 -0.1046 -0.1671  0.2418
  592ERGO   ROH 8435   0.691   3.255  10.476 -0.2956 -0.2010  0.0691
  592ERGO    R1 8436   0.595   3.243  10.210 -0.2377 -0.2505  0.0505
  592ERGO    R2 8437   0.764   3.223   9.992 -0.1758  0.0062  0.0731
  592ERGO    R3 8438   0.611   3.006   9.934  0.0930 -0.1665 -0.0073
  592ERGO    R4 8439   0.678   3.122   9.673 -0.0887  0.0475  0.0362
  592ERGO    R5 8440   0.478   3.075   9.747 -0.0229 -0.2452  0.0437
  592ERGO    C1 8441   0.485   2.859   9.433  0.2144 -0.0905 -0.0607
  592ERGO    C2 8442   0.440   2.810   9.103 -0.0411  0.1343  0.1547
  593ERGO   ROH 8443   7.423   2.533  10.544 -0.2375 -0.1301  0.0557
  593ERGO    R1 8444   7.333   2.429  10.297 -0.1498 -0.0131 -0.0252
  593ERGO    R2 8445   7.314   2.583  10.069  0.0223  0.0695  0.0222
  593ERGO    R3 8446   7.469   2.386   9.962  0.0026  0.0495  0.0263
  593ERGO    R4 8447   7.321   2.497   9.734 -0.0566  0.0067  0.0350
  593ERGO    R5 8448   7.331   2.287   9.793 -0.0398  0.0140  0.0762
  593ERGO    C1 8449   7.471   2.262   9.439 -0.1211 -0.0487  0.0463
  593ERGO    C2 8450   7.371   2.274   9.110  0.0300 -0.6596 -0.5144
  594ERGO   ROH 8451   3.850  11.854  10.383 -0.1687  0.1639 -0.0223
  594ERGO    R1 8452   3.913  11.888  10.109 -0.1580  0.0585 -0.0334
  594ERGO    R2 8453   3.866  11.691   9.921 -0.1942  0.0024  0.0321
  594ERGO    R3 8454   3.730  11.890   9.795 -0.1537 -0.0126 -0.0360
  594ERGO    R4 8455   3.777  11.688   9.587 -0.0130  0.0049 -0.0176
  594ERGO    R5 8456   3.828  11.900   9.576 -0.0374  0.0106  0.0180
  594ERGO    C1 8457   3.596  11.873   9.274  0.1305 -0.0078 -0.1105
  594ERGO    C2 8458   3.535  11.630   8.972  0.0900  0.1482  0.0025
  595ERGO   ROH 8459  17.197   2.338  10.369  0.0857 -0.0835 -0.0491
  595ERGO    R1 8460  17.146   2.138  10.175  0.0910 -0.1036 -0.0287
  595ERGO    R2 8461  16.998   2.187   9.947 -0.0010 -0.1596  0.0243
  595ERGO    R3 8462  17.218   2.089   9.821 -0.0115 -0.0862 -0.0535
  595ERGO    R4 8463  17.012   2.101   9.613  0.0330  0.2818 -0.0940
  595ERGO    R5 8464  17.131   1.927   9.667 -0.0513  0.1508 -0.2944
  595ERGO    C1 8465  17.227   1.960   9.300  0.0429  0.6078 -0.2361
  595ERGO    C2 8466  17.275   1.975   8.966  0.0025  0.1396 -0.1075
  596ERGO   ROH 8467  16.333  11.972  10.118 -0.1814  0.0589 -0.0185
  596ERGO    R1 8468  16.354  11.875   9.853 -0.1870  0.0431 -0.0132
  596ERGO    R2 8469  16.195  11.969   9.647 -0.1222  0.1043 -0.0358
  596ERGO    R3 8470  16.435  12.013   9.526 -0.0864  0.0022 -0.0062
  596ERGO    R4 8471  16.245  11.983   9.305 -0.0836  0.1268 -0.0295
  596ERGO    R5 8472  16.431  11.872   9.333 -0.1388  0.0289 -0.0263
  596ERGO    C1 8473  16.499  12.032   8.993 -0.0275  0.0440  0.0021
  596ERGO    C2 8474  16.631  12.267   8.732  0.1579 -0.2621  0.1945
  597ERGO   ROH 8475   5.299   8.709  10.238  0.0073 -0.1700  0.0433
  597ERGO    R1 8476   5.269   8.566   9.996 -0.0352  0.0155 -0.0628
  597ERGO    R2 8477   5.084   8.637   9.803  0.0063  0.2305 -0.0268
  597ERGO    R3 8478   5.303   8.639   9.641  0.0185  0.2577 -0.0099
  597ERGO    R4 8479   5.074   8.634   9.457  0.0359  0.0406 -0.0267
  597ERGO    R5 8480   5.242   8.495   9.459  0.1080  0.1287  0.0611
  597ERGO    C1 8481   5.273   8.633   9.104  0.0645 -0.0445 -0.0106
  597ERGO    C2 8482   5.189   8.644   8.815  0.2697 -0.2260 -0.4039
  598ERGO   ROH 8483   8.418  15.099  10.286  0.0590  0.0137  0.0762
  598ERGO    R1 8484   8.578  15.060  10.055 -0.0153  0.0990  0.0102
  598ERGO    R2 8485   8.481  14.941   9.826 -0.0478  0.0520  0.0508
  598ERGO    R3 8486   8.572  15.169   9.708 -0.2128  0.0994  0.0117
  598ERGO    R4 8487   8.526  14.984   9.485  0.0493 -0.0269  0.0528
  598ERGO    R5 8488   8.710  15.092   9.528 -0.0655  0.1625  0.0933
  598ERGO    C1 8489   8.637  15.223   9.177 -0.0491 -0.0283  0.0174
  598ERGO    C2 8490   8.647  15.302   8.930 -0.4278  0.1302  0.0411
  599ERGO   ROH 8491   0.822   4.137  10.427  0.1415 -0.2654 -0.0129
  599ERGO    R1 8492   0.920   4.244  10.183  0.1142 -0.2226 -0.0050
  599ERGO    R2 8493   1.058   4.091   9.999 -0.0216 -0.2226 -0.1072
  599ERGO    R3 8494   0.867   4.183   9.828 -0.0326 -0.0639 -0.0117
  599ERGO    R4 8495   1.078   4.078   9.654 -0.1212 -0.0644 -0.1204
  599ERGO    R5 8496   0.990   4.278   9.646 -0.0447 -0.0247  0.0001
  599ERGO    C1 8497   0.911   4.157   9.293 -0.1895  0.1768 -0.0382
  599ERGO    C2 8498   0.906   4.156   8.950 -0.4529 -0.0196  0.0223
  600ERGO   ROH 8499   5.340  13.082  10.327 -0.0819  0.2964 -0.0873
  600ERGO    R1 8500   5.215  13.122  10.076  0.0830  0.2851 -0.1735
  600ERGO    R2 8501   5.346  13.085   9.836  0.1719  0.0275 -0.0904
  600ERGO    R3 8502   5.137  12.919   9.784  0.0357  0.2008 -0.1023
  600ERGO    R4 8503   5.251  12.981   9.521  0.2322 -0.0628 -0.0790
  600ERGO    R5 8504   5.043  13.005   9.581  0.2237  0.1759 -0.2002
  600ERGO    C1 8505   5.000  12.765   9.288  0.1394  0.0474 -0.0834
  600ERGO    C2 8506   4.891  12.490   9.056 -0.3014 -0.1957  0.1216
  601ERGO   ROH 8507   6.288  10.495  10.151  0.1973 -0.1180 -0.0827
  601ERGO    R1 8508   6.176  10.544   9.896  0.0682 -0.1493 -0.0329
  601ERGO    R2 8509   6.307  10.690   9.701 -0.1182  0.0106 -0.0447
  601ERGO    R3 8510   6.261  10.469   9.550  0.0166  0.0056 -0.0793
  601ERGO    R4 8511   6.311  10.683   9.356 -0.1238  0.0622 -0.0458
  601ERGO    R5 8512   6.138  10.551   9.361 -0.0386 -0.0457 -0.0627
  601ERGO    C1 8513   6.270  10.471   9.012 -0.0007  0.0876 -0.0790
  601ERGO    C2 8514   6.111  10.556   8.703 -0.3978 -0.1970  0.1083
  602ERGO   ROH 8515   5.669   6.023  10.406  0.2288 -0.1375 -0.1252
  602ERGO    R1 8516   5.616   6.123  10.146  0.0384 -0.0272 -0.0459
  602ERGO    R2 8517   5.781   6.304  10.020  0.0145 -0.0707 -0.1413
  602ERGO    R3 8518   5.780   6.117   9.822 -0.2630 -0.0083 -0.2025
  602ERGO    R4 8519   5.795   6.374   9.681  0.1290  0.0221 -0.1176
  602ERGO    R5 8520   5.649   6.216   9.648 -0.1126  0.2502 -0.1743
  602ERGO    C1 8521   5.802   6.240   9.299 -0.0648  0.1348 -0.1614
  602ERGO    C2 8522   5.821   6.419   8.941 -0.3914  0.3000 -0.2358
  603ERGO   ROH 8523  16.595  14.251  10.158  0.0549 -0.0826  0.0203
  603ERGO    R1 8524  16.694  14.388   9.930 -0.0987 -0.0419 -0.0246
  603ERGO    R2 8525  16.964  14.406   9.874 -0.1181  0.1824 -0.0708
  603ERGO    R3 8526  16.888  14.302   9.634 -0.0690  0.0629 -0.0346
  603ERGO    R4 8527  17.129  14.457   9.574 -0.0601  0.0274 -0.0654
  603ERGO    R5 8528  16.936  14.475   9.476 -0.0367 -0.0208 -0.1133
  603ERGO    C1 8529  17.154  14.389   9.175  0.0200 -0.1750 -0.0281
  603ERGO    C2 8530  17.231  14.393   8.823 -0.3892  0.3114  0.0217
  604ERGO   ROH 8531   1.294  11.519  10.147  0.1644 -0.2602 -0.0482
  604ERGO    R1 8532   1.377  11.537   9.877  0.1361 -0.3264 -0.0620
  604ERGO    R2 8533   1.374  11.320   9.705 -0.1132 -0.3149 -0.0781
  604ERGO    R3 8534   1.226  11.487   9.550  0.0259 -0.1528 -0.0383
  604ERGO    R4 8535   1.337  11.290   9.363 -0.2888 -0.3129 -0.0599
  604ERGO    R5 8536   1.352  11.507   9.347 -0.0305 -0.3319 -0.0919
  604ERGO    C1 8537   1.177  11.430   9.017 -0.2605 -0.1595 -0.0118
  604ERGO    C2 8538   1.183  11.291   8.732 -0.2200  0.2019  0.1015
  605ERGO   ROH 8539  10.411  14.814  10.494  0.0239 -0.0330  0.0056
  605ERGO    R1 8540  10.291  14.788  10.239  0.0282 -0.1523  0.0154
  605ERGO    R2 8541  10.260  15.002  10.067 -0.2155 -0.1775  0.0255
  605ERGO    R3 8542  10.392  14.839   9.893 -0.0558 -0.0321  0.0080
  605ERGO    R4 8543  10.205  14.991   9.726 -0.2372 -0.2255  0.0303
  605ERGO    R5 8544  10.225  14.774   9.734 -0.0032 -0.2071  0.0218
  605ERGO    C1 8545  10.298  14.833   9.364 -0.1001 -0.1171  0.0165
  605ERGO    C2 8546  10.273  15.077   9.061  0.1889 -0.0814 -0.2174
  606ERGO   ROH 8547  10.297  12.165  10.119 -0.0263  0.0053  0.0925
  606ERGO    R1 8548  10.324  12.020   9.877 -0.0575 -0.0351  0.1129
  606ERGO    R2 8549  10.107  11.955   9.718 -0.0714  0.0007  0.1137
  606ERGO    R3 8550  10.254  12.078   9.525 -0.0312 -0.0634  0.1036
  606ERGO    R4 8551  10.075  11.898   9.378 -0.2206  0.1261  0.1055
  606ERGO    R5 8552  10.292  11.907   9.361 -0.2193 -0.0456  0.0416
  606ERGO    C1 8553  10.195  11.980   9.000 -0.2698  0.1390  0.0913
  606ERGO    C2 8554  10.024  11.834   8.703  0.2596  0.1304 -0.4908
  607ERGO   ROH 8555  16.018  16.667  10.250  0.0163 -0.1504 -0.0537
  607ERGO    R1 8556  15.924  16.524  10.025 -0.0420 -0.0550 -0.0915
  607ERGO    R2 8557  15.655  16.508   9.960 -0.0529  0.0648 -0.0941
  607ERGO    R3 8558  15.741  16.602   9.720 -0.0164  0.0984 -0.0669
  607ERGO    R4 8559  15.553  16.388   9.653 -0.0119  0.1221 -0.1293
  607ERGO    R5 8560  15.758  16.407   9.583 -0.0053  0.1243 -0.0970
  607ERGO    C1 8561  15.575  16.406   9.248  0.0461  0.1869 -0.1245
  607ERGO    C2 8562  15.621  16.520   9.042 -0.0576  0.0210 -0.1319
  608ERGO   ROH 8563   3.905  14.455  10.393  0.2206 -0.0030  0.1042
  608ERGO    R1 8564   4.029  14.389  10.147  0.1752  0.1294  0.0457
  608ERGO    R2 8565   3.888  14.295   9.929  0.1724 -0.0226  0.1197
  608ERGO    R3 8566   4.010  14.502   9.802 -0.1086  0.1058  0.0492
  608ERGO    R4 8567   3.914  14.327   9.586  0.4042 -0.2931  0.1071
  608ERGO    R5 8568   4.118  14.400   9.614  0.2565  0.1268  0.2312
  608ERGO    C1 8569   4.044  14.541   9.267  0.2754 -0.3301  0.0337
  608ERGO    C2 8570   4.040  14.665   8.966  0.0378  0.3265 -0.0687
  609ERGO   ROH 8571  10.280   1.339  10.189  0.0636 -0.2231 -0.0307
  609ERGO    R1 8572  10.157   1.247   9.951 -0.0053 -0.1297 -0.0314
  609ERGO    R2 8573   9.998   1.409   9.793 -0.0112 -0.0530  0.0517
  609ERGO    R3 8574  10.169   1.331   9.597 -0.0677 -0.0255 -0.0091
  609ERGO    R4 8575   9.955   1.473   9.456 -0.0668  0.0595  0.0793
  609ERGO    R5 8576  10.027   1.272   9.414 -0.1156  0.0596  0.0015
  609ERGO    C1 8577  10.091   1.436   9.076 -0.1521  0.1508  0.0385
  609ERGO    C2 8578  10.124   1.596   8.751 -0.1655  0.1643  0.0212
  610ERGO   ROH 8579   1.437   8.725  10.529  0.0475 -0.1138  0.1362
  610ERGO    R1 8580   1.424   8.816  10.262 -0.0180 -0.2572  0.0902
  610ERGO    R2 8581   1.619   8.977  10.150 -0.2232 -0.0234  0.0682
  610ERGO    R3 8582   1.627   8.782   9.961  0.1117 -0.1040  0.1573
  610ERGO    R4 8583   1.544   9.024   9.816 -0.3502 -0.3056  0.0537
  610ERGO    R5 8584   1.441   8.831   9.817 -0.0041 -0.5035  0.1528
  610ERGO    C1 8585   1.508   8.868   9.443 -0.1097 -0.5456  0.1288
  610ERGO    C2 8586   1.303   8.835   9.165  0.1158  0.3174  0.3590
  611ERGO   ROH 8587  16.877   8.402  10.479  0.1101 -0.0302  0.1366
  611ERGO    R1 8588  16.869   8.492  10.211  0.0228 -0.0100  0.1466
  611ERGO    R2 8589  17.096   8.565  10.071 -0.0192 -0.0537  0.0622
  611ERGO    R3 8590  17.004   8.384   9.891 -0.1320 -0.0175  0.0811
  611ERGO    R4 8591  17.128   8.593   9.728  0.1335 -0.1713  0.0650
  611ERGO    R5 8592  16.925   8.516   9.708  0.0591  0.0162  0.0161
  611ERGO    C1 8593  17.060   8.439   9.359  0.1163 -0.2058  0.0845
  611ERGO    C2 8594  17.264   8.544   9.041 -0.1499  0.0109  0.1300
  612ERGO   ROH 8595  13.572   8.970   9.780  0.1018 -0.0291  0.0294
  612ERGO    R1 8596  13.425   8.863   9.563 -0.0128  0.0361  0.0745
  612ERGO    R2 8597  13.329   9.020   9.356  0.0060  0.0764  0.0952
  612ERGO    R3 8598  13.464   8.840   9.202 -0.1252  0.0036  0.0642
  612ERGO    R4 8599  13.286   8.980   9.015 -0.0254  0.1626  0.0893
  612ERGO    R5 8600  13.301   8.765   9.043 -0.1815  0.1470  0.0533
  612ERGO    C1 8601  13.387   8.789   8.672 -0.1670  0.1444  0.0566
  612ERGO    C2 8602  13.380   8.642   8.382  0.0084 -0.0993  0.0811
  613ERGO   ROH 8603   9.218   9.383   9.956  0.0569 -0.2212 -0.1313
  613ERGO    R1 8604   9.018   9.465   9.774  0.0885 -0.2495 -0.1793
  613ERGO    R2 8605   8.938   9.728   9.750 -0.1056 -0.2909 -0.0336
  613ERGO    R3 8606   8.997   9.689   9.488  0.0689 -0.0611 -0.0323
  613ERGO    R4 8607   8.794   9.900   9.487 -0.2156 -0.3315 -0.0002
  613ERGO    R5 8608   8.787   9.713   9.375  0.0858 -0.2785 -0.1130
  613ERGO    C1 8609   8.765   9.963   9.087 -0.1160 -0.1393  0.0204
  613ERGO    C2 8610   8.700  10.024   8.740  0.0985 -0.0217 -0.1319
  614ERGO   ROH 8611  14.403   4.795  10.537 -0.0167 -0.1183 -0.1407
  614ERGO    R1 8612  14.288   4.766  10.280  0.0099 -0.1559 -0.1480
  614ERGO    R2 8613  14.350   4.932  10.069 -0.0274 -0.1388 -0.1435
  614ERGO    R3 8614  14.406   4.698   9.943  0.0529 -0.1219 -0.1405
  614ERGO    R4 8615  14.372   4.892   9.726 -0.3026 -0.1920 -0.1572
  614ERGO    R5 8616  14.268   4.701   9.747 -0.1297 -0.2757 -0.0206
  614ERGO    C1 8617  14.437   4.649   9.408 -0.3874 -0.2071 -0.1624
  614ERGO    C2 8618  14.456   4.614   9.068  0.0157  0.1434 -0.1401
  615ERGO   ROH 8619   7.745   8.094  10.377  0.1448  0.1924  0.0139
  615ERGO    R1 8620   7.796   7.921  10.158  0.0921  0.2620 -0.0551
  615ERGO    R2 8621   7.593   7.805  10.010  0.0453  0.0575  0.1513
  615ERGO    R3 8622   7.725   7.918   9.801 -0.2959  0.2224  0.0195
  615ERGO    R4 8623   7.533   7.733   9.678  0.0053 -0.2183  0.2168
  615ERGO    R5 8624   7.748   7.739   9.643 -0.0268  0.1950  0.0938
  615ERGO    C1 8625   7.621   7.797   9.288 -0.3383 -0.2239  0.1312
  615ERGO    C2 8626   7.498   7.879   8.981  0.0582 -0.1783  0.2775
  616ERGO   ROH 8627   5.734  15.047  10.379  0.1313 -0.1850 -0.0851
  616ERGO    R1 8628   5.575  15.058  10.146  0.0837 -0.3804 -0.0636
  616ERGO    R2 8629   5.582  15.272   9.971 -0.4124 -0.2257  0.0890
  616ERGO    R3 8630   5.632  15.078   9.787  0.0212  0.0092 -0.0570
  616ERGO    R4 8631   5.545  15.310   9.629 -0.6830 -0.0997  0.1290
  616ERGO    R5 8632   5.462  15.109   9.621 -0.1556 -0.3346  0.0493
  616ERGO    C1 8633   5.571  15.150   9.258 -0.4335  0.1943  0.0151
  616ERGO    C2 8634   5.448  15.065   9.023  0.1563 -0.0687 -0.2435
  617ERGO   ROH 8635  14.769   0.839  10.465  0.0143 -0.0776 -0.0231
  617ERGO    R1 8636  14.855   0.836  10.195  0.0721 -0.1167 -0.0051
  617ERGO    R2 8637  15.065   0.679  10.107  0.0885 -0.1333  0.0605
  617ERGO    R3 8638  14.880   0.590   9.928  0.1248 -0.1543  0.0345
  617ERGO    R4 8639  15.119   0.643   9.768  0.0192  0.2672  0.0023
  617ERGO    R5 8640  14.919   0.721   9.732 -0.0803  0.0888  0.1501
  617ERGO    C1 8641  14.978   0.538   9.403  0.0127  0.4806 -0.0560
  617ERGO    C2 8642  14.921   0.487   9.170  0.1715 -0.3957  0.3854
  618ERGO   ROH 8643   7.893   2.439  10.496  0.0837 -0.0158  0.1457
  618ERGO    R1 8644   7.794   2.488  10.235  0.0348 -0.1423  0.1404
  618ERGO    R2 8645   7.952   2.594  10.034 -0.1036  0.1128  0.1667
  618ERGO    R3 8646   7.871   2.373   9.898  0.2422 -0.0014  0.1374
  618ERGO    R4 8647   7.975   2.554   9.691 -0.2121  0.2809  0.1379
  618ERGO    R5 8648   7.779   2.459   9.694 -0.0384 -0.1002  0.2169
  618ERGO    C1 8649   7.913   2.323   9.364  0.0494  0.2715  0.0937
  618ERGO    C2 8650   8.083   2.324   9.152  0.2335  0.0012 -0.0465
  619ERGO   ROH 8651   9.621   4.445   9.599  0.2518 -0.2259  0.1057
  619ERGO    R1 8652   9.484   4.437   9.351  0.0811 -0.1462  0.1946
  619ERGO    R2 8653   9.602   4.512   9.112 -0.0701 -0.0972  0.1257
  619ERGO    R3 8654   9.522   4.264   9.034 -0.1504 -0.0701  0.1253
  619ERGO    R4 8655   9.617   4.392   8.789  0.0082 -0.1606  0.1535
  619ERGO    R5 8656   9.423   4.298   8.819 -0.0413 -0.0635  0.0821
  619ERGO    C1 8657   9.551   4.089   8.526 -0.0215 -0.1720  0.1692
  619ERGO    C2 8658   9.419   3.873   8.294 -0.1327 -0.2581  0.3223
  620ERGO   ROH 8659  10.518   4.730  10.070  0.1644  0.0959  0.0123
  620ERGO    R1 8660  10.608   4.812   9.814  0.1462  0.0746  0.0007
  620ERGO    R2 8661  10.557   4.668   9.585  0.0886  0.0844  0.0159
  620ERGO    R3 8662  10.456   4.904   9.497  0.1257  0.1024  0.0161
  620ERGO    R4 8663  10.502   4.747   9.253  0.0017  0.0413  0.0185
  620ERGO    R5 8664  10.576   4.948   9.294  0.0764  0.0329 -0.0350
  620ERGO    C1 8665  10.375   5.016   8.977 -0.0143  0.0331  0.0202
  620ERGO    C2 8666  10.281   5.159   8.584 -0.0132  0.1862 -0.2652
  621ERGO   ROH 8667  12.790   3.286  10.286  0.0400  0.1751  0.0070
  621ERGO    R1 8668  12.674   3.202  10.041  0.1634  0.0655 -0.0156
  621ERGO    R2 8669  12.520   3.370   9.885  0.0829 -0.0595 -0.0752
  621ERGO    R3 8670  12.697   3.299   9.691  0.1875  0.0461 -0.0188
  621ERGO    R4 8671  12.463   3.395   9.545  0.1260 -0.2219 -0.0952
  621ERGO    R5 8672  12.562   3.204   9.518  0.3120 -0.1366 -0.0157
  621ERGO    C1 8673  12.597   3.344   9.165  0.2494 -0.2173 -0.0539
  621ERGO    C2 8674  12.403   3.564   8.866  0.1482 -0.0344 -0.1778
  622ERGO   ROH 8675  15.377  12.258  10.304 -0.1176  0.2594 -0.1003
  622ERGO    R1 8676  15.286  12.106  10.084 -0.0273  0.0915 -0.0223
  622ERGO    R2 8677  15.102  12.203   9.902 -0.0633 -0.1030 -0.0840
  622ERGO    R3 8678  15.294  12.135   9.721 -0.0226 -0.1074 -0.0407
  622ERGO    R4 8679  15.053  12.180   9.560  0.0784  0.2046 -0.1296
  622ERGO    R5 8680  15.178  12.001   9.559 -0.0527  0.1032 -0.2039
  622ERGO    C1 8681  15.204  12.102   9.192  0.1992  0.3794 -0.1154
  622ERGO    C2 8682  15.378  12.215   8.966  0.4566  0.0498 -0.4221
  623ERGO   ROH 8683  17.109   4.737  10.088  0.0454  0.0267 -0.0975
  623ERGO    R1 8684  17.164   4.848   9.833  0.0410  0.1302 -0.0553
  623ERGO    R2 8685  17.360   4.747   9.666  0.0986  0.2479 -0.0698
  623ERGO    R3 8686  17.156   4.733   9.488  0.1203  0.2386 -0.0920
  623ERGO    R4 8687  17.397   4.690   9.327  0.1091 -0.0534 -0.0202
  623ERGO    R5 8688  17.241   4.838   9.291  0.2172  0.0178 -0.1655
  623ERGO    C1 8689  17.226   4.644   8.962  0.1357 -0.2377 -0.0121
  623ERGO    C2 8690  17.319   4.358   8.742  0.2053  0.2579 -0.0449
  624ERGO   ROH 8691   2.905   5.331  10.406 -0.2052  0.4565  0.0507
  624ERGO    R1 8692   2.899   5.443  10.146 -0.0062  0.3634  0.0048
  624ERGO    R2 8693   3.124   5.544  10.023  0.1877 -0.1101 -0.0496
  624ERGO    R3 8694   3.054   5.371   9.825 -0.1487 -0.0655  0.0243
  624ERGO    R4 8695   3.067   5.634   9.694  0.3576 -0.1330 -0.0864
  624ERGO    R5 8696   2.899   5.495   9.690  0.0828  0.1838 -0.0244
  624ERGO    C1 8697   2.968   5.524   9.316  0.1407 -0.1046 -0.0384
  624ERGO    C2 8698   2.870   5.817   9.049  0.0109 -0.0182  0.1088
  625ERGO   ROH 8699  16.571  12.906  10.164 -0.0550  0.2858 -0.0258
  625ERGO    R1 8700  16.589  12.846   9.888  0.0488  0.1285  0.0141
  625ERGO    R2 8701  16.371  12.857   9.719  0.1062 -0.0013 -0.0675
  625ERGO    R3 8702  16.532  13.023   9.575  0.1305 -0.0612 -0.1102
  625ERGO    R4 8703  16.315  12.953   9.391  0.0094  0.0793 -0.0281
  625ERGO    R5 8704  16.529  12.932   9.354 -0.0149 -0.0260 -0.1248
  625ERGO    C1 8705  16.434  13.163   9.066 -0.0244  0.0700 -0.0453
  625ERGO    C2 8706  16.190  13.378   8.927 -0.3070  0.3171 -0.1106
  626ERGO   ROH 8707  17.426  12.190  10.154  0.1205 -0.1761 -0.0570
  626ERGO    R1 8708  17.329  12.258   9.898  0.1844 -0.0273 -0.0422
  626ERGO    R2 8709  17.470  12.418   9.722  0.3420 -0.1333 -0.0093
  626ERGO    R3 8710  17.434  12.208   9.553  0.1300 -0.0641 -0.0542
  626ERGO    R4 8711  17.507  12.432   9.379  0.3456 -0.0926 -0.0080
  626ERGO    R5 8712  17.331  12.305   9.359  0.2164  0.0815 -0.0308
  626ERGO    C1 8713  17.494  12.244   9.020  0.1488 -0.0040 -0.0493
  626ERGO    C2 8714  17.478  12.190   8.634 -0.0953  0.0442  0.0949
  627ERGO   ROH 8715  14.706   3.311  10.313 -0.0458 -0.1237 -0.0104
  627ERGO    R1 8716  14.745   3.191  10.059 -0.1969 -0.2309  0.0157
  627ERGO    R2 8717  14.543   3.059   9.925 -0.4392  0.1903 -0.0566
  627ERGO    R3 8718  14.608   3.231   9.724  0.0214  0.0469 -0.0440
  627ERGO    R4 8719  14.444   3.025   9.595 -0.2642  0.3263 -0.1258
  627ERGO    R5 8720  14.642   3.090   9.534 -0.0963 -0.0455  0.0047
  627ERGO    C1 8721  14.446   3.167   9.216  0.2701  0.2708 -0.1542
  627ERGO    C2 8722  14.221   3.002   9.015  0.1550  0.1854 -0.2901
  628ERGO   ROH 8723   8.566   1.202  10.313  0.1067 -0.0137 -0.0924
  628ERGO    R1 8724   8.485   1.066  10.078 -0.0269 -0.0256 -0.0400
  628ERGO    R2 8725   8.394   1.198   9.853  0.0054 -0.0283 -0.0533
  628ERGO    R3 8726   8.589   1.055   9.730 -0.1083 -0.1800 -0.0606
  628ERGO    R4 8727   8.423   1.156   9.511  0.0860  0.1423 -0.0688
  628ERGO    R5 8728   8.479   0.948   9.546 -0.1632  0.0533 -0.1677
  628ERGO    C1 8729   8.623   0.997   9.196  0.0262  0.0993 -0.0846
  628ERGO    C2 8730   8.754   0.960   8.984  0.1591  0.0366 -0.1767
  629ERGO   ROH 8731  13.034   0.529  10.427 -0.0460  0.0515 -0.0458
  629ERGO    R1 8732  13.019   0.395  10.178  0.0026  0.0029 -0.0226
  629ERGO    R2 8733  12.815   0.439   9.997  0.0564 -0.0060 -0.0861
  629ERGO    R3 8734  13.021   0.490   9.827  0.1092 -0.0681 -0.0416
  629ERGO    R4 8735  12.794   0.431   9.652  0.1132  0.0720 -0.0920
  629ERGO    R5 8736  12.989   0.335   9.647  0.0693 -0.0176 -0.0772
  629ERGO    C1 8737  12.974   0.474   9.292  0.1959  0.0591 -0.0536
  629ERGO    C2 8738  13.083   0.516   8.989  0.0262 -0.0819  0.0211
  630ERGO   ROH 8739   9.419   4.066   9.919  0.0680  0.0797 -0.0255
  630ERGO    R1 8740   9.391   4.010   9.643  0.1108  0.2187 -0.0602
  630ERGO    R2 8741   9.165   3.888   9.539  0.2522 -0.0125 -0.1115
  630ERGO    R3 8742   9.163   4.105   9.376 -0.0498  0.0959  0.0313
  630ERGO    R4 8743   9.071   3.885   9.206  0.0818  0.1166 -0.0647
  630ERGO    R5 8744   9.235   4.021   9.163 -0.0765  0.3089 -0.0628
  630ERGO    C1 8745   9.014   4.087   8.860 -0.3009  0.2935  0.0966
  630ERGO    C2 8746   8.984   3.995   8.515 -0.0626  0.2639  0.3012
  631ERGO   ROH 8747   5.775   8.333  10.453 -0.2183  0.0392  0.0219
  631ERGO    R1 8748   5.644   8.144  10.288 -0.0109 -0.0231 -0.0744
  631ERGO    R2 8749   5.445   8.216  10.109 -0.1191 -0.1546 -0.0072
  631ERGO    R3 8750   5.606   8.088   9.930  0.0164  0.1427 -0.1044
  631ERGO    R4 8751   5.370   8.164   9.775 -0.0750 -0.0037 -0.0414
  631ERGO    R5 8752   5.455   7.965   9.791  0.1436  0.0740 -0.1846
  631ERGO    C1 8753   5.476   8.015   9.414  0.0779  0.3632 -0.1525
  631ERGO    C2 8754   5.377   8.095   9.140  0.0167  0.2531 -0.2169
  632ERGO   ROH 8755   2.542  11.000   9.865 -0.2013  0.0442  0.0403
  632ERGO    R1 8756   2.424  10.909   9.625 -0.0852  0.0329 -0.0135
  632ERGO    R2 8757   2.185  11.009   9.529 -0.1357 -0.1043 -0.0358
  632ERGO    R3 8758   2.330  11.053   9.304 -0.1155  0.0651  0.0099
  632ERGO    R4 8759   2.051  11.078   9.218 -0.1141 -0.1150 -0.0472
  632ERGO    R5 8760   2.203  10.949   9.130  0.0007  0.0207 -0.0485
  632ERGO    C1 8761   2.110  11.160   8.826 -0.0825  0.0379 -0.0108
  632ERGO    C2 8762   2.016  11.241   8.624  0.0181  0.1229 -0.0168
  633ERGO   ROH 8763   4.627  16.414  10.014  0.0916 -0.0915  0.0937
  633ERGO    R1 8764   4.707  16.499   9.757  0.0668 -0.0896  0.0869
  633ERGO    R2 8765   4.756  16.322   9.550  0.0050 -0.0844  0.0704
  633ERGO    R3 8766   4.576  16.478   9.418  0.0124 -0.0459  0.1045
  633ERGO    R4 8767   4.772  16.400   9.213  0.0300  0.0138  0.0934
  633ERGO    R5 8768   4.709  16.603   9.262  0.0247  0.0012  0.1503
  633ERGO    C1 8769   4.612  16.590   8.893  0.0514  0.1073  0.1389
  633ERGO    C2 8770   4.708  16.471   8.598  0.1454 -0.1673 -0.0650
  634ERGO   ROH 8771   8.896   5.420  10.477 -0.1292  0.0556  0.0120
  634ERGO    R1 8772   8.787   5.552  10.252 -0.1099  0.0084 -0.0260
  634ERGO    R2 8773   8.940   5.706  10.080 -0.1164  0.0818  0.0286
  634ERGO    R3 8774   8.832   5.543   9.891  0.0252  0.0314 -0.0090
  634ERGO    R4 8775   8.970   5.752   9.739  0.0309  0.0524  0.0372
  634ERGO    R5 8776   8.762   5.691   9.717  0.0632 -0.0121 -0.0579
  634ERGO    C1 8777   8.886   5.625   9.363  0.2497 -0.0120  0.0069
  634ERGO    C2 8778   8.886   5.513   9.064  0.1246 -0.1490 -0.0439
  635ERGO   ROH 8779   7.635  17.483  10.145 -0.1952 -0.0654 -0.0709
  635ERGO    R1 8780   7.713  17.560   9.884 -0.1411  0.0334 -0.0265
  635ERGO    R2 8781   7.794  17.377   9.694 -0.0107  0.1145 -0.0506
  635ERGO    R3 8782   7.600  17.495   9.545 -0.0086  0.0796 -0.0806
  635ERGO    R4 8783   7.775  17.365   9.349  0.1407  0.2494 -0.0650
  635ERGO    R5 8784   7.714  17.574   9.350  0.0347  0.2197 -0.0004
  635ERGO    C1 8785   7.580  17.468   9.008  0.2309  0.2952 -0.1016
  635ERGO    C2 8786   7.487  17.475   8.761  0.2061 -0.1057 -0.1296
  636ERGO   ROH 8787   7.370   8.458  10.230 -0.2379  0.0836 -0.1813
  636ERGO    R1 8788   7.490   8.419   9.976 -0.1477  0.0443 -0.1342
  636ERGO    R2 8789   7.408   8.220   9.802 -0.0945  0.0215 -0.1408
  636ERGO    R3 8790   7.382   8.428   9.629 -0.0249  0.0024 -0.1726
  636ERGO    R4 8791   7.395   8.190   9.458 -0.2762 -0.0384 -0.1289
  636ERGO    R5 8792   7.521   8.368   9.443 -0.1566 -0.1341 -0.2244
  636ERGO    C1 8793   7.364   8.367   9.095 -0.3166 -0.0912 -0.1519
  636ERGO    C2 8794   7.177   8.296   8.782 -0.0970  0.6113  0.1042
  637ERGO   ROH 8795   7.996  13.179  10.485  0.1290  0.0044  0.0465
  637ERGO    R1 8796   7.966  13.208  10.205  0.2207 -0.1038  0.0241
  637ERGO    R2 8797   7.878  13.443  10.088 -0.1124 -0.2645 -0.0686
  637ERGO    R3 8798   8.107  13.419   9.944  0.0074  0.0814  0.0568
  637ERGO    R4 8799   7.905  13.499   9.748  0.0169 -0.1492 -0.0397
  637ERGO    R5 8800   8.037  13.327   9.735  0.2594  0.0346 -0.0066
  637ERGO    C1 8801   8.136  13.510   9.415  0.2046  0.2428  0.0949
  637ERGO    C2 8802   8.062  13.430   9.115 -0.0264  0.0034 -0.1405
  638ERGO   ROH 8803   6.547  12.463  10.169  0.0172  0.0587  0.1731
  638ERGO    R1 8804   6.664  12.338   9.943  0.0906  0.1682  0.1492
  638ERGO    R2 8805   6.514  12.230   9.737  0.1447 -0.0307  0.2076
  638ERGO    R3 8806   6.668  12.392   9.584 -0.0904  0.1366  0.1421
  638ERGO    R4 8807   6.580  12.181   9.402  0.0353  0.0644  0.1718
  638ERGO    R5 8808   6.785  12.243   9.438 -0.0097  0.2670  0.0754
  638ERGO    C1 8809   6.764  12.305   9.062 -0.2491  0.2769  0.0894
  638ERGO    C2 8810   6.703  12.182   8.729 -0.0804  0.5192 -0.2196
  639ERGO   ROH 8811   0.329  10.335  10.199 -0.0304  0.1871 -0.0391
  639ERGO    R1 8812   0.317  10.264   9.926  0.0504  0.1808 -0.0410
  639ERGO    R2 8813   0.091  10.302   9.772 -0.0039 -0.0979 -0.0323
  639ERGO    R3 8814   0.262  10.437   9.610 -0.1765  0.1249 -0.0343
  639ERGO    R4 8815   0.101  10.273   9.427  0.0523 -0.1167 -0.0295
  639ERGO    R5 8816   0.319  10.279   9.438  0.0488  0.1822 -0.0175
  639ERGO    C1 8817   0.267  10.384   9.075 -0.0770  0.0815 -0.0296
  639ERGO    C2 8818   0.198  10.200   8.809  0.1823  0.2152 -0.1047
  640ERGO   ROH 8819   5.407   4.305  10.299  0.3251  0.1242 -0.2757
  640ERGO    R1 8820   5.253   4.226  10.075  0.2473 -0.0348 -0.1670
  640ERGO    R2 8821   5.113   4.406   9.920 -0.0321 -0.1778 -0.0802
  640ERGO    R3 8822   5.254   4.292   9.717 -0.0619 -0.0514 -0.1744
  640ERGO    R4 8823   5.048   4.452   9.584 -0.0838  0.0458 -0.0419
  640ERGO    R5 8824   5.089   4.241   9.552 -0.0920  0.0601 -0.1847
  640ERGO    C1 8825   5.142   4.372   9.198 -0.1418  0.2947 -0.1081
  640ERGO    C2 8826   5.158   4.447   8.842  0.1146  0.0425 -0.0532
  641ERGO   ROH 8827   5.992   9.716  10.229 -0.2477  0.1708  0.0182
  641ERGO    R1 8828   6.068   9.678   9.959 -0.0279  0.2890  0.0609
  641ERGO    R2 8829   5.964   9.476   9.803  0.3830  0.1117 -0.0027
  641ERGO    R3 8830   5.903   9.681   9.635  0.1474  0.0200 -0.0335
  641ERGO    R4 8831   5.960   9.454   9.458  0.4145  0.0639  0.0002
  641ERGO    R5 8832   6.052   9.652   9.449  0.1848  0.1696 -0.0254
  641ERGO    C1 8833   5.902   9.635   9.099  0.2118 -0.0501 -0.0270
  641ERGO    C2 8834   5.972   9.820   8.760  0.2638  0.3724  0.0809
  642ERGO   ROH 8835   4.338  11.065  10.259  0.0418  0.0272 -0.0905
  642ERGO    R1 8836   4.485  11.028  10.020 -0.1145 -0.1826 -0.1587
  642ERGO    R2 8837   4.374  10.921   9.791 -0.4344  0.1570 -0.1751
  642ERGO    R3 8838   4.467  11.150   9.677  0.0204  0.0210 -0.0949
  642ERGO    R4 8839   4.365  10.991   9.453 -0.4423  0.3624 -0.1335
  642ERGO    R5 8840   4.565  11.078   9.471 -0.2347 -0.0857 -0.1791
  642ERGO    C1 8841   4.448  11.246   9.149 -0.0200  0.3543 -0.0341
  642ERGO    C2 8842   4.478  11.411   8.878  0.2323 -0.0523 -0.0867
  643ERGO   ROH 8843   8.077  17.668  10.169 -0.2248 -0.0493  0.0891
  643ERGO    R1 8844   8.140  17.787   9.920 -0.0842  0.0208  0.1573
  643ERGO    R2 8845   8.251  17.646   9.710  0.0091  0.0746  0.1723
  643ERGO    R3 8846   8.039  17.745   9.573  0.0908  0.1379  0.0897
  643ERGO    R4 8847   8.212  17.627   9.367  0.0675 -0.0541  0.1718
  643ERGO    R5 8848   8.134  17.831   9.371  0.1824 -0.0042  0.0685
  643ERGO    C1 8849   7.990  17.710   9.039  0.1782 -0.0696  0.0938
  643ERGO    C2 8850   8.020  17.540   8.695  0.0124 -0.1087  0.0653
  644ERGO   ROH 8851  13.880   5.245  10.169 -0.1284  0.0893  0.0036
  644ERGO    R1 8852  13.962   5.101   9.940 -0.1411  0.0162  0.0448
  644ERGO    R2 8853  13.806   4.906   9.822 -0.2330  0.1173 -0.0013
  644ERGO    R3 8854  13.844   5.057   9.599 -0.0428  0.0769  0.0022
  644ERGO    R4 8855  13.874   4.780   9.507 -0.0022  0.0592  0.0699
  644ERGO    R5 8856  14.016   4.942   9.478  0.0390  0.0382  0.1535
  644ERGO    C1 8857  13.950   4.849   9.115  0.3106 -0.0125  0.1148
  644ERGO    C2 8858  13.994   4.900   8.798  0.3428 -0.0357  0.1328
  645ERGO   ROH 8859   9.362  12.574  10.351 -0.0157  0.3106  0.0901
  645ERGO    R1 8860   9.377  12.698  10.096 -0.0360  0.1745  0.0219
  645ERGO    R2 8861   9.609  12.705   9.947 -0.0271  0.1622  0.0332
  645ERGO    R3 8862   9.451  12.593   9.756  0.0185  0.0071  0.0845
  645ERGO    R4 8863   9.653  12.745   9.607 -0.0355  0.0054  0.0132
  645ERGO    R5 8864   9.437  12.761   9.585 -0.0400 -0.0851 -0.0013
  645ERGO    C1 8865   9.531  12.663   9.229  0.0025 -0.2314  0.0495
  645ERGO    C2 8866   9.632  12.684   8.836  0.0113 -0.1202 -0.1314
  646ERGO   ROH 8867  13.108  11.422  10.357 -0.2311  0.0704  0.2241
  646ERGO    R1 8868  13.033  11.381  10.088  0.0874 -0.1651  0.1664
  646ERGO    R2 8869  12.862  11.551   9.954 -0.1222 -0.5319 -0.0411
  646ERGO    R3 8870  13.065  11.563   9.774  0.0253 -0.2046  0.1366
  646ERGO    R4 8871  12.825  11.630   9.619  0.0765 -0.4097 -0.0369
  646ERGO    R5 8872  12.971  11.475   9.572  0.3015 -0.2181  0.0081
  646ERGO    C1 8873  12.995  11.687   9.255  0.3309 -0.0312  0.1324
  646ERGO    C2 8874  12.852  11.812   8.960 -0.1147  0.1387 -0.0775
  647ERGO   ROH 8875   6.959  16.593  10.319  0.0395  0.0987 -0.1205
  647ERGO    R1 8876   7.040  16.671  10.059  0.1320  0.1383 -0.0794
  647ERGO    R2 8877   7.303  16.664   9.977  0.1400  0.0057 -0.0335
  647ERGO    R3 8878   7.203  16.513   9.774  0.0859  0.1366 -0.1065
  647ERGO    R4 8879   7.484  16.560   9.701  0.2410 -0.3074  0.1454
  647ERGO    R5 8880   7.309  16.601   9.578  0.4102 -0.0443 -0.0237
  647ERGO    C1 8881   7.495  16.357   9.351  0.2491 -0.3668  0.1811
  647ERGO    C2 8882   7.490  16.176   8.984  0.0517 -0.1470  0.0313
  648ERGO   ROH 8883  10.653  16.061  10.175  0.0405 -0.1519 -0.0982
  648ERGO    R1 8884  10.774  16.048   9.920  0.0672 -0.1998 -0.0829
  648ERGO    R2 8885  10.716  15.848   9.738 -0.0703 -0.1178 -0.1308
  648ERGO    R3 8886  10.662  16.058   9.573  0.1241 -0.0392 -0.0976
  648ERGO    R4 8887  10.709  15.832   9.393 -0.1126 -0.0611 -0.1330
  648ERGO    R5 8888  10.808  16.026   9.386  0.0795 -0.1569 -0.1128
  648ERGO    C1 8889  10.654  16.019   9.037  0.0453  0.0457 -0.1031
  648ERGO    C2 8890  10.669  16.151   8.717  0.0895  0.1212 -0.0310
  649ERGO   ROH 8891  12.018  12.234  10.510 -0.0834 -0.0686 -0.0597
  649ERGO    R1 8892  12.128  12.314  10.261 -0.2048  0.1618 -0.0418
  649ERGO    R2 8893  12.252  12.137  10.089  0.2913  0.4247  0.0229
  649ERGO    R3 8894  12.072  12.235   9.911  0.0841 -0.0461 -0.0439
  649ERGO    R4 8895  12.298  12.150   9.747  0.2815  0.3504  0.0185
  649ERGO    R5 8896  12.205  12.346   9.746 -0.1402  0.1584 -0.0906
  649ERGO    C1 8897  12.157  12.250   9.380  0.0812 -0.1347 -0.0467
  649ERGO    C2 8898  12.197  12.243   8.933 -0.1363  0.2869 -0.2066
  650ERGO   ROH 8899   7.579  12.983  10.432  0.2272 -0.1255  0.0045
  650ERGO    R1 8900   7.473  13.072  10.185  0.1384 -0.0495  0.0664
  650ERGO    R2 8901   7.627  13.099   9.957  0.0717  0.0550  0.0155
  650ERGO    R3 8902   7.438  12.937   9.849  0.0599  0.0605  0.0348
  650ERGO    R4 8903   7.597  13.028   9.620  0.1647 -0.1565  0.0520
  650ERGO    R5 8904   7.381  13.043   9.641  0.1771 -0.0643 -0.0487
  650ERGO    C1 8905   7.401  12.835   9.322  0.2078 -0.2743  0.0913
  650ERGO    C2 8906   7.293  12.771   8.945 -0.1459  0.1798 -0.0909
  651ERGO   ROH 8907   6.929  13.907  10.017  0.0168 -0.0365  0.0425
  651ERGO    R1 8908   7.002  13.790   9.769 -0.1192 -0.0403  0.0037
  651ERGO    R2 8909   6.856  13.829   9.537 -0.0358  0.2672  0.0011
  651ERGO    R3 8910   7.097  13.909   9.439  0.0960 -0.0367  0.0641
  651ERGO    R4 8911   6.977  13.752   9.223 -0.1996  0.3721 -0.0894
  651ERGO    R5 8912   7.174  13.722   9.311 -0.2322 -0.0499 -0.1302
  651ERGO    C1 8913   7.273  13.781   8.947 -0.1712  0.1479 -0.0829
  651ERGO    C2 8914   7.214  13.730   8.577 -0.2751 -0.0317  0.3046
  652ERGO   ROH 8915   7.607   1.637  10.553 -0.2844  0.0700  0.0076
  652ERGO    R1 8916   7.682   1.497  10.319 -0.0750  0.2182 -0.0160
  652ERGO    R2 8917   7.501   1.359  10.163  0.1323 -0.0648 -0.0136
  652ERGO    R3 8918   7.604   1.514   9.964 -0.1378  0.1305 -0.0069
  652ERGO    R4 8919   7.453   1.303   9.825  0.3451 -0.2272 -0.0185
  652ERGO    R5 8920   7.662   1.357   9.792  0.2492  0.2187  0.0337
  652ERGO    C1 8921   7.522   1.415   9.442  0.2155 -0.1384 -0.0150
  652ERGO    C2 8922   7.413   1.482   9.048 -0.0515  0.1248  0.2573
  653ERGO   ROH 8923   8.373   4.112  10.250 -0.0545 -0.1756  0.0468
  653ERGO    R1 8924   8.204   4.147  10.026 -0.1790 -0.2652  0.1242
  653ERGO    R2 8925   8.280   4.294   9.803 -0.4669  0.0187  0.2026
  653ERGO    R3 8926   8.217   4.065   9.671 -0.1583  0.0112  0.0596
  653ERGO    R4 8927   8.258   4.262   9.460 -0.3036  0.1658  0.1776
  653ERGO    R5 8928   8.082   4.137   9.487 -0.1720 -0.0487  0.0484
  653ERGO    C1 8929   8.185   4.029   9.136  0.0812  0.2445  0.0289
  653ERGO    C2 8930   8.102   3.870   8.890  0.0600  0.2634  0.1887
  654ERGO   ROH 8931   0.267   8.072  10.513 -0.1250 -0.1118  0.0410
  654ERGO    R1 8932   0.163   8.043  10.251 -0.1107  0.1638  0.0011
  654ERGO    R2 8933   0.214   8.225  10.050  0.2694  0.1534  0.0759
  654ERGO    R3 8934   0.299   8.005   9.916 -0.0822  0.0404  0.0269
  654ERGO    R4 8935   0.262   8.208   9.708  0.2671  0.1552  0.0758
  654ERGO    R5 8936   0.176   8.008   9.711 -0.0639  0.2932  0.0188
  654ERGO    C1 8937   0.370   7.991   9.383 -0.0644  0.0500  0.0298
  654ERGO    C2 8938   0.542   7.878   9.055 -0.1299  0.0096  0.0484
  655ERGO   ROH 8939  10.406   2.431  10.199 -0.3240  0.1812 -0.0130
  655ERGO    R1 8940  10.521   2.372   9.947 -0.2666 -0.1201  0.0816
  655ERGO    R2 8941  10.373   2.276   9.734 -0.3251  0.1538  0.0002
  655ERGO    R3 8942  10.483   2.488   9.605  0.2300 -0.1019  0.0243
  655ERGO    R4 8943  10.395   2.308   9.391 -0.2579  0.1363  0.0023
  655ERGO    R5 8944  10.594   2.391   9.416 -0.0227 -0.3809  0.0062
  655ERGO    C1 8945  10.511   2.526   9.069  0.3023 -0.1141  0.0261
  655ERGO    C2 8946  10.486   2.514   8.691  0.1488 -0.0868  0.0043
  656ERGO   ROH 8947   6.360   9.449  10.304  0.1430  0.0724  0.0827
  656ERGO    R1 8948   6.476   9.533  10.060  0.0902  0.0257  0.0409
  656ERGO    R2 8949   6.544   9.357   9.858  0.1060 -0.0211  0.0847
  656ERGO    R3 8950   6.388   9.520   9.707  0.0450 -0.1042  0.0568
  656ERGO    R4 8951   6.547   9.369   9.513  0.1870  0.0098  0.0865
  656ERGO    R5 8952   6.530   9.586   9.526  0.0511 -0.0029  0.0991
  656ERGO    C1 8953   6.403   9.530   9.170  0.1771 -0.0503  0.0615
  656ERGO    C2 8954   6.407   9.534   8.916 -0.0343  0.1244  0.0723
  657ERGO   ROH 8955   2.615  10.103   9.735  0.0959  0.1366 -0.0315
  657ERGO    R1 8956   2.457   9.962   9.547  0.2452 -0.1651  0.0614
  657ERGO    R2 8957   2.322  10.088   9.341 -0.2454 -0.3878  0.2255
  657ERGO    R3 8958   2.458   9.910   9.187  0.0435 -0.0206  0.0393
  657ERGO    R4 8959   2.226   9.987   9.026 -0.2673 -0.4717  0.2591
  657ERGO    R5 8960   2.286   9.784   9.077  0.2364 -0.3657  0.1241
  657ERGO    C1 8961   2.296   9.761   8.697 -0.0089 -0.1757  0.1040
  657ERGO    C2 8962   2.161   9.732   8.298 -0.2320  0.2688 -0.0353
  658ERGO   ROH 8963  13.196  13.364  10.426 -0.0235  0.1154 -0.0398
  658ERGO    R1 8964  13.251  13.464  10.166 -0.0974  0.1091 -0.0594
  658ERGO    R2 8965  13.384  13.315   9.975  0.1171  0.2069  0.0005
  658ERGO    R3 8966  13.165  13.373   9.825  0.0649 -0.0964 -0.0462
  658ERGO    R4 8967  13.385  13.358   9.632  0.1359  0.2965  0.0126
  658ERGO    R5 8968  13.246  13.524   9.657 -0.1287  0.0720  0.0148
  658ERGO    C1 8969  13.180  13.439   9.292  0.0979  0.0641 -0.0243
  658ERGO    C2 8970  13.236  13.426   9.045 -0.2016 -0.0372 -0.0146
  659ERGO   ROH 8971  14.891   4.578  10.513  0.3777  0.2411 -0.1254
  659ERGO    R1 8972  14.762   4.552  10.262  0.1312  0.1652  0.0057
  659ERGO    R2 8973  14.820   4.716  10.048  0.0001  0.0324 -0.1360
  659ERGO    R3 8974  14.861   4.480   9.920 -0.2175 -0.0519 -0.0539
  659ERGO    R4 8975  14.828   4.676   9.704  0.1586 -0.0584 -0.1222
  659ERGO    R5 8976  14.717   4.490   9.729 -0.0906  0.0840 -0.1432
  659ERGO    C1 8977  14.871   4.431   9.385  0.0466 -0.1905 -0.0372
  659ERGO    C2 8978  14.937   4.410   9.127 -0.2286 -0.3582 -0.0348
  660ERGO   ROH 8979   3.040  14.917  10.217 -0.2179  0.1255 -0.0115
  660ERGO    R1 8980   3.166  14.954   9.966 -0.0302 -0.0746  0.0495
  660ERGO    R2 8981   3.161  14.762   9.768 -0.2723 -0.0575  0.0319
  660ERGO    R3 8982   3.063  14.966   9.617  0.1520  0.1335  0.0017
  660ERGO    R4 8983   3.198  14.790   9.425  0.0608 -0.0043  0.0691
  660ERGO    R5 8984   3.232  15.004   9.451  0.3507 -0.0599  0.1569
  660ERGO    C1 8985   3.127  14.998   9.085  0.6532  0.2061  0.0626
  660ERGO    C2 8986   3.224  15.021   8.720  0.2525  0.0102 -0.1624
  661ERGO   ROH 8987  12.019   1.404  10.500  0.0445  0.2884  0.1031
  661ERGO    R1 8988  11.946   1.328  10.237 -0.0071  0.1899  0.1447
  661ERGO    R2 8989  11.782   1.483  10.077  0.0042  0.1583  0.0967
  661ERGO    R3 8990  11.988   1.462   9.902 -0.0210  0.0368  0.0817
  661ERGO    R4 8991  11.753   1.509   9.734 -0.0078  0.1266  0.0958
  661ERGO    R5 8992  11.896   1.346   9.714 -0.0892  0.0579  0.1050
  661ERGO    C1 8993  11.930   1.504   9.369 -0.0385 -0.0060  0.0814
  661ERGO    C2 8994  11.998   1.576   9.039 -0.1552  0.1805 -0.0377
  662ERGO   ROH 8995   4.090  10.676  10.220  0.0184 -0.1704  0.1434
  662ERGO    R1 8996   3.991  10.584   9.972  0.1298 -0.1751  0.1014
  662ERGO    R2 8997   3.876  10.753   9.785  0.1164 -0.1983  0.0973
  662ERGO    R3 8998   4.062  10.645   9.620  0.2058 -0.0970  0.1279
  662ERGO    R4 8999   3.936  10.856   9.461 -0.0776 -0.3258  0.0181
  662ERGO    R5 9000   3.959  10.647   9.404  0.1453 -0.3472  0.1452
  662ERGO    C1 9001   4.147  10.813   9.117 -0.1067 -0.3047  0.0007
  662ERGO    C2 9002   4.305  10.830   8.840 -0.1861  0.0668  0.0730
  663ERGO   ROH 9003  15.707  13.827  10.297  0.0050 -0.1793 -0.0882
  663ERGO    R1 9004  15.576  13.950  10.078 -0.0686 -0.3689 -0.1522
  663ERGO    R2 9005  15.707  14.118   9.903 -0.2794  0.0448  0.0738
  663ERGO    R3 9006  15.609  13.947   9.716  0.3143 -0.1011 -0.1262
  663ERGO    R4 9007  15.667  14.194   9.568 -0.3725  0.2389  0.1270
  663ERGO    R5 9008  15.477  14.086   9.571 -0.0620 -0.3571 -0.0442
  663ERGO    C1 9009  15.551  14.077   9.197  0.1307  0.2151 -0.0298
  663ERGO    C2 9010  15.578  14.281   8.846 -0.1187  0.3333  0.1710
  664ERGO   ROH 9011   2.155  13.009  10.467  0.1015 -0.0303 -0.0870
  664ERGO    R1 9012   2.211  12.951  10.196  0.0738 -0.1252 -0.0729
  664ERGO    R2 9013   2.016  12.875  10.017  0.0203  0.0169 -0.0760
  664ERGO    R3 9014   2.112  13.083   9.872  0.2168 -0.0911 -0.1035
  664ERGO    R4 9015   1.996  12.902   9.673 -0.1035  0.0634 -0.0655
  664ERGO    R5 9016   2.198  12.982   9.672  0.0009 -0.1885 -0.1509
  664ERGO    C1 9017   2.075  13.114   9.336  0.0088 -0.0109 -0.0852
  664ERGO    C2 9018   2.047  13.102   9.032  0.1494 -0.0218  0.3489
  665ERGO   ROH 9019   1.844   5.312  10.562 -0.1456  0.1875 -0.0850
  665ERGO    R1 9020   1.978   5.331  10.313 -0.0770  0.0698 -0.0565
  665ERGO    R2 9021   2.011   5.113  10.146 -0.2411  0.0443 -0.0480
  665ERGO    R3 9022   1.893   5.277   9.963 -0.0513  0.1531 -0.0777
  665ERGO    R4 9023   2.044   5.083   9.803 -0.3679 -0.1441 -0.0459
  665ERGO    R5 9024   2.057   5.300   9.790 -0.0504 -0.1565 -0.1307
  665ERGO    C1 9025   1.953   5.219   9.432 -0.2635 -0.1516 -0.0723
  665ERGO    C2 9026   1.991   5.010   9.180 -0.3360  0.2851 -0.1550
  666ERGO   ROH 9027   2.457   9.695  10.016 -0.2692  0.1754 -0.0287
  666ERGO    R1 9028   2.356   9.515   9.822 -0.2574  0.1263  0.0107
  666ERGO    R2 9029   2.173   9.591   9.630 -0.1015  0.1251 -0.1389
  666ERGO    R3 9030   2.358   9.487   9.459 -0.0593 -0.0750  0.0247
  666ERGO    R4 9031   2.105   9.476   9.311  0.0127 -0.0401 -0.1050
  666ERGO    R5 9032   2.242   9.310   9.347 -0.0880 -0.0884  0.0735
  666ERGO    C1 9033   2.239   9.312   8.965  0.1188 -0.3242  0.0683
  666ERGO    C2 9034   2.006   9.295   8.579  0.2155  0.2769 -0.2411
  667ERGO   ROH 9035   9.774   7.250  10.232 -0.0972 -0.1019 -0.0700
  667ERGO    R1 9036   9.768   7.151   9.967 -0.0287 -0.0479 -0.0924
  667ERGO    R2 9037   9.532   7.094   9.834  0.0052 -0.0904 -0.1404
  667ERGO    R3 9038   9.635   7.261   9.647 -0.0147 -0.0178 -0.0866
  667ERGO    R4 9039   9.445   7.094   9.500 -0.0202  0.0441 -0.1346
  667ERGO    R5 9040   9.655   7.126   9.451 -0.0299  0.0643 -0.1410
  667ERGO    C1 9041   9.492   7.251   9.129 -0.0535  0.1906 -0.0807
  667ERGO    C2 9042   9.518   7.285   8.817 -0.0777 -0.0198  0.2457
  668ERGO   ROH 9043  17.218   0.393  10.315 -0.1640  0.0408  0.1294
  668ERGO    R1 9044  17.129   0.444  10.051 -0.0489  0.1043  0.1030
  668ERGO    R2 9045  17.234   0.646   9.895  0.1309  0.0364  0.1418
  668ERGO    R3 9046  17.275   0.443   9.718  0.0526  0.0154  0.1459
  668ERGO    R4 9047  17.201   0.673   9.552 -0.0157  0.0063  0.1523
  668ERGO    R5 9048  17.107   0.476   9.550 -0.0222  0.0038  0.2133
  668ERGO    C1 9049  17.220   0.500   9.186 -0.1745 -0.0310  0.1623
  668ERGO    C2 9050  17.246   0.461   8.854 -0.0991  0.1434 -0.1392
  669ERGO   ROH 9051   6.798  10.592  10.404  0.1195 -0.0987 -0.0536
  669ERGO    R1 9052   6.865  10.447  10.170  0.2083 -0.0477 -0.0612
  669ERGO    R2 9053   6.686  10.407   9.963  0.1697 -0.3018  0.0129
  669ERGO    R3 9054   6.884  10.516   9.814 -0.0238 -0.0664 -0.0779
  669ERGO    R4 9055   6.752  10.328   9.634  0.0933 -0.1875 -0.0299
  669ERGO    R5 9056   6.964  10.335   9.679  0.1077  0.0391 -0.1391
  669ERGO    C1 9057   6.977  10.384   9.301 -0.1328  0.1001 -0.1401
  669ERGO    C2 9058   6.808  10.320   9.118  0.2094  0.1334 -0.2323
  670ERGO   ROH 9059   6.270  15.690  10.198  0.4069 -0.1958  0.0197
  670ERGO    R1 9060   6.406  15.865  10.022  0.2921 -0.1400 -0.0166
  670ERGO    R2 9061   6.531  15.777   9.792  0.1507 -0.0702 -0.1288
  670ERGO    R3 9062   6.375  15.966   9.673  0.0654 -0.0400  0.0316
  670ERGO    R4 9063   6.577  15.898   9.471 -0.0915  0.0080 -0.1347
  670ERGO    R5 9064   6.529  16.098   9.545 -0.0328 -0.0126 -0.0528
  670ERGO    C1 9065   6.457  16.146   9.173 -0.3125  0.0819  0.0126
  670ERGO    C2 9066   6.534  16.077   8.872  0.1223  0.0131 -0.0108
  671ERGO   ROH 9067   5.167  14.151  10.291 -0.1185 -0.0022 -0.0430
  671ERGO    R1 9068   5.267  14.188  10.029  0.1259 -0.1470  0.0255
  671ERGO    R2 9069   5.408  13.992   9.894 -0.1582 -0.4041  0.0856
  671ERGO    R3 9070   5.218  14.033   9.703  0.0323 -0.0040 -0.0290
  671ERGO    R4 9071   5.418  13.859   9.575 -0.1866 -0.3115  0.0460
  671ERGO    R5 9072   5.343  14.050   9.499  0.1964 -0.1498  0.0590
  671ERGO    C1 9073   5.246  13.820   9.211 -0.0243  0.1180 -0.0847
  671ERGO    C2 9074   5.093  13.760   8.915  0.1840  0.0966 -0.0742
  672ERGO   ROH 9075   8.049   6.978  10.152 -0.1423 -0.0020 -0.0046
  672ERGO    R1 9076   8.103   6.841   9.911 -0.2324 -0.1194  0.0407
  672ERGO    R2 9077   7.914   6.812   9.711 -0.1752  0.1684 -0.0607
  672ERGO    R3 9078   8.109   6.922   9.556  0.0970 -0.1633  0.0336
  672ERGO    R4 9079   7.924   6.798   9.365 -0.0719  0.2217 -0.0600
  672ERGO    R5 9080   8.139   6.766   9.378 -0.1315 -0.1878  0.0144
  672ERGO    C1 9081   8.113   6.894   9.019  0.2439 -0.0586  0.0291
  672ERGO    C2 9082   8.152   7.063   8.675 -0.0489  0.0951 -0.1506
  673ERGO   ROH 9083   1.898  11.785  10.343  0.1004  0.0232  0.1621
  673ERGO    R1 9084   1.745  11.733  10.111 -0.0107  0.1435  0.2067
  673ERGO    R2 9085   1.610  11.931   9.974  0.0682  0.2461  0.2678
  673ERGO    R3 9086   1.750  11.834   9.761 -0.0586  0.1756  0.2167
  673ERGO    R4 9087   1.564  12.031   9.646 -0.0931  0.1572  0.2631
  673ERGO    R5 9088   1.588  11.822   9.585 -0.1492  0.1437  0.3067
  673ERGO    C1 9089   1.668  11.997   9.256 -0.3060  0.0392  0.2125
  673ERGO    C2 9090   1.796  12.152   8.907  0.0671 -0.1346  0.1908
  674ERGO   ROH 9091   1.739  13.856   9.685 -0.0903  0.1608 -0.2238
  674ERGO    R1 9092   1.759  14.011   9.449 -0.1761  0.1065 -0.2670
  674ERGO    R2 9093   1.992  14.028   9.302 -0.1378  0.3204 -0.1820
  674ERGO    R3 9094   1.831  13.950   9.098  0.0273  0.0698 -0.2204
  674ERGO    R4 9095   1.990  14.172   8.988 -0.1510  0.1886 -0.2434
  674ERGO    R5 9096   1.772  14.155   8.987 -0.1362 -0.0336 -0.3308
  674ERGO    C1 9097   1.839  14.182   8.613 -0.0038 -0.1233 -0.3152
  674ERGO    C2 9098   1.994  14.291   8.370  0.2514  0.0811  0.2801
  675loPI    C1 9099  12.291  14.149   5.768 -0.0683  0.1125 -0.0171
  675loPI    C2 9100  12.563  13.864   5.702 -0.0708  0.1368 -0.1348
  675loPI    C3 9101  12.612  14.227   5.542 -0.0630  0.2055  0.0223
  675loPI   PO4 9102  12.313  14.142   6.036 -0.0288  0.0671  0.2129
  675loPI   GL1 9103  12.508  13.993   6.405 -0.0672 -0.0062  0.1966
  675loPI   GL2 9104  12.387  13.761   6.538 -0.2090  0.0099  0.0618
  675loPI   C1A 9105  12.867  14.064   6.602  0.0691 -0.0323  0.0693
  675loPI   C2A 9106  12.945  14.106   7.051  0.0256 -0.0140  0.0047
  675loPI   C3A 9107  12.916  14.100   7.477  0.1119  0.0845  0.0678
  675loPI   C4A 9108  12.951  14.239   7.884  0.5185  0.1003 -0.1042
  675loPI   C5A 9109  12.794  14.238   8.196  0.0055  0.1222 -0.2418
  675loPI   C6A 9110  12.726  14.121   8.645  0.1371  0.0254  0.1545
  675loPI   C1B 9111  12.443  13.908   6.982 -0.1478  0.0852 -0.1165
  675loPI   C2B 9112  12.326  14.003   7.300  0.0407 -0.2314  0.0618
  675loPI   C3B 9113  12.511  13.930   7.675 -0.1252 -0.1615 -0.0016
  675loPI   C4B 9114  12.522  13.791   8.129  0.1678 -0.0387 -0.0690
  676loPI    C1 9115   4.455   4.269   5.918  0.1613 -0.2660  0.1853
  676loPI    C2 9116   4.665   4.020   5.686  0.1140 -0.0686 -0.0738
  676loPI    C3 9117   4.343   3.887   5.882 -0.0023 -0.1773 -0.3339
  676loPI   PO4 9118   4.583   4.451   6.100 -0.0838  0.1281 -0.1433
  676loPI   GL1 9119   4.418   4.731   6.376 -0.2176  0.1855  0.0455
  676loPI   GL2 9120   4.158   4.778   6.434  0.2718 -0.1565 -0.0963
  676loPI   C1A 9121   4.668   4.673   6.723 -0.0529 -0.2036  0.0409
  676loPI   C2A 9122   4.693   4.693   7.108  0.0358  0.1511 -0.0755
  676loPI   C3A 9123   4.744   4.707   7.552  0.3418  0.3530 -0.2455
  676loPI   C4A 9124   4.802   4.503   7.990  0.0192  0.1722 -0.0332
  676loPI   C5A 9125   4.990   4.783   8.401  0.0316  0.0132 -0.0405
  676loPI   C6A 9126   4.894   4.918   8.883  0.1198 -0.3289 -0.1260
  676loPI   C1B 9127   4.151   4.767   6.857  0.2877  0.1191 -0.0230
  676loPI   C2B 9128   4.140   4.818   7.265  0.2744 -0.1234  0.1948
  676loPI   C3B 9129   4.092   4.782   7.605  0.2202 -0.0562  0.1430
  676loPI   C4B 9130   4.043   4.906   8.116 -0.1237  0.1296 -0.0639
  677loPI    C1 9131   5.134  14.588   6.246 -0.0062  0.0809  0.0459
  677loPI    C2 9132   5.494  14.600   6.071 -0.0043 -0.0752  0.0380
  677loPI    C3 9133   5.187  14.802   5.912  0.0256 -0.1233 -0.0817
  677loPI   PO4 9134   5.218  14.578   6.489  0.3652 -0.1451  0.2550
  677loPI   GL1 9135   5.184  14.823   6.770  0.1357  0.1333  0.1231
  677loPI   GL2 9136   4.898  14.968   6.935  0.2564  0.0747 -0.1508
  677loPI   C1A 9137   5.351  14.749   7.157 -0.0504 -0.0526 -0.0948
  677loPI   C2A 9138   5.382  14.866   7.574  0.0690  0.3153  0.0185
  677loPI   C3A 9139   5.232  14.925   7.920 -0.4088  0.0585 -0.0612
  677loPI   C4A 9140   5.077  15.034   8.288 -0.0936 -0.0103 -0.0489
  677loPI   C5A 9141   5.095  14.965   8.714 -0.1308  0.0367 -0.1222
  677loPI   C6A 9142   5.103  14.688   8.939 -0.1298  0.1417 -0.0254
  677loPI   C1B 9143   4.979  15.219   7.257 -0.0238 -0.1537  0.2673
  677loPI   C2B 9144   4.819  15.218   7.646 -0.1908  0.1280 -0.0723
  677loPI   C3B 9145   4.661  15.189   8.121 -0.2548 -0.0749 -0.0640
  677loPI   C4B 9146   4.639  15.648   8.117 -0.1273  0.1945  0.0820
  678loPI    C1 9147  12.629   3.727   5.811  0.2591 -0.2279 -0.1752
  678loPI    C2 9148  12.429   3.885   5.503  0.0600 -0.1474 -0.0067
  678loPI    C3 9149  12.738   4.083   5.663 -0.1779  0.0696  0.1928
  678loPI   PO4 9150  12.359   3.628   5.984 -0.0628  0.2542  0.1998
  678loPI   GL1 9151  12.129   3.903   6.249  0.0812  0.1636 -0.1335
  678loPI   GL2 9152  12.453   3.889   6.393  0.1172 -0.3811 -0.5963
  678loPI   C1A 9153  11.824   3.921   6.568 -0.0827  0.0611  0.2881
  678loPI   C2A 9154  11.855   4.093   6.957 -0.0989 -0.0340 -0.2843
  678loPI   C3A 9155  11.968   4.158   7.402  0.2998  0.6727 -0.1300
  678loPI   C4A 9156  12.050   4.228   7.735  0.0364  0.2488 -0.3375
  678loPI   C5A 9157  11.890   4.314   8.119 -0.1962  0.4128  0.2013
  678loPI   C6A 9158  11.949   4.581   8.417 -0.0824 -0.1126  0.1107
  678loPI   C1B 9159  12.252   3.825   6.838 -0.2965  0.3351 -0.0221
  678loPI   C2B 9160  12.391   3.968   7.288 -0.1114 -0.1035  0.0189
  678loPI   C3B 9161  12.489   3.964   7.739 -0.1292  0.3028 -0.2096
  678loPI   C4B 9162  12.316   3.957   8.211 -0.0718  0.0245  0.1301
  679loPI    C1 9163   3.924  12.030   5.805  0.0915 -0.0253 -0.1520
  679loPI    C2 9164   4.170  12.172   5.523  0.1456  0.0365 -0.0742
  679loPI    C3 9165   4.052  11.790   5.512  0.1623  0.0340 -0.1700
  679loPI   PO4 9166   3.969  12.051   6.056  0.1216 -0.2736 -0.2082
  679loPI   GL1 9167   3.936  12.310   6.416 -0.0669  0.2977  0.0448
  679loPI   GL2 9168   3.712  12.386   6.518 -0.2687  0.1190 -0.2631
  679loPI   C1A 9169   4.272  12.238   6.689 -0.1586 -0.1570  0.2840
  679loPI   C2A 9170   4.463  12.311   7.023  0.0138 -0.1840  0.2634
  679loPI   C3A 9171   4.392  12.206   7.517  0.1388  0.0772 -0.0936
  679loPI   C4A 9172   4.256  12.087   7.912 -0.2608  0.0411  0.1854
  679loPI   C5A 9173   4.105  12.472   8.240 -0.1870  0.2726 -0.0809
  679loPI   C6A 9174   4.442  12.791   8.439 -0.1089 -0.1572  0.1157
  679loPI   C1B 9175   3.732  12.472   7.003  0.0792  0.0818  0.1751
  679loPI   C2B 9176   3.880  12.490   7.341  0.1534  0.1671  0.2919
  679loPI   C3B 9177   3.822  12.398   7.831 -0.3213  0.3543 -0.0226
  679loPI   C4B 9178   3.610  12.397   8.215  0.2226 -0.0245 -0.1798
  680loPI    C1 9179   2.204   3.687   5.956  0.0355 -0.1035 -0.1149
  680loPI    C2 9180   1.913   3.917   5.805  0.0066 -0.0519  0.0177
  680loPI    C3 9181   2.297   4.011   5.742 -0.0049  0.0642  0.1179
  680loPI   PO4 9182   2.137   3.647   6.242 -0.1014 -0.2715  0.0674
  680loPI   GL1 9183   1.926   3.523   6.665  0.0740  0.1506  0.2167
  680loPI   GL2 9184   2.171   3.378   6.670  0.2771  0.2471  0.0168
  680loPI   C1A 9185   1.748   3.327   7.037  0.1332  0.2234 -0.0603
  680loPI   C2A 9186   1.759   3.254   7.428 -0.0602  0.0706  0.0572
  680loPI   C3A 9187   1.618   3.339   7.849 -0.0309  0.2046  0.1426
  680loPI   C4A 9188   1.442   3.418   8.270 -0.2228 -0.3171 -0.0922
  680loPI   C5A 9189   1.537   3.616   8.735 -0.2533 -0.2024  0.2288
  680loPI   C6A 9190   1.777   3.531   9.131  0.0778  0.4347  0.1361
  680loPI   C1B 9191   2.184   3.540   7.048  0.1434 -0.3141 -0.1263
  680loPI   C2B 9192   2.153   3.477   7.462  0.0641  0.1480  0.1600
  680loPI   C3B 9193   2.211   3.317   7.883  0.0115  0.0797  0.0060
  680loPI   C4B 9194   2.275   3.083   8.289 -0.0668  0.0926 -0.0610
  681loPI    C1 9195  12.415  15.083   5.552  0.2379  0.0433  0.3640
  681loPI    C2 9196  12.621  15.180   5.223 -0.0240 -0.0434  0.1719
  681loPI    C3 9197  12.704  14.841   5.419  0.0895 -0.0236  0.1584
  681loPI   PO4 9198  12.451  15.376   5.756 -0.0271 -0.0447 -0.1115
  681loPI   GL1 9199  12.496  15.425   6.193  0.1332 -0.1595 -0.1476
  681loPI   GL2 9200  12.208  15.659   6.170 -0.2415  0.0950  0.0399
  681loPI   C1A 9201  12.810  15.340   6.464 -0.2112  0.1185 -0.2990
  681loPI   C2A 9202  12.876  15.441   6.887  0.0195  0.0918 -0.2368
  681loPI   C3A 9203  12.969  15.442   7.278 -0.1701  0.0596 -0.0561
  681loPI   C4A 9204  12.963  15.592   7.709  0.0417  0.3416 -0.0596
  681loPI   C5A 9205  13.180  15.933   7.946 -0.0345 -0.0230  0.1732
  681loPI   C6A 9206  13.158  16.080   8.313 -0.1182 -0.1406 -0.1158
  681loPI   C1B 9207  12.361  15.743   6.599  0.1015 -0.0592 -0.0774
  681loPI   C2B 9208  12.398  15.940   7.027 -0.0155  0.3353  0.1799
  681loPI   C3B 9209  12.537  16.042   7.473  0.0980  0.1971  0.3555
  681loPI   C4B 9210  12.892  16.290   7.621 -0.1341 -0.1263 -0.2822
  682loPI    C1 9211  15.942  11.487   5.647  0.0091  0.0709  0.0301
  682loPI    C2 9212  16.317  11.501   5.508  0.0072 -0.0291  0.0141
  682loPI    C3 9213  16.022  11.364   5.275 -0.0560  0.1401 -0.0069
  682loPI   PO4 9214  15.972  11.413   5.950 -0.0232  0.0552  0.2198
  682loPI   GL1 9215  16.174  11.587   6.264 -0.0242  0.1833  0.0551
  682loPI   GL2 9216  16.112  11.273   6.478  0.1944 -0.2593 -0.2173
  682loPI   C1A 9217  16.343  11.730   6.527 -0.1286  0.1926  0.2683
  682loPI   C2A 9218  16.417  11.874   6.846  0.1792  0.0256  0.2854
  682loPI   C3A 9219  16.341  11.998   7.304 -0.0367  0.1592  0.1432
  682loPI   C4A 9220  16.142  12.001   7.603 -0.0322  0.2230  0.2503
  682loPI   C5A 9221  16.182  12.062   8.042  0.2390 -0.0759  0.0842
  682loPI   C6A 9222  16.306  11.936   8.494 -0.1936  0.0601  0.0760
  682loPI   C1B 9223  16.116  10.985   6.842 -0.0112  0.0571 -0.0507
  682loPI   C2B 9224  16.054  11.056   7.209 -0.1266  0.1226 -0.1114
  682loPI   C3B 9225  15.988  11.129   7.681  0.0496  0.0336  0.1150
  682loPI   C4B 9226  16.078  11.008   8.170 -0.3600  0.0643 -0.0070
  683loPI    C1 9227   4.467   6.888   5.500  0.0885  0.1580 -0.1240
  683loPI    C2 9228   4.296   7.249   5.520  0.0006  0.1236 -0.2415
  683loPI    C3 9229   4.335   7.066   5.167 -0.1796 -0.0887 -0.1541
  683loPI   PO4 9230   4.410   6.777   5.758 -0.2929  0.1745 -0.0044
  683loPI   GL1 9231   4.629   6.611   6.156  0.1730 -0.1688  0.1337
  683loPI   GL2 9232   4.637   6.784   6.451 -0.0490 -0.0026 -0.0192
  683loPI   C1A 9233   4.401   6.318   6.531  0.0867  0.1400 -0.1076
  683loPI   C2A 9234   4.449   6.088   6.899 -0.0207  0.2167  0.2496
  683loPI   C3A 9235   4.373   6.110   7.390 -0.0929 -0.0095 -0.1641
  683loPI   C4A 9236   4.270   6.232   7.859  0.1034 -0.2986  0.0493
  683loPI   C5A 9237   4.194   6.604   8.194  0.0533 -0.0249 -0.0023
  683loPI   C6A 9238   3.761   6.785   8.425  0.0593  0.2055 -0.1411
  683loPI   C1B 9239   4.824   6.540   6.789  0.0144 -0.0569  0.1489
  683loPI   C2B 9240   4.714   6.461   7.113  0.1327  0.0646 -0.4791
  683loPI   C3B 9241   4.721   6.586   7.547  0.2407 -0.0489  0.2556
  683loPI   C4B 9242   4.676   6.532   7.959 -0.1594 -0.1359  0.0443
  684loPI    C1 9243  17.367   4.562   5.657  0.1089  0.0994  0.1179
  684loPI    C2 9244  17.675   4.315   5.596  0.0893  0.0094  0.3721
  684loPI    C3 9245  17.615   4.624   5.350  0.4505  0.0959  0.3861
  684loPI   PO4 9246  17.048   4.457   5.828 -0.2653 -0.0444 -0.0692
  684loPI   GL1 9247  16.816   4.649   6.229  0.2804 -0.1092 -0.1424
  684loPI   GL2 9248  17.137   4.717   6.449 -0.3297  0.0274  0.0341
  684loPI   C1A 9249  16.565   4.583   6.631  0.0019  0.1040  0.3419
  684loPI   C2A 9250  16.522   4.533   7.005  0.2042 -0.3188  0.2620
  684loPI   C3A 9251  16.476   4.595   7.533  0.0508  0.0126 -0.0140
  684loPI   C4A 9252  16.547   4.618   7.987 -0.0481 -0.4465  0.1459
  684loPI   C5A 9253  16.336   4.417   8.339  0.0620  0.1120 -0.1790
  684loPI   C6A 9254  16.041   4.011   8.298  0.2265 -0.2502 -0.0674
  684loPI   C1B 9255  17.032   4.682   6.878 -0.2147  0.0424  0.1389
  684loPI   C2B 9256  16.889   4.670   7.291  0.2531 -0.0334  0.1651
  684loPI   C3B 9257  16.954   4.589   7.726  0.1682 -0.0727 -0.0987
  684loPI   C4B 9258  17.139   4.415   8.143 -0.1312  0.2724 -0.1140
  685loPI    C1 9259   1.893   5.605   6.003 -0.0956  0.1919  0.0176
  685loPI    C2 9260   1.671   5.937   5.973 -0.3815  0.0014 -0.0116
  685loPI    C3 9261   1.781   5.739   5.643  0.0019  0.2010 -0.0098
  685loPI   PO4 9262   1.860   5.559   6.359 -0.2926 -0.2786  0.0718
  685loPI   GL1 9263   2.211   5.712   6.686  0.1646  0.1990  0.1743
  685loPI   GL2 9264   1.906   5.650   6.844 -0.0352 -0.0902  0.2406
  685loPI   C1A 9265   2.292   5.831   7.105  0.0040  0.1598  0.0729
  685loPI   C2A 9266   2.338   5.760   7.589 -0.1113 -0.0827 -0.0515
  685loPI   C3A 9267   2.542   5.850   7.915 -0.0095  0.0189  0.1234
  685loPI   C4A 9268   2.389   6.033   8.299 -0.2923 -0.0467 -0.1333
  685loPI   C5A 9269   2.414   6.213   8.668  0.3294 -0.3252  0.0503
  685loPI   C6A 9270   2.638   6.263   9.015 -0.0481  0.0510 -0.2875
  685loPI   C1B 9271   1.855   5.588   7.283 -0.2538  0.0557 -0.1225
  685loPI   C2B 9272   1.940   5.511   7.693 -0.1192  0.0958  0.0438
  685loPI   C3B 9273   2.026   5.620   8.134  0.0447 -0.1577 -0.1917
  685loPI   C4B 9274   1.986   5.761   8.498 -0.1202 -0.1382  0.2978
  686loPI    C1 9275  14.772  13.887   5.678  0.0504 -0.0051 -0.0771
  686loPI    C2 9276  14.632  14.181   5.445  0.0314  0.1118  0.0798
  686loPI    C3 9277  14.791  13.853   5.280 -0.1627  0.1052 -0.0981
  686loPI   PO4 9278  14.993  14.015   5.785 -0.0395  0.1839 -0.0564
  686loPI   GL1 9279  15.211  14.011   6.216 -0.0392  0.2040 -0.1407
  686loPI   GL2 9280  15.537  14.132   6.158  0.1200 -0.0196  0.0934
  686loPI   C1A 9281  15.231  13.957   6.706 -0.0406  0.1069 -0.2912
  686loPI   C2A 9282  15.207  13.889   7.153 -0.2227 -0.2384 -0.2453
  686loPI   C3A 9283  15.276  14.047   7.575 -0.3477 -0.0274 -0.1186
  686loPI   C4A 9284  15.458  13.907   7.975 -0.2947 -0.0675  0.0199
  686loPI   C5A 9285  15.546  13.929   8.305 -0.0432  0.2736  0.1676
  686loPI   C6A 9286  15.758  13.751   8.676  0.1047  0.2059  0.2622
  686loPI   C1B 9287  15.527  14.357   6.543  0.0902  0.0627  0.1248
  686loPI   C2B 9288  15.560  14.309   6.933  0.1679 -0.0869  0.1782
  686loPI   C3B 9289  15.497  14.521   7.250 -0.2932 -0.0429  0.1613
  686loPI   C4B 9290  15.187  14.544   7.576 -0.3500  0.1580 -0.1540
  687loPI    C1 9291  12.994   3.619   5.521 -0.0348  0.1958  0.1543
  687loPI    C2 9292  13.057   3.932   5.280  0.1966  0.0876  0.0715
  687loPI    C3 9293  13.095   3.559   5.139 -0.3474  0.0151  0.0966
  687loPI   PO4 9294  13.171   3.746   5.801 -0.0657  0.2173 -0.1954
  687loPI   GL1 9295  13.067   3.644   6.195  0.1539 -0.2890 -0.0881
  687loPI   GL2 9296  13.390   3.392   6.246  0.3137  0.0109  0.0277
  687loPI   C1A 9297  12.802   3.664   6.662  0.1891  0.1578  0.2213
  687loPI   C2A 9298  12.811   3.550   7.049 -0.2043 -0.0880  0.1871
  687loPI   C3A 9299  12.805   3.710   7.469 -0.3613  0.0596  0.0259
  687loPI   C4A 9300  12.955   3.668   7.976  0.0116  0.2250 -0.3473
  687loPI   C5A 9301  13.075   3.598   8.390  0.1818 -0.0547 -0.2602
  687loPI   C6A 9302  12.929   3.393   8.756  0.0164 -0.1507 -0.1888
  687loPI   C1B 9303  13.348   3.490   6.584  0.3250  0.0149 -0.0225
  687loPI   C2B 9304  13.390   3.428   6.984  0.1679 -0.2761 -0.0160
  687loPI   C3B 9305  13.326   3.462   7.482  0.3408  0.2286  0.3092
  687loPI   C4B 9306  13.408   3.509   7.896 -0.0686 -0.2802  0.1577
  688loPI    C1 9307  10.555   7.284   5.877 -0.2277 -0.0865 -0.0746
  688loPI    C2 9308  10.297   7.486   6.106  0.0168  0.1485 -0.0014
  688loPI    C3 9309  10.236   7.459   5.712 -0.0505  0.3161 -0.0033
  688loPI   PO4 9310  10.680   7.107   6.078 -0.0318  0.1389 -0.3597
  688loPI   GL1 9311  10.496   7.075   6.405 -0.0506 -0.0018  0.0292
  688loPI   GL2 9312  10.351   6.815   6.476 -0.1972  0.1322 -0.2221
  688loPI   C1A 9313  10.453   7.417   6.754 -0.0960  0.2536  0.3137
  688loPI   C2A 9314  10.481   7.501   7.227 -0.1105  0.4672  0.1184
  688loPI   C3A 9315  10.383   7.617   7.617 -0.2455  0.1903 -0.0546
  688loPI   C4A 9316  10.249   7.865   8.005 -0.1563 -0.0699 -0.0928
  688loPI   C5A 9317  10.144   7.854   8.357 -0.0322 -0.0573 -0.2805
  688loPI   C6A 9318   9.797   8.011   8.544 -0.3398  0.0250 -0.0963
  688loPI   C1B 9319  10.216   6.994   6.789  0.1854 -0.0207  0.2466
  688loPI   C2B 9320  10.036   7.339   7.116 -0.3477 -0.0446  0.1146
  688loPI   C3B 9321   9.819   7.359   7.460 -0.0484 -0.0025  0.4504
  688loPI   C4B 9322   9.505   7.528   7.749  0.0301 -0.0746  0.0316
  689loPI    C1 9323  11.675   3.190   5.664 -0.0716  0.0928 -0.2512
  689loPI    C2 9324  11.956   3.474   5.655  0.1342 -0.0849  0.2512
  689loPI    C3 9325  12.021   3.123   5.476 -0.1129  0.1642 -0.3541
  689loPI   PO4 9326  11.546   3.225   5.868 -0.1235 -0.3025  0.3601
  689loPI   GL1 9327  11.433   3.288   6.198  0.1651 -0.1466 -0.2418
  689loPI   GL2 9328  11.245   3.041   6.225  0.1166  0.0736  0.2185
  689loPI   C1A 9329  11.571   3.427   6.567  0.0808 -0.0701  0.4948
  689loPI   C2A 9330  11.757   3.587   6.871  0.0286 -0.0503  0.0924
  689loPI   C3A 9331  12.000   3.606   7.266 -0.0711  0.0864  0.0901
  689loPI   C4A 9332  12.030   3.734   7.712 -0.3156 -0.0808 -0.0377
  689loPI   C5A 9333  11.873   3.597   8.112 -0.0448  0.0979 -0.0826
  689loPI   C6A 9334  12.065   3.778   8.599  0.2084  0.1126  0.1231
  689loPI   C1B 9335  11.242   2.825   6.639 -0.0583 -0.4552  0.0359
  689loPI   C2B 9336  11.281   2.848   6.979  0.0593  0.2427  0.0435
  689loPI   C3B 9337  11.433   2.826   7.397  0.0392  0.0725  0.1654
  689loPI   C4B 9338  11.632   2.792   7.723  0.1363 -0.2738 -0.2530
  690loPI    C1 9339   5.716   3.814   6.091  0.2276 -0.2619 -0.1552
  690loPI    C2 9340   5.609   3.885   5.712  0.1589 -0.0605 -0.0997
  690loPI    C3 9341   5.942   4.050   5.860 -0.0029  0.1521  0.0319
  690loPI   PO4 9342   5.383   3.889   6.158 -0.2345  0.1877  0.0503
  690loPI   GL1 9343   5.149   3.746   6.516 -0.2755 -0.2320  0.1646
  690loPI   GL2 9344   4.998   3.439   6.631 -0.1564  0.0450  0.1867
  690loPI   C1A 9345   5.308   3.869   6.913  0.1413  0.1471 -0.2202
  690loPI   C2A 9346   5.383   3.914   7.333 -0.0652  0.1681  0.1567
  690loPI   C3A 9347   5.541   4.040   7.744  0.0697 -0.2634 -0.0324
  690loPI   C4A 9348   5.823   3.911   8.047 -0.0574  0.1591 -0.0834
  690loPI   C5A 9349   5.952   3.560   8.250  0.5676  0.3525 -0.0760
  690loPI   C6A 9350   5.866   3.310   8.621  0.1322  0.3164 -0.1684
  690loPI   C1B 9351   5.068   3.503   7.094  0.1032  0.0926 -0.1123
  690loPI   C2B 9352   5.017   3.513   7.532 -0.0139 -0.1908  0.0755
  690loPI   C3B 9353   4.916   3.615   7.954  0.1610  0.0980 -0.0949
  690loPI   C4B 9354   4.849   3.774   8.331  0.1797 -0.0810  0.2222
  691loPI    C1 9355   4.819   3.533   5.952 -0.0970 -0.0846  0.1635
  691loPI    C2 9356   4.490   3.421   6.149 -0.1681 -0.0020  0.0922
  691loPI    C3 9357   4.672   3.165   5.901 -0.2067 -0.0317  0.0945
  691loPI   PO4 9358   4.910   3.699   6.079  0.2569 -0.2100  0.0533
  691loPI   GL1 9359   4.676   3.878   6.310 -0.0385 -0.0420 -0.0937
  691loPI   GL2 9360   4.764   4.161   6.498 -0.0981  0.1912 -0.0206
  691loPI   C1A 9361   4.374   3.840   6.576 -0.3344 -0.1590  0.1204
  691loPI   C2A 9362   4.183   3.883   6.957  0.0439  0.2647 -0.1427
  691loPI   C3A 9363   4.233   3.862   7.343  0.2734  0.1403 -0.1607
  691loPI   C4A 9364   4.118   3.968   7.741  0.0418  0.0359  0.1343
  691loPI   C5A 9365   4.087   3.944   8.102 -0.1098  0.3999  0.0802
  691loPI   C6A 9366   4.301   3.985   8.490  0.0083 -0.2314  0.0270
  691loPI   C1B 9367   4.818   3.876   6.827 -0.1228 -0.2134  0.1664
  691loPI   C2B 9368   4.745   3.895   7.197 -0.2056  0.1634 -0.3118
  691loPI   C3B 9369   4.746   3.959   7.629  0.1201  0.2023  0.0665
  691loPI   C4B 9370   4.580   4.027   8.039  0.1782 -0.0832  0.3364
  692loPI    C1 9371  13.449  15.385   5.440 -0.2959  0.0036 -0.2046
  692loPI    C2 9372  13.610  15.604   5.147  0.1801 -0.0909 -0.0219
  692loPI    C3 9373  13.680  15.211   5.165 -0.2847 -0.1818 -0.0799
  692loPI   PO4 9374  13.357  15.521   5.580 -0.1427  0.3794  0.0877
  692loPI   GL1 9375  13.374  15.520   6.014 -0.1130 -0.2213  0.1829
  692loPI   GL2 9376  13.658  15.617   6.046  0.1086 -0.0750 -0.0593
  692loPI   C1A 9377  13.337  15.487   6.481 -0.0248  0.0425  0.1067
  692loPI   C2A 9378  13.361  15.622   6.894  0.1738  0.3622  0.1325
  692loPI   C3A 9379  13.473  15.531   7.385 -0.1848 -0.0946 -0.1095
  692loPI   C4A 9380  13.507  15.560   7.849  0.1628 -0.1273  0.3692
  692loPI   C5A 9381  13.603  15.884   8.198  0.1012 -0.1360 -0.0562
  692loPI   C6A 9382  13.695  16.195   8.549 -0.0411  0.1077 -0.1070
  692loPI   C1B 9383  13.580  15.914   6.265 -0.2685  0.1827  0.0982
  692loPI   C2B 9384  13.596  16.071   6.773  0.3655 -0.0864 -0.0998
  692loPI   C3B 9385  13.608  15.995   7.256 -0.0987 -0.0149  0.1741
  692loPI   C4B 9386  13.757  15.943   7.711 -0.1774  0.0113  0.0438
  693loPI    C1 9387  15.762   2.780   5.726  0.1451 -0.0472 -0.2878
  693loPI    C2 9388  15.402   2.713   5.567  0.0737 -0.2047 -0.0632
  693loPI    C3 9389  15.588   3.060   5.499 -0.1289 -0.1138 -0.1630
  693loPI   PO4 9390  15.729   2.696   6.068  0.0854 -0.0570 -0.0896
  693loPI   GL1 9391  15.545   2.546   6.469 -0.1349 -0.0650  0.1543
  693loPI   GL2 9392  15.401   2.853   6.473 -0.0728  0.0084 -0.1381
  693loPI   C1A 9393  15.841   2.662   6.834  0.1971 -0.1826 -0.1950
  693loPI   C2A 9394  16.055   2.696   7.235 -0.0721 -0.0789  0.0750
  693loPI   C3A 9395  16.117   2.723   7.627  0.3119  0.0736 -0.0798
  693loPI   C4A 9396  16.207   2.731   7.974  0.2423  0.0271  0.1660
  693loPI   C5A 9397  16.104   2.763   8.355  0.0758  0.0199 -0.4148
  693loPI   C6A 9398  15.773   2.537   8.544  0.2963 -0.1009  0.2062
  693loPI   C1B 9399  15.368   2.818   6.901 -0.1521 -0.3137  0.0233
  693loPI   C2B 9400  15.370   2.638   7.269  0.0123 -0.0034  0.1847
  693loPI   C3B 9401  15.255   2.529   7.669 -0.1795  0.0724 -0.0992
  693loPI   C4B 9402  15.314   2.471   8.218  0.0206  0.1737 -0.0849
  694loPI    C1 9403   7.697   7.386   5.304 -0.1337  0.0164 -0.0924
  694loPI    C2 9404   8.046   7.452   5.489 -0.3250  0.0622  0.2625
  694loPI    C3 9405   8.004   7.543   5.101  0.0799 -0.0220  0.1942
  694loPI   PO4 9406   7.539   7.421   5.501  0.2472 -0.3112  0.1570
  694loPI   GL1 9407   7.523   7.423   5.909  0.0088  0.1574 -0.0347
  694loPI   GL2 9408   7.218   7.424   5.993  0.0359  0.0126  0.0727
  694loPI   C1A 9409   7.629   7.432   6.331  0.3506  0.1511 -0.1266
  694loPI   C2A 9410   7.644   7.485   6.726  0.2304 -0.1368 -0.1023
  694loPI   C3A 9411   7.658   7.550   7.094 -0.0211 -0.2483 -0.0274
  694loPI   C4A 9412   7.741   7.473   7.537  0.2230  0.0132 -0.2043
  694loPI   C5A 9413   7.739   7.449   7.971  0.0470 -0.0767  0.0185
  694loPI   C6A 9414   7.817   7.296   8.390  0.2907 -0.2785  0.1999
  694loPI   C1B 9415   6.973   7.388   6.363  0.0143  0.1941 -0.0218
  694loPI   C2B 9416   6.867   7.367   6.815 -0.4183 -0.2694 -0.1479
  694loPI   C3B 9417   6.796   7.245   7.276 -0.0884  0.0622  0.3244
  694loPI   C4B 9418   6.789   7.262   7.762 -0.2193  0.0070 -0.0066
  695loPI    C1 9419  10.667  16.745   5.365  0.0238 -0.1291  0.1280
  695loPI    C2 9420  10.290  16.613   5.395  0.0656 -0.2725  0.0338
  695loPI    C3 9421  10.521  16.491   5.092  0.1954 -0.2032  0.1041
  695loPI   PO4 9422  10.733  16.863   5.658  0.0090 -0.0562 -0.1515
  695loPI   GL1 9423  10.779  16.984   6.048  0.1067 -0.0085  0.2974
  695loPI   GL2 9424  10.751  16.693   6.274  0.1656  0.0112 -0.1020
  695loPI   C1A 9425  10.854  17.143   6.495 -0.1765 -0.0250  0.2974
  695loPI   C2A 9426  10.992  17.087   6.959 -0.0876 -0.1981  0.2597
  695loPI   C3A 9427  11.106  17.185   7.426  0.1295 -0.0022  0.0763
  695loPI   C4A 9428  11.036  17.227   7.876  0.0866  0.0869  0.0255
  695loPI   C5A 9429  10.650  17.187   8.161  0.0228 -0.0600  0.3020
  695loPI   C6A 9430  10.511  17.013   8.423 -0.0390  0.2785  0.4036
  695loPI   C1B 9431  10.673  16.738   6.731  0.2625  0.1819  0.1654
  695loPI   C2B 9432  10.568  16.888   7.168  0.2997 -0.0792 -0.2528
  695loPI   C3B 9433  10.643  16.917   7.636 -0.2334  0.3202  0.2491
  695loPI   C4B 9434  10.849  16.692   8.005  0.0693  0.0400  0.1071
  696loPI    C1 9435  12.433   6.529   6.076 -0.1451  0.0131 -0.2869
  696loPI    C2 9436  12.488   6.475   5.683 -0.1590 -0.2363 -0.2559
  696loPI    C3 9437  12.626   6.204   5.944  0.1062  0.0711 -0.0696
  696loPI   PO4 9438  12.538   6.819   6.198  0.5036  0.0431 -0.0731
  696loPI   GL1 9439  12.861   6.755   6.493  0.2198 -0.1400 -0.0788
  696loPI   GL2 9440  12.704   7.145   6.567  0.1947  0.0663 -0.1477
  696loPI   C1A 9441  12.700   6.637   6.918 -0.1247 -0.0258 -0.1254
  696loPI   C2A 9442  12.278   6.734   7.053 -0.1320 -0.0358  0.2318
  696loPI   C3A 9443  11.924   6.648   7.298 -0.0181 -0.0564 -0.0411
  696loPI   C4A 9444  11.531   6.600   7.452  0.1259 -0.0779 -0.0727
  696loPI   C5A 9445  11.316   6.486   7.816 -0.2333 -0.1125 -0.3431
  696loPI   C6A 9446  11.080   6.545   8.098  0.0474  0.2120  0.3787
  696loPI   C1B 9447  12.631   7.225   7.008 -0.0879  0.0508 -0.1979
  696loPI   C2B 9448  12.464   7.048   7.366  0.0231  0.0403  0.0158
  696loPI   C3B 9449  12.133   7.007   7.590  0.2047  0.0259  0.3437
  696loPI   C4B 9450  12.060   7.017   8.055 -0.3046 -0.1553 -0.2018
  697loPI    C1 9451  15.998   2.348   5.836 -0.1508  0.0335  0.0421
  697loPI    C2 9452  15.731   2.335   5.538 -0.0484 -0.2169 -0.0411
  697loPI    C3 9453  16.086   2.512   5.482 -0.0054 -0.3172 -0.0890
  697loPI   PO4 9454  15.868   2.128   6.002 -0.1362 -0.0277 -0.2542
  697loPI   GL1 9455  15.705   2.083   6.359 -0.0689  0.1065  0.0879
  697loPI   GL2 9456  15.631   1.748   6.468  0.2289  0.2912  0.2001
  697loPI   C1A 9457  15.751   2.160   6.801  0.2476  0.5387  0.1039
  697loPI   C2A 9458  15.726   2.292   7.251  0.0102  0.1757  0.1040
  697loPI   C3A 9459  15.784   2.385   7.571 -0.1742  0.0835  0.1863
  697loPI   C4A 9460  15.846   2.423   8.068  0.1359  0.1200 -0.2746
  697loPI   C5A 9461  16.149   2.299   8.267  0.0392  0.2089  0.3856
  697loPI   C6A 9462  16.520   2.382   8.388  0.0203  0.2801  0.2042
  697loPI   C1B 9463  15.436   1.745   6.854  0.3283 -0.2122  0.0526
  697loPI   C2B 9464  15.419   1.593   7.362 -0.1864  0.1412 -0.0568
  697loPI   C3B 9465  15.500   1.494   7.761  0.1307 -0.3002  0.0756
  697loPI   C4B 9466  15.747   1.487   8.111 -0.0812  0.0939 -0.3661
  698loPI    C1 9467   6.887   6.412   5.627 -0.3852  0.0379  0.0061
  698loPI    C2 9468   6.950   6.267   5.260 -0.1449  0.1674 -0.0057
  698loPI    C3 9469   6.832   6.023   5.553 -0.3467  0.0648 -0.1695
  698loPI   PO4 9470   7.094   6.570   5.761 -0.0995  0.2952  0.1545
  698loPI   GL1 9471   7.161   6.726   6.151 -0.1147  0.1673 -0.0515
  698loPI   GL2 9472   7.254   6.983   6.171  0.0010 -0.0257 -0.0309
  698loPI   C1A 9473   7.027   6.814   6.612  0.1467  0.1090  0.0558
  698loPI   C2A 9474   6.955   6.837   7.041 -0.1289  0.0301  0.5311
  698loPI   C3A 9475   7.031   6.862   7.513  0.0913 -0.0767 -0.0150
  698loPI   C4A 9476   7.198   6.748   7.892  0.0195 -0.0928 -0.3236
  698loPI   C5A 9477   7.535   6.923   8.194  0.1666  0.1779  0.0034
  698loPI   C6A 9478   7.880   6.740   8.285 -0.0747  0.2523 -0.1345
  698loPI   C1B 9479   7.309   7.183   6.614  0.1716 -0.1333 -0.2584
  698loPI   C2B 9480   7.285   7.198   6.996 -0.0374 -0.0558  0.2248
  698loPI   C3B 9481   7.274   7.263   7.349 -0.0617 -0.0064 -0.1109
  698loPI   C4B 9482   7.367   7.181   7.801  0.0119 -0.0868 -0.0850
  699loPI    C1 9483  11.878   5.582   5.551 -0.0884 -0.2092  0.0864
  699loPI    C2 9484  12.221   5.647   5.355  0.0548 -0.1619  0.3489
  699loPI    C3 9485  11.871   5.684   5.164  0.1857  0.0343  0.1424
  699loPI   PO4 9486  11.964   5.639   5.854 -0.2929 -0.1737  0.2909
  699loPI   GL1 9487  11.970   5.930   6.270 -0.0035 -0.0625  0.2514
  699loPI   GL2 9488  12.247   6.022   6.190  0.2923  0.3384  0.0874
  699loPI   C1A 9489  12.024   5.943   6.702  0.0823  0.1164  0.0520
  699loPI   C2A 9490  12.015   5.993   7.166 -0.0762 -0.2366  0.0450
  699loPI   C3A 9491  11.842   6.104   7.546  0.3026 -0.0051 -0.0714
  699loPI   C4A 9492  11.598   6.077   7.983  0.0934  0.0613 -0.0121
  699loPI   C5A 9493  11.399   6.211   8.370 -0.0864 -0.2003 -0.1626
  699loPI   C6A 9494  11.341   6.586   8.579 -0.1581  0.0425  0.1641
  699loPI   C1B 9495  12.439   5.791   6.460 -0.1993 -0.0698  0.1763
  699loPI   C2B 9496  12.459   5.736   6.940 -0.1936  0.1612 -0.1851
  699loPI   C3B 9497  12.372   5.599   7.362 -0.0534  0.0546 -0.3204
  699loPI   C4B 9498  12.375   5.466   7.777 -0.0132  0.0948  0.2051
  700loPI    C1 9499   5.894  16.817   6.222 -0.0636  0.1177  0.1166
  700loPI    C2 9500   5.803  17.195   6.125  0.0951  0.1385  0.0466
  700loPI    C3 9501   6.167  17.106   6.264  0.0523  0.0140  0.0810
  700loPI   PO4 9502   5.668  16.696   6.263  0.1642  0.1429 -0.1968
  700loPI   GL1 9503   5.371  16.687   6.645  0.0727  0.3283  0.0353
  700loPI   GL2 9504   4.987  16.866   6.629  0.2259  0.2710 -0.1857
  700loPI   C1A 9505   5.344  16.962   6.997  0.1510 -0.0975  0.1252
  700loPI   C2A 9506   5.416  17.113   7.357 -0.0058 -0.1390 -0.1051
  700loPI   C3A 9507   5.384  17.044   7.726 -0.1254 -0.2077 -0.1145
  700loPI   C4A 9508   5.513  17.274   7.972  0.3677  0.3345  0.2793
  700loPI   C5A 9509   5.689  17.652   8.268  0.0765 -0.1076 -0.0384
  700loPI   C6A 9510   5.608  17.876   8.643 -0.0676 -0.2087 -0.4672
  700loPI   C1B 9511   4.868  17.059   7.020 -0.1063  0.0800  0.2352
  700loPI   C2B 9512   4.840  17.089   7.444 -0.0992 -0.0428 -0.1122
  700loPI   C3B 9513   4.943  17.168   7.857 -0.1917 -0.0932 -0.3829
  700loPI   C4B 9514   5.171  16.940   8.220  0.1336  0.1674  0.2423
  701loPI    C1 9515  11.565  12.205   5.370 -0.0529 -0.1041  0.0031
  701loPI    C2 9516  11.217  12.110   5.196 -0.0557  0.0836 -0.0972
  701loPI    C3 9517  11.403  12.450   5.098  0.3490 -0.1957 -0.3281
  701loPI   PO4 9518  11.495  12.170   5.718  0.1044  0.1336  0.0665
  701loPI   GL1 9519  11.532  11.882   6.096 -0.2284  0.0050 -0.2494
  701loPI   GL2 9520  11.211  11.931   6.058 -0.0296 -0.0866 -0.1171
  701loPI   C1A 9521  11.532  12.143   6.447  0.2441  0.0982  0.0090
  701loPI   C2A 9522  11.628  12.209   6.858  0.3292 -0.1645  0.0082
  701loPI   C3A 9523  11.607  12.088   7.310  0.1221  0.0245  0.0611
  701loPI   C4A 9524  11.576  11.814   7.699  0.2714  0.1330 -0.2040
  701loPI   C5A 9525  11.376  11.593   8.060 -0.1494 -0.1587  0.1595
  701loPI   C6A 9526  11.017  11.413   8.320 -0.0436  0.3508 -0.0816
  701loPI   C1B 9527  10.991  11.914   6.430 -0.0608  0.3341 -0.1751
  701loPI   C2B 9528  11.242  11.812   6.873  0.1587  0.0851 -0.0637
  701loPI   C3B 9529  11.314  11.716   7.324 -0.0075  0.1039  0.1986
  701loPI   C4B 9530  11.495  11.301   7.569  0.2292 -0.2548 -0.0498
  702loPI    C1 9531  15.410   5.157   5.826 -0.0690  0.2467 -0.0522
  702loPI    C2 9532  15.120   5.262   6.081 -0.1966 -0.1611 -0.0224
  702loPI    C3 9533  15.068   5.312   5.688 -0.0874  0.2633  0.0117
  702loPI   PO4 9534  15.635   5.319   5.939 -0.0028  0.1105  0.0017
  702loPI   GL1 9535  15.974   5.310   6.249  0.0449  0.1422  0.1355
  702loPI   GL2 9536  15.987   4.957   6.377 -0.1996  0.0849  0.1595
  702loPI   C1A 9537  16.181   5.452   6.565  0.2329  0.1639  0.0485
  702loPI   C2A 9538  16.063   5.343   6.932  0.0488 -0.0080  0.2218
  702loPI   C3A 9539  16.017   5.377   7.377 -0.0431  0.1538  0.0836
  702loPI   C4A 9540  15.839   5.438   7.807  0.0719  0.2384  0.1053
  702loPI   C5A 9541  15.770   5.160   8.150  0.0457  0.0838 -0.0157
  702loPI   C6A 9542  15.538   5.053   8.647 -0.0425  0.0098  0.3653
  702loPI   C1B 9543  16.157   4.841   6.766 -0.2660 -0.0624  0.1850
  702loPI   C2B 9544  16.191   4.912   7.189  0.1806  0.0313 -0.0574
  702loPI   C3B 9545  15.936   4.877   7.547  0.3336  0.0824  0.1296
  702loPI   C4B 9546  16.053   4.719   8.045 -0.0717  0.0533 -0.1366
  703loPI    C1 9547  10.239   6.919   5.710 -0.0593 -0.2158 -0.1450
  703loPI    C2 9548  10.111   7.001   5.340  0.0126 -0.1131 -0.1473
  703loPI    C3 9549  10.494   7.064   5.439  0.0079 -0.1983 -0.0729
  703loPI   PO4 9550  10.082   6.749   5.765 -0.0779  0.0172 -0.0680
  703loPI   GL1 9551  10.043   6.551   6.151  0.1257 -0.2963  0.3066
  703loPI   GL2 9552  10.015   6.345   6.313 -0.2878  0.2845  0.1358
  703loPI   C1A 9553   9.796   6.779   6.528  0.1631  0.1626  0.0899
  703loPI   C2A 9554   9.758   7.006   6.949 -0.2068  0.2992 -0.0122
  703loPI   C3A 9555   9.692   6.920   7.273 -0.0928  0.1137 -0.0308
  703loPI   C4A 9556   9.477   6.955   7.682 -0.1112  0.1496 -0.0504
  703loPI   C5A 9557   9.761   6.889   8.100 -0.3750 -0.2678 -0.2611
  703loPI   C6A 9558   9.779   6.500   8.244 -0.0005  0.1821 -0.0775
  703loPI   C1B 9559  10.112   6.529   6.798 -0.0322  0.1304  0.1939
  703loPI   C2B 9560  10.101   6.637   7.153  0.0045 -0.5100  0.1004
  703loPI   C3B 9561  10.038   6.641   7.543 -0.0044 -0.0100 -0.0064
  703loPI   C4B 9562  10.226   6.726   8.055 -0.2768 -0.3598  0.2335
  704loPI    C1 9563  16.703  15.802   5.644  0.2328 -0.1344  0.0796
  704loPI    C2 9564  16.629  15.744   5.255  0.1475 -0.2328  0.1100
  704loPI    C3 9565  16.580  16.107   5.416 -0.4841 -0.3347  0.1734
  704loPI   PO4 9566  16.868  15.599   5.695  0.1495 -0.2420  0.3059
  704loPI   GL1 9567  17.115  15.520   5.984  0.0122  0.1921 -0.0297
  704loPI   GL2 9568  17.306  15.413   6.130 -0.0931  0.1986  0.0646
  704loPI   C1A 9569  16.834  15.492   6.339 -0.0815 -0.0812  0.0093
  704loPI   C2A 9570  16.802  15.356   6.754  0.1928  0.0444  0.1837
  704loPI   C3A 9571  16.827  15.379   7.188 -0.0503  0.1908 -0.5293
  704loPI   C4A 9572  16.887  15.410   7.615 -0.0656 -0.3158 -0.1934
  704loPI   C5A 9573  16.866  15.295   8.057  0.0020 -0.0630  0.2108
  704loPI   C6A 9574  16.705  15.263   8.430  0.3409  0.0708  0.1008
  704loPI   C1B 9575  17.329  15.583   6.629  0.2545  0.0960  0.0912
  704loPI   C2B 9576  17.263  15.666   7.087 -0.2561  0.0590  0.2097
  704loPI   C3B 9577  17.150  15.883   7.511  0.4701 -0.0299  0.3718
  704loPI   C4B 9578  17.212  15.689   7.853  0.1448  0.1853  0.1198
  705loPI    C1 9579   1.352  12.193   5.764  0.1343 -0.0341 -0.1129
  705loPI    C2 9580   1.138  12.276   5.436 -0.1004  0.2618  0.1097
  705loPI    C3 9581   1.081  11.930   5.630 -0.0559  0.1446 -0.0834
  705loPI   PO4 9582   1.318  12.442   5.969 -0.1795  0.1225 -0.2078
  705loPI   GL1 9583   1.156  12.587   6.366 -0.0046 -0.1850  0.0936
  705loPI   GL2 9584   1.078  12.276   6.433  0.0254 -0.3570 -0.1948
  705loPI   C1A 9585   1.138  12.839   6.708 -0.0017  0.0528  0.0748
  705loPI   C2A 9586   1.129  13.065   7.048 -0.1411  0.1564 -0.0292
  705loPI   C3A 9587   1.152  13.406   7.348  0.1374  0.0880 -0.0188
  705loPI   C4A 9588   1.024  13.521   7.787 -0.0213 -0.3318 -0.0328
  705loPI   C5A 9589   0.992  13.787   8.078  0.6349 -0.0507 -0.2643
  705loPI   C6A 9590   0.787  14.172   8.152  0.0270 -0.0876 -0.1935
  705loPI   C1B 9591   1.124  12.348   6.778 -0.0226 -0.1465  0.0292
  705loPI   C2B 9592   0.971  12.429   7.170  0.2312 -0.0277 -0.1382
  705loPI   C3B 9593   0.958  12.780   7.437  0.0926  0.1714 -0.4256
  705loPI   C4B 9594   1.103  13.002   7.724 -0.0854  0.0270  0.0905
  706loPI    C1 9595   1.436   8.614   6.023 -0.0770 -0.0222  0.1468
  706loPI    C2 9596   1.502   8.313   6.279 -0.0186 -0.1099  0.0298
  706loPI    C3 9597   1.678   8.312   5.920  0.0091  0.0821  0.0418
  706loPI   PO4 9598   1.365   8.837   6.186  0.2751 -0.3873  0.1418
  706loPI   GL1 9599   1.670   8.918   6.510  0.2447 -0.0478  0.0026
  706loPI   GL2 9600   1.724   8.656   6.649 -0.0776  0.0033 -0.0907
  706loPI   C1A 9601   1.839   9.402   6.596  0.2389 -0.2147 -0.4390
  706loPI   C2A 9602   1.934   9.794   6.873  0.0579 -0.2901 -0.3601
  706loPI   C3A 9603   2.150   9.788   7.327 -0.1751  0.0947 -0.2409
  706loPI   C4A 9604   2.165  10.030   7.693 -0.0892 -0.1250  0.0127
  706loPI   C5A 9605   2.357  10.094   8.036  0.1499 -0.1734  0.2707
  706loPI   C6A 9606   2.455  10.488   8.203 -0.2091 -0.1843 -0.3022
  706loPI   C1B 9607   1.659   8.604   7.101  0.0111  0.1559  0.0046
  706loPI   C2B 9608   1.682   8.703   7.493 -0.1540 -0.2205  0.2369
  706loPI   C3B 9609   1.563   8.754   7.924 -0.0882 -0.1134 -0.0969
  706loPI   C4B 9610   1.734   8.953   8.261  0.3504 -0.2229  0.2378
  707loPI    C1 9611   7.757  14.237   6.001 -0.2131  0.1307 -0.2787
  707loPI    C2 9612   8.070  14.455   5.880  0.0825 -0.0999  0.0499
  707loPI    C3 9613   7.846  14.260   5.612  0.1013  0.2196 -0.2046
  707loPI   PO4 9614   7.757  14.090   6.233 -0.0705 -0.0662 -0.0128
  707loPI   GL1 9615   7.612  14.037   6.498 -0.0310 -0.0330 -0.2042
  707loPI   GL2 9616   7.290  14.113   6.581 -0.0628  0.1773  0.1778
  707loPI   C1A 9617   7.626  13.806   6.834  0.0159 -0.0427 -0.3651
  707loPI   C2A 9618   7.335  13.644   7.149 -0.1708  0.2321  0.0179
  707loPI   C3A 9619   7.121  13.525   7.483  0.1150  0.0137 -0.1411
  707loPI   C4A 9620   7.128  13.555   7.887  0.0087  0.2665  0.0525
  707loPI   C5A 9621   7.343  13.353   8.211 -0.0544 -0.3270 -0.1494
  707loPI   C6A 9622   7.583  13.013   8.075  0.1498 -0.0496 -0.0138
  707loPI   C1B 9623   7.099  14.044   6.947  0.1329 -0.1474  0.2731
  707loPI   C2B 9624   7.074  13.996   7.372  0.0729 -0.1088 -0.3086
  707loPI   C3B 9625   7.051  14.092   7.785 -0.1318 -0.0606  0.2631
  707loPI   C4B 9626   6.950  14.060   8.110 -0.1010  0.1624 -0.2052
  708loPI    C1 9627  17.543  15.706   5.695 -0.1590 -0.0341 -0.1556
  708loPI    C2 9628  17.608  16.034   5.476 -0.1273  0.0512 -0.0187
  708loPI    C3 9629  17.747  15.681   5.351 -0.0586  0.1090 -0.1073
  708loPI   PO4 9630  17.598  15.805   5.956 -0.0158 -0.1381  0.1664
  708loPI   GL1 9631  17.888  15.751   6.277  0.0609 -0.1025 -0.0264
  708loPI   GL2 9632  17.789  15.408   6.423  0.1139 -0.0137  0.0218
  708loPI   C1A 9633  17.845  15.740   6.745  0.1374  0.0350 -0.3206
  708loPI   C2A 9634  17.796  15.552   7.106  0.4816 -0.1500 -0.1139
  708loPI   C3A 9635  17.687  15.542   7.543 -0.0147  0.2616  0.0226
  708loPI   C4A 9636  17.678  15.444   8.010  0.1268  0.3065 -0.2700
  708loPI   C5A 9637  17.322  15.413   8.292 -0.0278 -0.1458  0.1562
  708loPI   C6A 9638  17.042  15.657   8.551  0.2009 -0.0627 -0.1992
  708loPI   C1B 9639  17.767  15.104   6.714 -0.1588  0.0175  0.2786
  708loPI   C2B 9640  17.725  15.048   7.153  0.1487 -0.5303  0.2384
  708loPI   C3B 9641  17.792  15.085   7.636  0.0187  0.3347  0.1239
  708loPI   C4B 9642  17.947  14.926   8.035  0.1022 -0.1030  0.0642
  709loPI    C1 9643  17.354  16.431   5.736  0.1897  0.0871  0.1739
  709loPI    C2 9644  17.085  16.380   5.445  0.0897  0.0605  0.2701
  709loPI    C3 9645  17.432  16.562   5.367  0.0448  0.0932  0.1449
  709loPI   PO4 9646  17.154  16.535   5.944  0.0527  0.2569 -0.0239
  709loPI   GL1 9647  17.061  16.509   6.233 -0.0602  0.4388 -0.3174
  709loPI   GL2 9648  16.682  16.403   6.284 -0.0540 -0.1719 -0.0669
  709loPI   C1A 9649  17.009  16.532   6.658  0.1300  0.1809 -0.0011
  709loPI   C2A 9650  17.025  16.545   7.093  0.0575  0.0288  0.0744
  709loPI   C3A 9651  17.230  16.411   7.493  0.2262 -0.0570  0.1114
  709loPI   C4A 9652  17.563  16.626   7.645  0.1880  0.0437 -0.1947
  709loPI   C5A 9653  17.798  16.416   7.900 -0.1646  0.4190  0.0347
  709loPI   C6A 9654  17.730  16.265   8.366  0.1594 -0.0415 -0.0684
  709loPI   C1B 9655  16.412  16.249   6.563 -0.2053 -0.0804 -0.0770
  709loPI   C2B 9656  16.250  16.075   6.876  0.0300 -0.0563  0.2410
  709loPI   C3B 9657  16.156  16.023   7.304  0.4018 -0.0521  0.0900
  709loPI   C4B 9658  16.289  16.289   7.646 -0.0998 -0.2711  0.0590
  710loPI    C1 9659   0.049   2.470   6.057 -0.0736  0.1219  0.0780
  710loPI    C2 9660   0.413   2.605   5.963 -0.0358 -0.0277  0.0049
  710loPI    C3 9661   0.129   2.585   5.682 -0.0779  0.0149  0.0439
  710loPI   PO4 9662   0.103   2.268   6.177  0.0673 -0.1802  0.0746
  710loPI   GL1 9663   0.359   2.295   6.457 -0.0522 -0.3111  0.1392
  710loPI   GL2 9664   0.489   2.599   6.431 -0.2435  0.4594  0.2452
  710loPI   C1A 9665   0.068   2.475   6.865 -0.1222 -0.1838 -0.0177
  710loPI   C2A 9666  -0.058   2.533   7.291  0.0027 -0.1775 -0.0877
  710loPI   C3A 9667  -0.108   2.588   7.748 -0.1320  0.0983 -0.1700
  710loPI   C4A 9668   0.062   2.794   8.035 -0.0424  0.2119 -0.1015
  710loPI   C5A 9669   0.326   3.098   8.248  0.2826 -0.0514 -0.0805
  710loPI   C6A 9670   0.613   3.477   8.327  0.0999 -0.0678  0.2745
  710loPI   C1B 9671   0.599   2.579   6.872 -0.2601 -0.0286 -0.1733
  710loPI   C2B 9672   0.540   2.620   7.231  0.0048 -0.0388 -0.0736
  710loPI   C3B 9673   0.678   2.649   7.665 -0.0102 -0.1815  0.2068
  710loPI   C4B 9674   0.682   2.857   8.000  0.0878 -0.0853 -0.0661
  711loPI    C1 9675   4.780  16.534   5.839 -0.1631  0.0846 -0.2427
  711loPI    C2 9676   5.096  16.303   5.757 -0.1195  0.0579 -0.0064
  711loPI    C3 9677   5.066  16.667   5.593  0.0909  0.1059  0.0587
  711loPI   PO4 9678   4.694  16.426   6.157 -0.1271 -0.3913 -0.1474
  711loPI   GL1 9679   4.400  16.654   6.494 -0.2903 -0.0345  0.0743
  711loPI   GL2 9680   4.509  16.419   6.655  0.0828 -0.0872  0.0837
  711loPI   C1A 9681   3.974  16.482   6.769 -0.0500  0.1294  0.3197
  711loPI   C2A 9682   3.893  16.472   7.138 -0.1694 -0.2111  0.1053
  711loPI   C3A 9683   3.965  16.245   7.505 -0.2510 -0.0787  0.1619
  711loPI   C4A 9684   3.810  16.324   7.976 -0.1041 -0.2294  0.1004
  711loPI   C5A 9685   3.929  16.275   8.281  0.0047  0.2449  0.0416
  711loPI   C6A 9686   4.027  15.917   8.546 -0.0361  0.1855  0.0911
  711loPI   C1B 9687   4.749  16.568   6.963  0.0163  0.1124  0.0342
  711loPI   C2B 9688   5.082  16.710   7.324 -0.0400 -0.1050 -0.1645
  711loPI   C3B 9689   5.094  16.648   7.762  0.0217  0.1603 -0.3219
  711loPI   C4B 9690   4.861  16.493   8.099 -0.0646  0.3449 -0.0953
  712loPI    C1 9691   8.029  12.439   5.757  0.2260 -0.1643  0.0875
  712loPI    C2 9692   8.285  12.255   5.510  0.1921 -0.0043 -0.0685
  712loPI    C3 9693   7.894  12.265   5.423  0.1486 -0.1404  0.1062
  712loPI   PO4 9694   8.161  12.425   5.974 -0.1267  0.2874  0.1759
  712loPI   GL1 9695   8.155  12.613   6.371  0.1212 -0.0639  0.0151
  712loPI   GL2 9696   7.930  12.782   6.498  0.0552  0.0566 -0.2263
  712loPI   C1A 9697   8.439  12.925   6.610  0.0158 -0.0900 -0.4850
  712loPI   C2A 9698   8.377  13.034   7.002  0.3853  0.0327 -0.0210
  712loPI   C3A 9699   8.397  12.944   7.403 -0.0294 -0.0160 -0.1974
  712loPI   C4A 9700   8.463  12.942   7.817 -0.2065 -0.0284 -0.1554
  712loPI   C5A 9701   8.221  12.978   8.204 -0.0398 -0.2630  0.4103
  712loPI   C6A 9702   7.866  13.215   8.395 -0.1544 -0.0467  0.1107
  712loPI   C1B 9703   7.955  12.671   6.871 -0.1270 -0.0698 -0.1987
  712loPI   C2B 9704   7.961  12.568   7.331  0.2179 -0.1478  0.1647
  712loPI   C3B 9705   8.073  12.450   7.733  0.1067  0.1953 -0.1723
  712loPI   C4B 9706   8.425  12.496   8.042 -0.0672  0.1091 -0.4060
  713loPI    C1 9707  12.737   1.090   5.420 -0.0452 -0.0102 -0.0904
  713loPI    C2 9708  12.413   0.863   5.360 -0.1235  0.0865 -0.0376
  713loPI    C3 9709  12.618   1.005   5.048 -0.0644 -0.0702 -0.0707
  713loPI   PO4 9710  12.712   1.270   5.656  0.0509  0.1069  0.1121
  713loPI   GL1 9711  12.679   1.472   6.072 -0.2939 -0.0357  0.0218
  713loPI   GL2 9712  12.508   1.637   6.215 -0.0055  0.0837 -0.0999
  713loPI   C1A 9713  12.795   1.358   6.481  0.0448  0.2305 -0.1391
  713loPI   C2A 9714  12.910   1.403   6.941  0.0775 -0.0148  0.3020
  713loPI   C3A 9715  12.977   1.555   7.417  0.0952 -0.0382 -0.0183
  713loPI   C4A 9716  13.230   1.548   7.812  0.0026  0.1259  0.4355
  713loPI   C5A 9717  13.137   1.695   8.239 -0.1703 -0.2475 -0.0511
  713loPI   C6A 9718  13.396   1.758   8.582 -0.0515 -0.1589  0.2245
  713loPI   C1B 9719  12.433   1.729   6.526 -0.1679  0.0714  0.0464
  713loPI   C2B 9720  12.458   1.726   6.906 -0.2596  0.3028 -0.0230
  713loPI   C3B 9721  12.558   1.811   7.294 -0.3474 -0.1835 -0.2329
  713loPI   C4B 9722  12.518   1.916   7.661  0.0347  0.0656 -0.1618
  714loPI    C1 9723  15.899  16.720   5.800  0.0244  0.0075  0.0856
  714loPI    C2 9724  15.947  16.967   6.111 -0.0092  0.1861 -0.0498
  714loPI    C3 9725  15.837  17.112   5.754 -0.1434 -0.0392 -0.1020
  714loPI   PO4 9726  15.817  16.533   5.903  0.3715 -0.1373  0.3841
  714loPI   GL1 9727  15.939  16.420   6.292 -0.2740  0.0199 -0.3578
  714loPI   GL2 9728  16.108  16.656   6.436  0.1471 -0.0903 -0.1911
  714loPI   C1A 9729  15.820  16.214   6.527  0.1334 -0.3232 -0.2549
  714loPI   C2A 9730  15.670  16.324   6.897 -0.0069 -0.1090 -0.4345
  714loPI   C3A 9731  15.519  16.428   7.350 -0.0641  0.0394  0.0914
  714loPI   C4A 9732  15.386  16.665   7.730  0.0305 -0.1230  0.2355
  714loPI   C5A 9733  15.373  16.948   8.110  0.0000 -0.0190  0.1144
  714loPI   C6A 9734  15.045  17.225   8.274  0.0027  0.0515 -0.2447
  714loPI   C1B 9735  16.009  16.721   6.826 -0.0083 -0.0093  0.0240
  714loPI   C2B 9736  16.033  16.599   7.308  0.2119  0.1844 -0.0133
  714loPI   C3B 9737  15.861  16.487   7.758 -0.1491  0.0989 -0.1756
  714loPI   C4B 9738  15.820  16.116   8.120 -0.1227  0.3477 -0.0451
  715loPI    C1 9739   7.071  17.587   6.158  0.2099  0.0440 -0.0510
  715loPI    C2 9740   7.210  17.396   5.836 -0.1656 -0.0336 -0.1719
  715loPI    C3 9741   7.058  17.764   5.800 -0.0678  0.0190 -0.0550
  715loPI   PO4 9742   6.967  17.456   6.316  0.2703 -0.0137 -0.0596
  715loPI   GL1 9743   6.889  17.427   6.743 -0.2033  0.2848  0.1266
  715loPI   GL2 9744   7.257  17.438   6.735 -0.1167 -0.3646 -0.2121
  715loPI   C1A 9745   6.783  17.470   7.161  0.0019 -0.5244  0.0627
  715loPI   C2A 9746   6.708  17.546   7.592 -0.0320 -0.1453 -0.0922
  715loPI   C3A 9747   6.558  17.783   7.941  0.1437 -0.0629 -0.1390
  715loPI   C4A 9748   6.423  17.891   8.403 -0.2494 -0.1079  0.3068
  715loPI   C5A 9749   6.412  18.056   8.834  0.3316  0.1672  0.1364
  715loPI   C6A 9750   6.293  18.175   9.251  0.0012  0.3775 -0.0666
  715loPI   C1B 9751   7.351  17.519   7.148  0.1314  0.0614  0.2832
  715loPI   C2B 9752   7.238  17.516   7.624 -0.4152 -0.0719  0.1129
  715loPI   C3B 9753   7.227  17.570   8.079 -0.1922  0.3009  0.0197
  715loPI   C4B 9754   7.300  17.792   8.401 -0.0363  0.1512  0.1283
  716loPI    C1 9755   4.778   6.489   5.469 -0.1120 -0.2584  0.1355
  716loPI    C2 9756   5.077   6.263   5.331  0.0233 -0.0644  0.1072
  716loPI    C3 9757   4.717   6.243   5.160  0.0436 -0.2304  0.0817
  716loPI   PO4 9758   4.863   6.362   5.742  0.2250  0.2683  0.1555
  716loPI   GL1 9759   5.064   6.413   6.104 -0.0533  0.3236  0.1160
  716loPI   GL2 9760   5.167   6.688   6.265 -0.1193  0.2780 -0.1218
  716loPI   C1A 9761   4.896   6.104   6.492 -0.2391  0.0739 -0.1451
  716loPI   C2A 9762   4.938   5.997   6.872 -0.0978  0.2629  0.3336
  716loPI   C3A 9763   4.846   6.054   7.359 -0.0474  0.0315 -0.0359
  716loPI   C4A 9764   4.861   6.157   7.729  0.1196  0.2276 -0.1636
  716loPI   C5A 9765   4.985   6.006   8.212  0.1446 -0.1517  0.2545
  716loPI   C6A 9766   5.263   5.808   8.505  0.0211 -0.1311 -0.1005
  716loPI   C1B 9767   5.285   6.402   6.653 -0.1617 -0.0210  0.0335
  716loPI   C2B 9768   5.233   6.377   7.156 -0.3549 -0.1311  0.1098
  716loPI   C3B 9769   5.183   6.499   7.589  0.0438  0.3660  0.2393
  716loPI   C4B 9770   5.302   6.420   7.964  0.0949 -0.3575  0.0463
  717loPI    C1 9771   4.324  15.199   5.905 -0.1782 -0.0028 -0.0287
  717loPI    C2 9772   4.080  15.512   5.849 -0.0532  0.1457  0.2361
  717loPI    C3 9773   4.475  15.555   5.803 -0.0355  0.0257  0.2718
  717loPI   PO4 9774   4.315  15.126   6.096 -0.1759 -0.2122  0.1444
  717loPI   GL1 9775   4.171  15.104   6.465  0.1531  0.0518  0.1447
  717loPI   GL2 9776   4.148  15.427   6.490 -0.3772 -0.0467  0.2885
  717loPI   C1A 9777   4.039  15.010   6.832 -0.0628 -0.1634 -0.0874
  717loPI   C2A 9778   3.901  15.102   7.203  0.3345  0.1669 -0.0335
  717loPI   C3A 9779   3.870  15.292   7.621 -0.1782 -0.2424 -0.1695
  717loPI   C4A 9780   3.592  15.429   7.976 -0.1413  0.2311 -0.3453
  717loPI   C5A 9781   3.553  15.909   8.061  0.1936 -0.0681 -0.0159
  717loPI   C6A 9782   3.356  16.246   7.749 -0.1746  0.1350  0.4501
  717loPI   C1B 9783   4.063  15.492   6.910 -0.3384 -0.0841 -0.2839
  717loPI   C2B 9784   4.031  15.703   7.344  0.2129  0.0404  0.0822
  717loPI   C3B 9785   3.983  15.782   7.713 -0.5011 -0.1104  0.2685
  717loPI   C4B 9786   4.158  15.882   8.089  0.1566 -0.0544  0.2749
  718loPI    C1 9787  14.170   0.070   5.709  0.0367  0.0220 -0.2230
  718loPI    C2 9788  14.123   0.024   5.314 -0.1322 -0.1194 -0.1875
  718loPI    C3 9789  14.285  -0.270   5.531  0.1905  0.0540 -0.1870
  718loPI   PO4 9790  14.012   0.138   5.828 -0.2229  0.0589  0.0678
  718loPI   GL1 9791  13.770   0.469   6.107 -0.0906  0.0258  0.0344
  718loPI   GL2 9792  13.720   0.659   5.863  0.1288 -0.3426 -0.0260
  718loPI   C1A 9793  13.763   0.380   6.608  0.0746 -0.1036 -0.1505
  718loPI   C2A 9794  13.792   0.404   7.058  0.2535  0.0112 -0.1159
  718loPI   C3A 9795  13.833   0.356   7.488  0.1606 -0.3762  0.1938
  718loPI   C4A 9796  13.993   0.375   7.846 -0.0563  0.0147 -0.0953
  718loPI   C5A 9797  14.135   0.272   8.312  0.1859 -0.0415  0.2623
  718loPI   C6A 9798  14.099   0.339   8.809 -0.2909  0.2042 -0.0787
  718loPI   C1B 9799  13.612   0.876   6.333 -0.0415 -0.1663 -0.1052
  718loPI   C2B 9800  13.680   0.879   6.804 -0.1119  0.0884  0.0450
  718loPI   C3B 9801  13.779   0.902   7.181  0.0155 -0.0597  0.1438
  718loPI   C4B 9802  13.824   0.848   7.610 -0.1141 -0.2129 -0.3923
  719loPI    C1 9803  15.672   4.039   5.709  0.0536  0.0667  0.0318
  719loPI    C2 9804  15.988   4.083   5.468  0.0525 -0.0398  0.0106
  719loPI    C3 9805  15.625   4.019   5.313  0.0490 -0.0916  0.0398
  719loPI   PO4 9806  15.606   4.254   5.838  0.1744 -0.0335  0.1184
  719loPI   GL1 9807  15.573   4.445   6.290 -0.0432 -0.0464 -0.0604
  719loPI   GL2 9808  15.609   4.149   6.341  0.1517  0.2049 -0.1490
  719loPI   C1A 9809  15.575   4.548   6.715  0.0543  0.4209  0.0375
  719loPI   C2A 9810  15.601   4.726   7.141  0.1436 -0.0697  0.1213
  719loPI   C3A 9811  15.442   4.775   7.452 -0.2011  0.0365 -0.1396
  719loPI   C4A 9812  15.512   4.728   7.900  0.0140  0.1600  0.0878
  719loPI   C5A 9813  15.592   4.661   8.353 -0.2263 -0.2005 -0.3514
  719loPI   C6A 9814  15.915   4.531   8.581 -0.1777 -0.0449  0.0205
  719loPI   C1B 9815  15.714   4.103   6.808  0.1295  0.0334  0.1857
  719loPI   C2B 9816  15.981   3.909   7.072 -0.2207  0.2132 -0.2465
  719loPI   C3B 9817  15.934   3.912   7.522  0.0619 -0.0241 -0.2595
  719loPI   C4B 9818  15.771   3.813   7.947  0.1060  0.5304 -0.1727
  720loPI    C1 9819  14.782   3.780   5.995 -0.0335  0.0428 -0.0110
  720loPI    C2 9820  14.766   3.922   5.622 -0.0707  0.1617  0.0354
  720loPI    C3 9821  14.801   3.529   5.685 -0.1226  0.1361 -0.0929
  720loPI   PO4 9822  14.676   4.036   6.160 -0.1257 -0.3031 -0.2092
  720loPI   GL1 9823  14.851   4.420   6.351 -0.1533 -0.2658  0.1826
  720loPI   GL2 9824  15.105   4.272   6.525 -0.1021 -0.1801 -0.0497
  720loPI   C1A 9825  14.768   4.503   6.823  0.1508  0.0109  0.1775
  720loPI   C2A 9826  14.899   4.379   7.257  0.2970 -0.0005  0.0932
  720loPI   C3A 9827  15.045   4.500   7.636 -0.0034  0.1419 -0.0636
  720loPI   C4A 9828  15.075   4.454   7.961 -0.1649  0.1451  0.0688
  720loPI   C5A 9829  15.116   4.769   8.327  0.0702 -0.1304  0.0789
  720loPI   C6A 9830  15.063   5.087   8.416 -0.1633 -0.0357  0.3225
  720loPI   C1B 9831  15.245   4.243   6.945 -0.1172  0.0898  0.0249
  720loPI   C2B 9832  15.512   4.214   7.284  0.0273 -0.0753  0.0270
  720loPI   C3B 9833  15.583   4.293   7.675  0.2160 -0.0287 -0.1777
  720loPI   C4B 9834  15.625   4.230   8.077 -0.0788  0.0942  0.3046
  721loPI    C1 9835  10.828  10.352   5.778  0.1655  0.1343  0.0268
  721loPI    C2 9836  11.156  10.301   5.554  0.1740  0.0848  0.0506
  721loPI    C3 9837  10.862  10.030   5.543  0.2372  0.0083  0.2075
  721loPI   PO4 9838  10.925  10.497   5.984 -0.0004 -0.0816  0.1991
  721loPI   GL1 9839  10.896  10.469   6.429 -0.2693 -0.1495 -0.2298
  721loPI   GL2 9840  11.240  10.452   6.397 -0.2922  0.0190 -0.3131
  721loPI   C1A 9841  10.739  10.710   6.886  0.0003  0.2640  0.2747
  721loPI   C2A 9842  10.714  10.724   7.316  0.1403 -0.0804  0.1987
  721loPI   C3A 9843  10.507  10.636   7.741 -0.2190  0.0066  0.2402
  721loPI   C4A 9844  10.429  10.901   8.127  0.0817 -0.0120  0.1096
  721loPI   C5A 9845  10.577  11.188   8.397  0.0478 -0.0980 -0.3237
  721loPI   C6A 9846  10.617  11.569   8.581 -0.0379 -0.1138 -0.3372
  721loPI   C1B 9847  11.197  10.373   6.862  0.2799 -0.0250  0.0035
  721loPI   C2B 9848  11.040   9.999   7.072 -0.2707  0.1737 -0.2322
  721loPI   C3B 9849  10.906   9.867   7.515  0.3461  0.1986  0.2536
  721loPI   C4B 9850  10.781   9.442   7.834  0.4519  0.0560  0.0819
  722loPI    C1 9851  14.311  10.861   5.475 -0.2726 -0.1177  0.0378
  722loPI    C2 9852  13.947  10.995   5.379 -0.2655 -0.0776  0.0665
  722loPI    C3 9853  14.272  11.171   5.226 -0.2579 -0.1076  0.0480
  722loPI   PO4 9854  14.351  10.828   5.734  0.1289 -0.0173  0.1542
  722loPI   GL1 9855  14.374  10.493   6.048  0.0054  0.1346  0.2310
  722loPI   GL2 9856  14.111  10.703   6.307  0.2163 -0.1908 -0.3119
  722loPI   C1A 9857  14.445  10.349   6.435  0.0923  0.2691  0.2912
  722loPI   C2A 9858  14.431  10.306   6.853 -0.0306 -0.1245 -0.2879
  722loPI   C3A 9859  14.450  10.406   7.217 -0.0308  0.1773  0.0346
  722loPI   C4A 9860  14.455  10.300   7.565 -0.1468 -0.2014 -0.0379
  722loPI   C5A 9861  14.475  10.502   7.989 -0.0732  0.1147  0.0536
  722loPI   C6A 9862  14.377  10.677   8.377 -0.0671 -0.2342 -0.4447
  722loPI   C1B 9863  14.047  10.562   6.771  0.3022  0.2766 -0.1732
  722loPI   C2B 9864  13.841  10.472   7.130 -0.2373 -0.1345 -0.0155
  722loPI   C3B 9865  13.916  10.267   7.482 -0.0009 -0.0793 -0.2643
  722loPI   C4B 9866  13.982  10.287   7.939 -0.2529 -0.2411 -0.0890
  723loPI    C1 9867   9.476   5.034   5.879 -0.0056 -0.1769 -0.0958
  723loPI    C2 9868   9.391   5.112   5.496 -0.1739 -0.1977 -0.0637
  723loPI    C3 9869   9.379   5.406   5.767  0.1862 -0.1318 -0.1145
  723loPI   PO4 9870   9.275   4.746   5.884  0.2383  0.0298 -0.0673
  723loPI   GL1 9871   8.884   4.793   6.144  0.1069  0.0768 -0.0927
  723loPI   GL2 9872   8.552   4.705   6.325  0.4701  0.1669 -0.2421
  723loPI   C1A 9873   8.962   4.890   6.663 -0.1359  0.0178  0.3197
  723loPI   C2A 9874   8.804   4.826   7.061  0.0534  0.1877  0.1720
  723loPI   C3A 9875   8.856   5.146   7.431  0.0766 -0.0148 -0.0278
  723loPI   C4A 9876   8.771   5.358   7.850 -0.0992  0.0756  0.0414
  723loPI   C5A 9877   8.592   5.701   8.119  0.1043  0.1859 -0.2898
  723loPI   C6A 9878   8.651   5.794   8.503  0.0954  0.0536 -0.1548
  723loPI   C1B 9879   8.474   4.893   6.689  0.0124 -0.2701 -0.5457
  723loPI   C2B 9880   8.421   5.137   7.131  0.0696  0.1491 -0.2958
  723loPI   C3B 9881   8.376   5.193   7.503 -0.0690 -0.0022  0.0270
  723loPI   C4B 9882   8.207   5.497   7.747  0.1238 -0.2250  0.1266
  724loPI    C1 9883  10.441  11.742   5.550 -0.1659 -0.0671 -0.1492
  724loPI    C2 9884  10.737  11.605   5.320 -0.0634 -0.1022  0.0026
  724loPI    C3 9885  10.402  11.391   5.362 -0.1167 -0.0559 -0.1803
  724loPI   PO4 9886  10.626  11.820   5.748 -0.0053  0.1082  0.5086
  724loPI   GL1 9887  10.751  11.636   6.110  0.1543 -0.1799  0.0780
  724loPI   GL2 9888  10.496  11.588   6.382 -0.1877 -0.2285 -0.0017
  724loPI   C1A 9889  11.173  11.485   6.316 -0.0085 -0.2366 -0.1387
  724loPI   C2A 9890  11.398  11.345   6.690  0.2403 -0.1100 -0.2142
  724loPI   C3A 9891  11.626  11.249   7.112  0.1212 -0.0067 -0.2713
  724loPI   C4A 9892  11.828  10.971   7.521 -0.0246  0.0807  0.1100
  724loPI   C5A 9893  11.822  11.025   7.976  0.0880 -0.0458 -0.0227
  724loPI   C6A 9894  12.263  11.199   8.170 -0.0468  0.0578 -0.2008
  724loPI   C1B 9895  10.199  11.587   6.722  0.0008  0.0028  0.3439
  724loPI   C2B 9896  10.089  11.492   7.110 -0.0409  0.0210  0.1916
  724loPI   C3B 9897  10.086  11.420   7.446  0.0983 -0.0510  0.0948
  724loPI   C4B 9898  10.175  11.297   7.904  0.1235  0.0035  0.1890
  725loPI    C1 9899  12.217   7.627   6.147 -0.1066 -0.0415 -0.0398
  725loPI    C2 9900  12.283   7.458   5.791 -0.2331  0.0143 -0.0903
  725loPI    C3 9901  12.478   7.326   6.114  0.1443  0.1928 -0.2388
  725loPI   PO4 9902  11.967   7.632   6.172  0.0299  0.0011  0.3809
  725loPI   GL1 9903  11.836   7.356   6.409 -0.1519 -0.0214  0.2990
  725loPI   GL2 9904  12.198   7.290   6.554 -0.0326 -0.0090 -0.0070
  725loPI   C1A 9905  11.698   7.470   6.821  0.2886 -0.2527  0.0056
  725loPI   C2A 9906  11.599   7.565   7.193  0.0480 -0.0135 -0.2462
  725loPI   C3A 9907  11.453   7.617   7.533 -0.1981 -0.2175 -0.0487
  725loPI   C4A 9908  11.199   7.492   7.693 -0.0192 -0.0344  0.3754
  725loPI   C5A 9909  11.055   7.309   8.023 -0.3018  0.0227 -0.1142
  725loPI   C6A 9910  11.049   7.015   8.349 -0.0756  0.1858 -0.0109
  725loPI   C1B 9911  12.150   7.427   6.942 -0.1311 -0.4686 -0.0850
  725loPI   C2B 9912  12.183   7.472   7.358  0.1300 -0.0480  0.1213
  725loPI   C3B 9913  11.936   7.454   7.788  0.0111 -0.0379  0.1115
  725loPI   C4B 9914  11.829   7.423   8.289 -0.0288  0.0343  0.0557
  726loPI    C1 9915  11.418  13.096   6.353  0.0891 -0.1612  0.1203
  726loPI    C2 9916  11.073  12.900   6.300  0.1491 -0.2131 -0.0865
  726loPI    C3 9917  11.137  13.248   6.112  0.1004 -0.0648  0.1677
  726loPI   PO4 9918  11.614  12.921   6.354 -0.1206 -0.4570  0.0247
  726loPI   GL1 9919  11.907  12.761   6.673 -0.1696  0.0345  0.2126
  726loPI   GL2 9920  12.092  12.925   6.594  0.1644 -0.0186 -0.1231
  726loPI   C1A 9921  11.987  12.516   7.033 -0.2486 -0.0864  0.0374
  726loPI   C2A 9922  12.101  12.654   7.411 -0.0165  0.1118  0.1665
  726loPI   C3A 9923  11.999  12.581   7.802  0.0965 -0.1046 -0.2517
  726loPI   C4A 9924  12.175  12.599   8.137  0.1283  0.0523  0.0073
  726loPI   C5A 9925  12.599  12.626   8.232  0.0594  0.1411  0.1682
  726loPI   C6A 9926  12.781  12.956   8.251 -0.0901 -0.0948  0.0022
  726loPI   C1B 9927  12.394  13.015   6.876 -0.0814  0.0869 -0.3979
  726loPI   C2B 9928  12.499  13.035   7.312  0.1491  0.1317 -0.3565
  726loPI   C3B 9929  12.408  12.866   7.799  0.0922 -0.2929  0.2015
  726loPI   C4B 9930  12.496  13.299   8.072  0.1661 -0.0972  0.0033
  727loPI    C1 9931   2.575   6.646   5.911 -0.0812  0.0425  0.0806
  727loPI    C2 9932   2.262   6.890   5.859 -0.1475 -0.0974 -0.1993
  727loPI    C3 9933   2.467   6.758   5.542 -0.0150 -0.2797 -0.0402
  727loPI   PO4 9934   2.772   6.702   6.059 -0.2342  0.0232  0.3099
  727loPI   GL1 9935   3.066   6.790   6.365  0.1769 -0.2623  0.0388
  727loPI   GL2 9936   3.256   6.543   6.517 -0.0316  0.0181 -0.1657
  727loPI   C1A 9937   2.767   6.794   6.700 -0.2202 -0.0573  0.0466
  727loPI   C2A 9938   2.743   6.702   7.109 -0.0394 -0.1180  0.2933
  727loPI   C3A 9939   2.588   6.739   7.527 -0.1357 -0.1150  0.2125
  727loPI   C4A 9940   2.327   7.092   7.711  0.0886 -0.0148  0.1020
  727loPI   C5A 9941   2.181   6.995   8.172 -0.0576  0.1120  0.1860
  727loPI   C6A 9942   2.156   6.646   8.524  0.1014 -0.0358 -0.0708
  727loPI   C1B 9943   3.085   6.376   6.900  0.1500  0.0618  0.0155
  727loPI   C2B 9944   2.945   6.289   7.334 -0.1772 -0.4136  0.0111
  727loPI   C3B 9945   2.979   6.490   7.680 -0.0467  0.0540 -0.2453
  727loPI   C4B 9946   2.904   6.811   7.933 -0.0690  0.1015  0.2328
  728loPI    C1 9947   0.633   0.846   6.199 -0.0538 -0.0254 -0.0548
  728loPI    C2 9948   0.787   0.765   5.839  0.0852  0.0350 -0.0095
  728loPI    C3 9949   0.966   0.626   6.168  0.1418  0.2501  0.0522
  728loPI   PO4 9950   0.376   0.756   6.201 -0.0901 -0.4420 -0.0487
  728loPI   GL1 9951   0.111   0.536   6.527 -0.1206 -0.2019  0.0194
  728loPI   GL2 9952  -0.234   0.741   6.623  0.0684  0.0779 -0.1100
  728loPI   C1A 9953   0.065   0.332   6.891  0.1212  0.0105  0.0219
  728loPI   C2A 9954   0.234   0.093   7.205  0.0449  0.1929 -0.1441
  728loPI   C3A 9955   0.394  -0.116   7.522 -0.0754 -0.3684 -0.3114
  728loPI   C4A 9956   0.497  -0.176   7.903  0.1198  0.1312  0.0578
  728loPI   C5A 9957   0.490  -0.121   8.306  0.3132 -0.1132 -0.2515
  728loPI   C6A 9958   0.702   0.076   8.613 -0.0656  0.0293 -0.0756
  728loPI   C1B 9959  -0.120   0.730   7.136 -0.1102 -0.2611 -0.4511
  728loPI   C2B 9960  -0.182   0.708   7.611 -0.3045 -0.3975 -0.1966
  728loPI   C3B 9961  -0.071   0.519   8.051 -0.3565 -0.2704  0.0114
  728loPI   C4B 9962  -0.184   0.689   8.456 -0.0709 -0.1868  0.0971
  729loPI    C1 9963  15.302   3.738   5.781 -0.1958  0.2284 -0.1237
  729loPI    C2 9964  15.237   3.376   5.623 -0.0471  0.2725 -0.2902
  729loPI    C3 9965  15.574   3.573   5.538  0.2039  0.1505  0.3614
  729loPI   PO4 9966  15.272   3.669   6.047 -0.0217 -0.0489  0.3529
  729loPI   GL1 9967  15.031   3.770   6.431 -0.1582  0.1312 -0.1583
  729loPI   GL2 9968  14.776   3.938   6.648  0.1684  0.0606 -0.0002
  729loPI   C1A 9969  15.267   3.761   6.850  0.0425 -0.2010 -0.0861
  729loPI   C2A 9970  15.283   3.829   7.220  0.1360  0.0426  0.1516
  729loPI   C3A 9971  15.294   3.884   7.688  0.0668 -0.0358  0.3674
  729loPI   C4A 9972  15.241   3.877   8.076  0.3881 -0.0265 -0.0694
  729loPI   C5A 9973  15.247   4.172   8.405 -0.6317  0.1682 -0.3017
  729loPI   C6A 9974  15.625   4.096   8.665 -0.2233 -0.0517  0.0737
  729loPI   C1B 9975  14.744   3.939   7.064  0.0107  0.0967  0.0597
  729loPI   C2B 9976  14.749   3.887   7.540  0.0818  0.3152 -0.0659
  729loPI   C3B 9977  14.752   3.897   7.938 -0.1233  0.5247 -0.2054
  729loPI   C4B 9978  14.807   3.807   8.309  0.0685  0.1963 -0.0809
  730loPI    C1 9979   2.914   2.808   5.897  0.0760 -0.0281 -0.0990
  730loPI    C2 9980   2.731   2.515   5.695 -0.2710  0.0433  0.1018
  730loPI    C3 9981   2.866   2.838   5.501  0.1619 -0.2657 -0.1289
  730loPI   PO4 9982   2.654   2.921   6.146  0.2588 -0.0111  0.0725
  730loPI   GL1 9983   2.441   2.915   6.510 -0.0432  0.1263  0.0102
  730loPI   GL2 9984   2.149   2.880   6.579  0.2329 -0.2983 -0.1043
  730loPI   C1A 9985   2.595   3.259   6.875 -0.0974  0.0397  0.1235
  730loPI   C2A 9986   2.899   3.468   7.087 -0.4354 -0.2759  0.1123
  730loPI   C3A 9987   2.949   3.473   7.509 -0.1417  0.0669  0.0596
  730loPI   C4A 9988   2.694   3.430   7.866  0.0213 -0.0066 -0.0737
  730loPI   C5A 9989   2.705   3.285   8.295 -0.2638  0.1091  0.0114
  730loPI   C6A 9990   2.696   2.833   8.450  0.0139  0.2500 -0.3785
  730loPI   C1B 9991   2.124   2.926   7.092 -0.2006 -0.3113 -0.5001
  730loPI   C2B 9992   2.134   2.893   7.515  0.1330  0.0345  0.4269
  730loPI   C3B 9993   2.138   2.735   7.925  0.1115  0.1116 -0.0156
  730loPI   C4B 9994   1.945   2.580   8.306  0.1667 -0.0337 -0.1849
  731loPI    C1 9995   6.621   3.942   5.770 -0.2644  0.1292 -0.0403
  731loPI    C2 9996   6.579   3.580   5.605  0.1855  0.0398  0.0276
  731loPI    C3 9997   6.542   3.909   5.379  0.0367 -0.0549 -0.0884
  731loPI   PO4 9998   6.392   3.881   5.979 -0.4130  0.2914  0.1990
  731loPI   GL1 9999   6.101   4.124   6.363 -0.1913 -0.1406 -0.1193
  731loPI   GL210000   5.868   4.366   6.429  0.2587  0.0167 -0.3124
  731loPI   C1A10001   6.197   4.163   6.776 -0.0422 -0.1561  0.2084
  731loPI   C2A10002   6.226   4.060   7.227  0.0948  0.0897  0.1048
  731loPI   C3A10003   6.384   3.839   7.553  0.2173 -0.0610 -0.1817
  731loPI   C4A10004   6.387   3.791   7.979  0.2342 -0.0083  0.0322
  731loPI   C5A10005   6.490   3.623   8.405 -0.1135  0.0655 -0.1534
  731loPI   C6A10006   6.160   3.657   8.724 -0.0619 -0.1852  0.4516
  731loPI   C1B10007   5.675   4.328   6.871  0.2263  0.0227 -0.0172
  731loPI   C2B10008   5.703   4.287   7.263  0.1498  0.0285 -0.3485
  731loPI   C3B10009   5.970   4.194   7.602 -0.1730 -0.1624 -0.0929
  731loPI   C4B10010   6.167   4.343   7.966  0.3446 -0.0321  0.3134
  732loPI    C110011   5.079   5.311   5.774 -0.0712  0.0443 -0.1215
  732loPI    C210012   5.183   5.511   5.443 -0.1389 -0.0744 -0.2155
  732loPI    C310013   5.406   5.204   5.570 -0.1219 -0.0392 -0.1597
  732loPI   PO410014   4.882   5.469   5.951 -0.0712  0.1246 -0.0344
  732loPI   GL110015   4.977   5.644   6.408  0.1292 -0.2011  0.3427
  732loPI   GL210016   5.196   5.721   6.185  0.1325 -0.2321  0.2220
  732loPI   C1A10017   4.965   5.480   6.791 -0.0354  0.0719  0.3052
  732loPI   C2A10018   4.890   5.601   7.186  0.1712  0.0004 -0.3561
  732loPI   C3A10019   4.932   5.563   7.660 -0.1711 -0.3718  0.0436
  732loPI   C4A10020   4.863   5.123   7.938  0.0322 -0.1057 -0.1068
  732loPI   C5A10021   4.528   4.884   8.170 -0.0015 -0.1366 -0.2559
  732loPI   C6A10022   4.261   4.495   8.351 -0.2359  0.1082  0.0359
  732loPI   C1B10023   5.361   5.874   6.500 -0.1899 -0.1565 -0.2170
  732loPI   C2B10024   5.445   5.930   6.969  0.1944  0.0018  0.1761
  732loPI   C3B10025   5.346   5.878   7.406 -0.0864  0.0379 -0.0884
  732loPI   C4B10026   5.344   5.848   7.901 -0.0195  0.1350 -0.3120
  733loPI    C110027   5.383   1.642   5.955  0.0182  0.0715  0.0067
  733loPI    C210028   5.096   1.507   5.711  0.0336  0.1691 -0.0659
  733loPI    C310029   5.060   1.867   5.883  0.0377  0.1141  0.0513
  733loPI   PO410030   5.553   1.346   5.976 -0.0459 -0.0642  0.2400
  733loPI   GL110031   5.490   1.164   6.459 -0.2847  0.3037 -0.2863
  733loPI   GL210032   5.396   1.474   6.461  0.0367  0.2850  0.3188
  733loPI   C1A10033   5.537   1.208   6.877 -0.0535  0.2245 -0.2248
  733loPI   C2A10034   5.521   1.370   7.285 -0.0345  0.0982  0.1807
  733loPI   C3A10035   5.555   1.266   7.661  0.2376 -0.0256  0.0359
  733loPI   C4A10036   5.440   1.371   8.138  0.0569 -0.2716  0.4423
  733loPI   C5A10037   5.596   1.232   8.514 -0.0438  0.2417  0.2428
  733loPI   C6A10038   5.694   0.813   8.484 -0.2696  0.1160 -0.0987
  733loPI   C1B10039   5.319   1.666   6.752  0.1513  0.0999 -0.2419
  733loPI   C2B10040   5.201   1.816   7.177 -0.4718  0.0285 -0.1227
  733loPI   C3B10041   5.279   1.759   7.560 -0.0747  0.1112 -0.0193
  733loPI   C4B10042   5.150   1.931   7.933 -0.1151  0.1925  0.0469
  734loPI    C110043   9.544   7.881   5.672  0.1345  0.2901 -0.1646
  734loPI    C210044   9.597   8.277   5.671 -0.0853  0.3224  0.0327
  734loPI    C310045   9.289   8.118   5.870 -0.0363  0.0564 -0.1008
  734loPI   PO410046   9.828   7.791   5.748 -0.0941 -0.0011 -0.2730
  734loPI   GL110047   9.994   7.858   6.143  0.2660  0.1505 -0.0972
  734loPI   GL210048   9.691   7.750   6.219 -0.0598  0.2126  0.1066
  734loPI   C1A10049  10.123   7.690   6.498 -0.0626  0.1515 -0.0060
  734loPI   C2A10050  10.057   7.764   6.838 -0.1581 -0.1506  0.0106
  734loPI   C3A10051  10.056   7.792   7.264  0.1022 -0.1598  0.1010
  734loPI   C4A10052   9.881   7.839   7.646 -0.0643 -0.0575  0.0646
  734loPI   C5A10053   9.711   7.812   8.061 -0.1629 -0.2949 -0.0765
  734loPI   C6A10054   9.326   7.981   8.192 -0.0197  0.1021 -0.2648
  734loPI   C1B10055   9.337   7.740   6.356  0.0570  0.0366 -0.0862
  734loPI   C2B10056   9.168   7.749   6.789  0.1219 -0.0771  0.1425
  734loPI   C3B10057   9.077   7.699   7.176 -0.2671  0.2373 -0.0530
  734loPI   C4B10058   9.001   7.780   7.576 -0.1759 -0.2137  0.1472
  735loPI    C110059   9.596  14.900   5.790  0.1357  0.0894  0.1792
  735loPI    C210060   9.457  15.042   5.444  0.1329  0.0418  0.1608
  735loPI    C310061   9.217  14.831   5.684  0.2255 -0.2059  0.0390
  735loPI   PO410062   9.693  15.134   5.912  0.0719  0.1886  0.0339
  735loPI   GL110063   9.877  15.199   6.245 -0.0607  0.1997  0.0375
  735loPI   GL210064   9.506  15.346   6.447  0.1746 -0.0424  0.2257
  735loPI   C1A10065   9.850  14.953   6.643 -0.4703 -0.4259  0.0921
  735loPI   C2A10066   9.937  14.893   6.992 -0.1950 -0.0768 -0.2304
  735loPI   C3A10067  10.227  14.934   7.320 -0.2854  0.2006  0.2347
  735loPI   C4A10068  10.306  15.149   7.715  0.2577  0.0536  0.2422
  735loPI   C5A10069  10.352  15.225   8.107 -0.0345  0.4035  0.3068
  735loPI   C6A10070  10.255  15.300   8.540 -0.0617 -0.0591 -0.1022
  735loPI   C1B10071   9.399  15.263   6.902  0.1884 -0.4412 -0.0176
  735loPI   C2B10072   9.341  15.444   7.311  0.0255 -0.0506 -0.0848
  735loPI   C3B10073   9.239  15.503   7.776 -0.3409 -0.2656 -0.2760
  735loPI   C4B10074   8.940  15.153   7.956  0.1905 -0.1301 -0.1940
  736loPI    C110075   1.590  11.495   5.578 -0.1325 -0.3541  0.2801
  736loPI    C210076   1.245  11.450   5.380 -0.1054 -0.1918  0.1950
  736loPI    C310077   1.491  11.138   5.427 -0.1458 -0.2485  0.0354
  736loPI   PO410078   1.520  11.632   5.774  0.0798  0.1168 -0.1616
  736loPI   GL110079   1.515  11.550   6.216 -0.2117  0.0910  0.1250
  736loPI   GL210080   1.172  11.388   6.311  0.1765 -0.0737 -0.0198
  736loPI   C1A10081   1.785  11.584   6.581  0.2785  0.0713  0.0459
  736loPI   C2A10082   1.888  11.593   6.901 -0.1886 -0.0246  0.0554
  736loPI   C3A10083   2.001  11.533   7.327  0.0201  0.0459 -0.3027
  736loPI   C4A10084   1.867  11.597   7.745 -0.0819 -0.0080  0.1773
  736loPI   C5A10085   1.676  11.897   8.119  0.4028  0.0470  0.0814
  736loPI   C6A10086   1.666  12.303   8.261 -0.0372  0.0534  0.0098
  736loPI   C1B10087   1.235  11.474   6.670 -0.0955  0.0615 -0.2243
  736loPI   C2B10088   1.046  11.397   7.031 -0.1062 -0.0225 -0.0211
  736loPI   C3B10089   1.018  11.413   7.527 -0.1104  0.1303 -0.0891
  736loPI   C4B10090   0.666  11.347   7.910  0.0304 -0.3817 -0.0929
  737loPI    C110091  11.743  17.341   5.466 -0.4360  0.0347 -0.1451
  737loPI    C210092  11.692  17.090   5.159 -0.0881 -0.2870  0.0515
  737loPI    C310093  12.060  17.211   5.259 -0.2229  0.0287  0.1774
  737loPI   PO410094  11.595  17.147   5.629 -0.0984 -0.0832 -0.1414
  737loPI   GL110095  11.712  17.077   6.124  0.1292  0.0710  0.3121
  737loPI   GL210096  11.752  17.398   6.010  0.0565  0.1475  0.2433
  737loPI   C1A10097  11.502  17.243   6.549  0.0002 -0.1481 -0.0526
  737loPI   C2A10098  11.427  17.428   6.877 -0.0814  0.1268 -0.0331
  737loPI   C3A10099  11.575  17.385   7.144  0.1673  0.1573 -0.1114
  737loPI   C4A10100  11.601  17.489   7.614  0.0414 -0.2001 -0.0807
  737loPI   C5A10101  11.645  17.354   8.065 -0.0432  0.0230 -0.2535
  737loPI   C6A10102  11.695  17.403   8.482  0.2810 -0.2426 -0.0969
  737loPI   C1B10103  11.804  17.609   6.346  0.1259 -0.0820  0.0304
  737loPI   C2B10104  11.887  17.625   6.822 -0.1374  0.0939 -0.2175
  737loPI   C3B10105  11.977  17.687   7.254 -0.1770  0.1268 -0.0284
  737loPI   C4B10106  12.024  17.763   7.741  0.3346 -0.1865 -0.0272
  738loPI    C110107   9.571  17.602   6.377 -0.0255 -0.0622 -0.0531
  738loPI    C210108   9.507  17.255   6.189 -0.1308 -0.1870  0.2077
  738loPI    C310109   9.877  17.403   6.214 -0.1333 -0.0970 -0.2151
  738loPI   PO410110   9.329  17.623   6.471  0.0946 -0.1559 -0.2075
  738loPI   GL110111   9.214  17.917   6.884  0.1887 -0.0942  0.1675
  738loPI   GL210112   9.074  17.617   6.973  0.2172  0.2907  0.1604
  738loPI   C1A10113   9.298  17.924   7.263 -0.0094 -0.1996  0.3789
  738loPI   C2A10114   9.390  17.999   7.713  0.0558  0.1403 -0.0404
  738loPI   C3A10115   9.390  18.076   8.203  0.1108 -0.1216 -0.1080
  738loPI   C4A10116   9.646  18.068   8.600  0.0781 -0.0146 -0.1639
  738loPI   C5A10117  10.010  17.888   8.553 -0.0810  0.1278  0.0728
  738loPI   C6A10118  10.383  17.953   8.471 -0.1889 -0.3771 -0.0614
  738loPI   C1B10119   9.191  17.365   7.403 -0.2710  0.0318  0.0034
  738loPI   C2B10120   9.363  17.392   7.796  0.1791  0.0631  0.0744
  738loPI   C3B10121   9.451  17.249   8.283  0.4251 -0.1652 -0.1247
  738loPI   C4B10122   9.558  17.133   8.711 -0.0537 -0.2089  0.0945
  739loPI    C110123   5.335  12.433   6.032  0.1440  0.1750 -0.0666
  739loPI    C210124   5.312  12.604   5.672  0.0104 -0.0342 -0.1590
  739loPI    C310125   5.269  12.208   5.708  0.0502 -0.0175  0.0841
  739loPI   PO410126   5.432  12.629   6.183 -0.0153  0.2790  0.0847
  739loPI   GL110127   5.255  12.819   6.576  0.0992 -0.0955 -0.4609
  739loPI   GL210128   5.070  12.558   6.517 -0.0400 -0.0841  0.1250
  739loPI   C1A10129   5.245  12.863   7.031  0.1195  0.0107 -0.0869
  739loPI   C2A10130   5.227  12.780   7.497  0.0128  0.2789 -0.0767
  739loPI   C3A10131   5.414  13.038   7.780 -0.1874  0.1957 -0.1389
  739loPI   C4A10132   5.445  12.991   8.230 -0.0832  0.2626 -0.0214
  739loPI   C5A10133   5.464  12.682   8.450  0.1232 -0.0012  0.0681
  739loPI   C6A10134   5.318  12.243   8.364  0.0233  0.1408  0.0934
  739loPI   C1B10135   5.230  12.294   6.953 -0.2271 -0.1392 -0.1468
  739loPI   C2B10136   5.288  12.318   7.369  0.1096 -0.2298 -0.3033
  739loPI   C3B10137   5.256  12.366   7.844 -0.2576  0.1892  0.0355
  739loPI   C4B10138   5.059  12.683   8.066 -0.0802  0.0409  0.1348
  740loPI    C110139   3.562   8.934   5.818  0.0029 -0.1259 -0.0696
  740loPI    C210140   3.569   8.822   5.434  0.0656  0.1449 -0.1488
  740loPI    C310141   3.831   9.093   5.569  0.0412  0.0540  0.0846
  740loPI   PO410142   3.317   8.933   5.898  0.0069 -0.0705 -0.1657
  740loPI   GL110143   3.224   9.254   6.155  0.0555  0.2969 -0.2019
  740loPI   GL210144   3.488   9.222   6.296 -0.3783 -0.3120 -0.0536
  740loPI   C1A10145   2.953   9.387   6.503  0.0218  0.0631 -0.0804
  740loPI   C2A10146   2.821   9.474   6.846  0.0726 -0.0020 -0.1421
  740loPI   C3A10147   2.858   9.337   7.258  0.0433  0.2953 -0.0477
  740loPI   C4A10148   2.892   9.257   7.605  0.2124  0.0359  0.0055
  740loPI   C5A10149   2.772   9.417   8.051  0.1293  0.1041 -0.0319
  740loPI   C6A10150   2.833   9.792   8.269  0.0031 -0.0888 -0.2940
  740loPI   C1B10151   3.331   9.126   6.614 -0.0712 -0.0055 -0.0404
  740loPI   C2B10152   3.343   9.060   6.944 -0.0034 -0.0131  0.2381
  740loPI   C3B10153   3.336   9.210   7.301 -0.0795  0.0170  0.0408
  740loPI   C4B10154   3.412   9.130   7.687 -0.1523 -0.3373 -0.1069
  741loPI    C110155   2.059  17.304   6.124  0.1272  0.1820  0.2528
  741loPI    C210156   2.138  16.967   6.325  0.0637  0.0567  0.0713
  741loPI    C310157   2.420  17.249   6.289  0.1384 -0.0043  0.1700
  741loPI   PO410158   1.820  17.365   6.253  0.5238  0.0856  0.1392
  741loPI   GL110159   1.705  17.719   6.462 -0.0608  0.4025 -0.2489
  741loPI   GL210160   1.344  17.654   6.453 -0.1393 -0.2984  0.2546
  741loPI   C1A10161   1.604  17.722   6.899 -0.0229  0.0399 -0.2273
  741loPI   C2A10162   1.824  17.615   7.207  0.0051  0.1736  0.1806
  741loPI   C3A10163   1.931  17.595   7.620 -0.2033  0.2540 -0.0100
  741loPI   C4A10164   2.078  17.667   8.055  0.2984 -0.2241  0.0363
  741loPI   C5A10165   2.247  17.575   8.388 -0.2136  0.3001  0.0029
  741loPI   C6A10166   2.526  17.206   8.652  0.3194 -0.2509  0.0170
  741loPI   C1B10167   1.315  17.277   6.764 -0.0014  0.1445  0.0753
  741loPI   C2B10168   1.321  17.332   7.199 -0.1410  0.0220  0.0035
  741loPI   C3B10169   1.429  17.620   7.564 -0.1561 -0.1895 -0.0634
  741loPI   C4B10170   1.257  17.963   7.811 -0.2060  0.1648 -0.1353
  742loPI    C110171  14.512  15.252   5.590 -0.0265  0.1035  0.0632
  742loPI    C210172  14.838  15.408   5.419  0.0527 -0.0683  0.0555
  742loPI    C310173  14.702  15.051   5.301 -0.1767  0.0310  0.0141
  742loPI   PO410174  14.592  15.250   5.844 -0.1163 -0.2161 -0.0896
  742loPI   GL110175  14.630  15.331   6.298  0.2032 -0.1804 -0.0064
  742loPI   GL210176  14.540  15.558   6.298 -0.1290  0.0914 -0.0327
  742loPI   C1A10177  14.708  15.399   6.781  0.3463 -0.1214 -0.0637
  742loPI   C2A10178  14.773  15.340   7.257 -0.3431 -0.2925 -0.1072
  742loPI   C3A10179  14.752  15.188   7.607  0.0589  0.1538 -0.3487
  742loPI   C4A10180  15.042  14.901   7.903  0.2337  0.0874  0.1980
  742loPI   C5A10181  15.440  14.883   8.087  0.1925 -0.0479  0.1280
  742loPI   C6A10182  15.698  15.036   8.341  0.0524  0.1338  0.3678
  742loPI   C1B10183  14.309  15.682   6.781  0.2590 -0.3507  0.1154
  742loPI   C2B10184  14.471  15.718   7.190  0.0610 -0.0705 -0.0566
  742loPI   C3B10185  14.493  15.665   7.552  0.1468 -0.0653 -0.4426
  742loPI   C4B10186  14.531  15.553   7.967  0.0479 -0.0627  0.0090
  743loPI    C110187  16.915   6.721   6.275 -0.1067  0.0025  0.0567
  743loPI    C210188  16.982   6.505   6.605 -0.2051 -0.0715  0.0286
  743loPI    C310189  16.899   6.321   6.259  0.0570  0.0002 -0.0743
  743loPI   PO410190  17.044   6.932   6.369 -0.3145  0.1600  0.0896
  743loPI   GL110191  17.063   6.980   6.780 -0.0907  0.1152 -0.0670
  743loPI   GL210192  16.841   7.261   6.777  0.0351 -0.0202  0.0241
  743loPI   C1A10193  17.321   6.984   7.086 -0.1397  0.0786 -0.0237
  743loPI   C2A10194  17.450   7.031   7.557  0.2450  0.2281 -0.2032
  743loPI   C3A10195  17.804   6.882   7.642 -0.3019  0.1170  0.0078
  743loPI   C4A10196  17.930   6.676   8.041 -0.1477  0.0603  0.2060
  743loPI   C5A10197  18.230   6.381   8.208  0.3126 -0.1540  0.1525
  743loPI   C6A10198  18.568   6.345   8.084  0.3755 -0.1797 -0.3245
  743loPI   C1B10199  16.943   7.310   7.261  0.3847 -0.1437  0.1185
  743loPI   C2B10200  17.033   7.383   7.638 -0.1530 -0.1374  0.0283
  743loPI   C3B10201  16.983   7.368   8.098  0.0961 -0.1403 -0.0739
  743loPI   C4B10202  17.043   7.273   8.528  0.3370  0.4205  0.0721
  744loPI    C110203   4.631   0.113   5.758 -0.0097 -0.1629  0.2275
  744loPI    C210204   4.245   0.015   5.800 -0.1133  0.0962 -0.0755
  744loPI    C310205   4.469  -0.165   5.521  0.0612 -0.2445  0.2743
  744loPI   PO410206   4.724   0.179   5.967 -0.2180  0.3909  0.0247
  744loPI   GL110207   4.679   0.082   6.382 -0.1105 -0.1575  0.0072
  744loPI   GL210208   4.363  -0.029   6.335  0.1030 -0.0932  0.0088
  744loPI   C1A10209   4.837   0.115   6.868  0.1166 -0.3113 -0.3008
  744loPI   C2A10210   4.897   0.258   7.291  0.1974 -0.1030  0.0105
  744loPI   C3A10211   5.000   0.307   7.735 -0.2065  0.3395 -0.0634
  744loPI   C4A10212   4.939   0.510   8.152 -0.2398 -0.1932  0.1754
  744loPI   C5A10213   5.196   0.677   8.498  0.0795  0.2077 -0.1269
  744loPI   C6A10214   5.166   1.113   8.822  0.1421 -0.1607 -0.1748
  744loPI   C1B10215   4.383  -0.141   6.793 -0.0504  0.1172 -0.0697
  744loPI   C2B10216   4.572  -0.253   7.183 -0.1063 -0.1164 -0.3503
  744loPI   C3B10217   4.715  -0.111   7.573  0.1404 -0.1292 -0.0432
  744loPI   C4B10218   4.695  -0.003   8.021 -0.0056  0.1583 -0.1656
  745loPI    C110219  15.671   7.102   6.286 -0.0336 -0.0610  0.0717
  745loPI    C210220  15.285   7.201   6.319 -0.0643 -0.1927  0.1119
  745loPI    C310221  15.442   6.924   6.561  0.0598 -0.1265  0.1077
  745loPI   PO410222  15.845   7.266   6.330 -0.0541 -0.1724 -0.2178
  745loPI   GL110223  16.299   7.291   6.572  0.0244 -0.0136 -0.2413
  745loPI   GL210224  16.185   7.597   6.728  0.3850  0.0906  0.2210
  745loPI   C1A10225  16.347   7.218   7.019 -0.4088  0.3024  0.0256
  745loPI   C2A10226  16.544   7.206   7.509 -0.2048  0.1429 -0.0628
  745loPI   C3A10227  16.571   7.151   8.004 -0.0099 -0.3873 -0.1812
  745loPI   C4A10228  16.567   7.418   8.333 -0.4889 -0.0813 -0.1252
  745loPI   C5A10229  16.598   7.374   8.816  0.0318  0.0309 -0.1452
  745loPI   C6A10230  16.746   7.157   9.161 -0.1240  0.0349  0.0716
  745loPI   C1B10231  16.020   7.575   7.222  0.1613 -0.0004  0.0482
  745loPI   C2B10232  16.024   7.559   7.604 -0.1510 -0.1937 -0.0519
  745loPI   C3B10233  16.131   7.499   8.082  0.2457  0.0551 -0.1857
  745loPI   C4B10234  16.128   7.394   8.559  0.2815  0.0597  0.0521
  746loPI    C110235   5.261   6.664   5.605  0.0706  0.0868 -0.0449
  746loPI    C210236   4.939   6.862   5.738  0.0284  0.1152 -0.1884
  746loPI    C310237   5.049   6.892   5.354  0.0936 -0.0422 -0.1829
  746loPI   PO410238   5.385   6.584   5.813  0.2487  0.2182  0.4250
  746loPI   GL110239   5.664   6.464   6.166 -0.4009 -0.0154 -0.2474
  746loPI   GL210240   5.730   6.278   6.396 -0.1847 -0.0387 -0.2228
  746loPI   C1A10241   5.648   6.789   6.487 -0.0228  0.1197  0.2497
  746loPI   C2A10242   5.576   6.771   6.958  0.1073 -0.2087  0.1775
  746loPI   C3A10243   5.586   6.783   7.437  0.0935  0.3415  0.4531
  746loPI   C4A10244   5.482   6.852   7.793  0.0305  0.0481 -0.2166
  746loPI   C5A10245   5.473   6.880   8.255  0.0088  0.2635  0.0850
  746loPI   C6A10246   5.096   7.050   8.524  0.1032 -0.1364  0.0079
  746loPI   C1B10247   5.734   6.306   6.813  0.0479  0.0317  0.1173
  746loPI   C2B10248   5.734   6.192   7.343  0.3214  0.1117 -0.0116
  746loPI   C3B10249   5.663   6.170   7.818 -0.2059  0.0023  0.2719
  746loPI   C4B10250   5.594   6.107   8.251  0.0979  0.3558  0.2592
  747loPI    C110251   6.971  10.882   5.827 -0.1778 -0.0677  0.2655
  747loPI    C210252   6.701  11.117   6.005 -0.1670  0.0174  0.1710
  747loPI    C310253   6.636  10.984   5.634  0.0075  0.1960  0.0745
  747loPI   PO410254   6.968  10.583   5.951 -0.0631  0.0139 -0.0277
  747loPI   GL110255   6.677  10.400   6.151 -0.0692 -0.0071  0.2878
  747loPI   GL210256   6.328  10.458   6.232 -0.2882 -0.0415  0.3086
  747loPI   C1A10257   6.801  10.174   6.467 -0.1107  0.1659 -0.0082
  747loPI   C2A10258   6.742  10.194   6.924 -0.3695  0.1501  0.1167
  747loPI   C3A10259   6.769  10.161   7.339 -0.3088 -0.1743 -0.1629
  747loPI   C4A10260   6.926  10.163   7.813 -0.4145 -0.2228 -0.0910
  747loPI   C5A10261   6.980  10.195   8.208 -0.2566 -0.0098 -0.0540
  747loPI   C6A10262   6.782  10.379   8.636 -0.0224  0.3052  0.1668
  747loPI   C1B10263   6.192  10.530   6.685  0.0610  0.1517  0.1527
  747loPI   C2B10264   6.290  10.461   7.095 -0.0648  0.2110  0.0803
  747loPI   C3B10265   6.352  10.366   7.532 -0.0120 -0.1487 -0.2764
  747loPI   C4B10266   6.422  10.198   7.922 -0.2960 -0.3036  0.2913
  748loPI    C110267   7.801   6.311   5.344  0.1107 -0.2821 -0.0568
  748loPI    C210268   7.998   5.989   5.213 -0.0114 -0.3148 -0.1609
  748loPI    C310269   7.936   6.299   4.968 -0.1208 -0.3198 -0.1400
  748loPI   PO410270   7.896   6.396   5.549 -0.0460  0.1736 -0.2309
  748loPI   GL110271   7.958   6.398   5.968 -0.0171  0.0744  0.0467
  748loPI   GL210272   8.279   6.462   6.202  0.1852 -0.1295  0.1926
  748loPI   C1A10273   7.776   6.340   6.375  0.0661  0.1161 -0.3346
  748loPI   C2A10274   7.748   6.262   6.742 -0.0177 -0.3079  0.1239
  748loPI   C3A10275   7.539   6.101   7.134 -0.1684 -0.1263 -0.0328
  748loPI   C4A10276   7.546   5.993   7.608 -0.0658 -0.0534  0.2812
  748loPI   C5A10277   7.809   5.909   7.899 -0.2131 -0.2253  0.3352
  748loPI   C6A10278   8.043   5.755   8.185 -0.0024  0.2519 -0.1180
  748loPI   C1B10279   8.105   6.618   6.647 -0.0853  0.0612 -0.0335
  748loPI   C2B10280   8.039   6.598   7.059 -0.1427 -0.0381  0.3158
  748loPI   C3B10281   8.074   6.531   7.488 -0.0330  0.0599  0.0091
  748loPI   C4B10282   8.268   6.579   7.825 -0.2936  0.0174 -0.1198
  749loPI    C110283   9.345   0.817   6.117  0.1501  0.1688 -0.0828
  749loPI    C210284   9.473   0.959   5.765  0.0961  0.0743 -0.1411
  749loPI    C310285   9.121   0.773   5.789  0.1126  0.0551 -0.0420
  749loPI   PO410286   9.447   0.923   6.278 -0.2797  0.1691  0.0836
  749loPI   GL110287   9.800   0.717   6.453  0.1177  0.0112  0.1568
  749loPI   GL210288   9.612   0.420   6.467 -0.3408  0.1472 -0.3033
  749loPI   C1A10289  10.084   1.056   6.682 -0.1784  0.0607 -0.2988
  749loPI   C2A10290  10.289   1.136   7.065  0.0099  0.0176 -0.2939
  749loPI   C3A10291  10.303   1.210   7.555 -0.2236  0.1284 -0.1198
  749loPI   C4A10292  10.460   1.232   7.949 -0.1780 -0.1828  0.2296
  749loPI   C5A10293  10.670   1.326   8.351 -0.0153 -0.3136  0.0453
  749loPI   C6A10294  10.689   1.654   8.653  0.0033  0.0992 -0.1410
  749loPI   C1B10295   9.711   0.419   6.843 -0.1764  0.2142 -0.0450
  749loPI   C2B10296   9.744   0.514   7.253 -0.0978 -0.3106 -0.1656
  749loPI   C3B10297   9.864   0.530   7.701 -0.0740 -0.1578 -0.0969
  749loPI   C4B10298  10.056   0.379   8.043  0.1315 -0.0733  0.0155
  750loPI    C110299  13.872   1.214   5.530 -0.1251  0.1003 -0.3142
  750loPI    C210300  14.174   1.454   5.424  0.2132 -0.1642  0.0248
  750loPI    C310301  13.978   1.245   5.145  0.3706 -0.0235 -0.1947
  750loPI   PO410302  13.975   1.063   5.710 -0.1248  0.2187  0.2468
  750loPI   GL110303  13.978   1.119   6.091 -0.1584 -0.2118  0.3276
  750loPI   GL210304  14.101   1.320   6.190 -0.0303 -0.1164  0.0175
  750loPI   C1A10305  14.075   0.715   6.363 -0.2891  0.1819  0.0153
  750loPI   C2A10306  14.119   0.642   6.792  0.1503  0.0015 -0.0684
  750loPI   C3A10307  14.271   0.635   7.229 -0.1595  0.5016 -0.0831
  750loPI   C4A10308  14.364   0.632   7.700  0.0706  0.1657 -0.2779
  750loPI   C5A10309  14.273   0.736   8.115 -0.2872  0.2677  0.1292
  750loPI   C6A10310  14.137   0.757   8.563 -0.0344  0.2677  0.1135
  750loPI   C1B10311  14.244   1.133   6.555 -0.1429 -0.1148 -0.2453
  750loPI   C2B10312  14.198   1.078   6.997  0.1520 -0.2718  0.0538
  750loPI   C3B10313  14.143   1.147   7.405 -0.1304  0.0594 -0.0854
  750loPI   C4B10314  14.233   1.170   7.859  0.1134 -0.0346  0.0136
  751loPI    C110315   7.782   6.945   5.504  0.0392  0.0674  0.2558
  751loPI    C210316   8.071   7.036   5.242 -0.1360  0.0982  0.0711
  751loPI    C310317   7.796   6.761   5.150 -0.2214  0.1364  0.2077
  751loPI   PO410318   7.851   7.101   5.755 -0.0772  0.1653  0.0116
  751loPI   GL110319   7.984   6.885   6.153 -0.1367  0.0289 -0.0522
  751loPI   GL210320   8.102   7.108   6.241 -0.2640  0.0905  0.0180
  751loPI   C1A10321   7.674   6.856   6.387 -0.0093  0.1043  0.4600
  751loPI   C2A10322   7.579   6.736   6.731  0.4108  0.0745  0.0127
  751loPI   C3A10323   7.528   6.706   7.102 -0.1078  0.1752  0.1685
  751loPI   C4A10324   7.453   6.534   7.483  0.1286 -0.2284 -0.1741
  751loPI   C5A10325   7.684   6.423   7.842 -0.0648 -0.0054  0.5226
  751loPI   C6A10326   7.601   6.298   8.203 -0.1399  0.1524 -0.4996
  751loPI   C1B10327   8.007   7.104   6.592  0.4815  0.1444 -0.2646
  751loPI   C2B10328   7.943   7.166   7.030 -0.1984  0.1518 -0.0971
  751loPI   C3B10329   7.749   7.003   7.362  0.1379  0.1688  0.0891
  751loPI   C4B10330   7.843   6.938   7.801 -0.2206 -0.1121  0.1980
  752loPI    C110331   5.615  11.184   6.024 -0.0232  0.0952  0.0576
  752loPI    C210332   5.896  11.278   6.293 -0.0013  0.1257  0.0242
  752loPI    C310333   5.908  11.439   5.927 -0.0776  0.1479  0.0313
  752loPI   PO410334   5.709  10.882   6.051 -0.1238  0.0010  0.1035
  752loPI   GL110335   5.893  10.728   6.409 -0.1572 -0.2397 -0.0912
  752loPI   GL210336   5.608  10.678   6.506  0.1671  0.1265 -0.1839
  752loPI   C1A10337   5.971  11.023   6.712 -0.1416 -0.2052  0.0060
  752loPI   C2A10338   5.880  10.996   7.248 -0.1950 -0.0356  0.0559
  752loPI   C3A10339   5.826  10.913   7.673  0.1278  0.0236 -0.0237
  752loPI   C4A10340   5.830  10.973   8.032 -0.0583  0.1120  0.0693
  752loPI   C5A10341   5.741  11.212   8.307  0.0328  0.3205 -0.1307
  752loPI   C6A10342   5.676  11.419   8.704 -0.0899  0.4840  0.1086
  752loPI   C1B10343   5.705  10.538   6.880  0.1121 -0.0025  0.1855
  752loPI   C2B10344   5.808  10.507   7.247 -0.0084 -0.2326 -0.1307
  752loPI   C3B10345   5.875  10.426   7.742 -0.0079  0.0193 -0.2943
  752loPI   C4B10346   5.990  10.397   8.107  0.0439 -0.1288 -0.0998
  753loPI    C110347   7.914   4.252   5.943 -0.2891 -0.1239 -0.2722
  753loPI    C210348   8.203   4.490   6.084 -0.1700 -0.5306  0.1991
  753loPI    C310349   8.062   4.545   5.714  0.1110  0.0284  0.1636
  753loPI   PO410350   7.881   4.103   6.115  0.0657  0.0242  0.0969
  753loPI   GL110351   7.869   3.791   6.550  0.2779  0.0202  0.1046
  753loPI   GL210352   8.034   3.485   6.625 -0.0937 -0.0447  0.0506
  753loPI   C1A10353   7.765   3.802   6.955 -0.3451 -0.1018  0.1124
  753loPI   C2A10354   7.814   3.623   7.308  0.2364  0.1229  0.0041
  753loPI   C3A10355   8.101   3.887   7.612 -0.1162 -0.0130  0.1027
  753loPI   C4A10356   8.343   3.894   7.852 -0.2379 -0.1686  0.1695
  753loPI   C5A10357   8.827   3.818   7.986  0.0327 -0.1422 -0.0588
  753loPI   C6A10358   9.167   4.154   7.861  0.1345  0.0006 -0.4965
  753loPI   C1B10359   8.263   3.361   7.008  0.1374  0.1928  0.2271
  753loPI   C2B10360   8.301   3.476   7.406 -0.0833  0.3219 -0.2479
  753loPI   C3B10361   8.104   3.400   7.799 -0.1288  0.0191 -0.0735
  753loPI   C4B10362   7.886   3.599   8.067 -0.0029  0.0415  0.0990
  754loPI    C110363   1.137  13.441   5.538  0.0881 -0.1089  0.0914
  754loPI    C210364   1.442  13.670   5.417 -0.0846  0.0903  0.0283
  754loPI    C310365   1.415  13.291   5.292 -0.0365  0.1691 -0.2260
  754loPI   PO410366   1.162  13.464   5.790  0.1083  0.0596  0.2653
  754loPI   GL110367   1.017  13.477   6.166 -0.1618  0.0997 -0.4037
  754loPI   GL210368   1.078  13.746   6.290  0.2208 -0.1357 -0.1214
  754loPI   C1A10369   1.182  13.298   6.560  0.2233  0.2268  0.0585
  754loPI   C2A10370   1.213  13.501   6.848 -0.1375 -0.2581 -0.3334
  754loPI   C3A10371   1.445  13.860   7.191  0.1358  0.0645  0.1044
  754loPI   C4A10372   1.585  13.997   7.642  0.1936  0.1153  0.0073
  754loPI   C5A10373   1.757  14.372   7.886  0.1852 -0.0435  0.3194
  754loPI   C6A10374   1.801  14.858   7.962 -0.1009 -0.1119 -0.1329
  754loPI   C1B10375   1.113  13.951   6.652  0.1087 -0.0413  0.0734
  754loPI   C2B10376   0.941  13.849   7.058 -0.0714  0.0168  0.0780
  754loPI   C3B10377   0.747  13.732   7.429  0.1984 -0.2412  0.2693
  754loPI   C4B10378   0.511  13.844   7.712 -0.0638  0.1034  0.2484
  755loPI    C110379  15.163   0.823   5.850  0.0004  0.1441  0.1406
  755loPI    C210380  14.802   0.924   5.711  0.0312 -0.1532 -0.1683
  755loPI    C310381  15.131   1.022   5.505  0.1221  0.0112  0.0512
  755loPI   PO410382  15.156   0.923   6.061  0.2722  0.2706 -0.3303
  755loPI   GL110383  15.182   0.998   6.403  0.0905  0.0025 -0.0918
  755loPI   GL210384  15.032   1.333   6.462 -0.0646 -0.5244  0.1571
  755loPI   C1A10385  15.110   0.658   6.673 -0.0816 -0.1453  0.3797
  755loPI   C2A10386  15.122   0.701   7.083  0.0311 -0.1871 -0.0494
  755loPI   C3A10387  15.269   0.430   7.468 -0.0459 -0.0475 -0.2360
  755loPI   C4A10388  15.366   0.302   7.872  0.0697  0.0016 -0.0537
  755loPI   C5A10389  15.140   0.119   8.350  0.1000 -0.1186 -0.2367
  755loPI   C6A10390  15.072   0.423   8.708 -0.4638 -0.1974  0.1241
  755loPI   C1B10391  15.108   1.266   6.890 -0.0102  0.1074 -0.0072
  755loPI   C2B10392  15.115   1.184   7.363  0.0503  0.1049  0.1152
  755loPI   C3B10393  15.025   1.334   7.757  0.1131 -0.3119 -0.0345
  755loPI   C4B10394  15.165   1.254   8.177 -0.0078 -0.2059  0.0353
  756loPI    C110395   6.074  10.208   5.315 -0.1303 -0.1527  0.0476
  756loPI    C210396   6.315   9.966   5.108  0.0514 -0.0130  0.0927
  756loPI    C310397   6.094  10.239   4.917 -0.1602 -0.2167  0.0411
  756loPI   PO410398   6.211  10.099   5.571  0.3200 -0.2720 -0.0133
  756loPI   GL110399   6.280  10.005   6.047 -0.0596  0.4524 -0.0471
  756loPI   GL210400   6.045   9.786   6.015 -0.0436  0.0843 -0.2172
  756loPI   C1A10401   6.399   9.944   6.403  0.2927 -0.0041 -0.2496
  756loPI   C2A10402   6.389   9.883   6.819 -0.0482  0.3626  0.1175
  756loPI   C3A10403   6.460   9.820   7.213  0.0930 -0.1246  0.1697
  756loPI   C4A10404   6.448   9.845   7.594  0.3451  0.1380  0.1341
  756loPI   C5A10405   6.377   9.677   7.962 -0.2219  0.0392  0.0193
  756loPI   C6A10406   6.228   9.533   8.430 -0.0895  0.2698  0.4963
  756loPI   C1B10407   5.952   9.714   6.509  0.2927 -0.0194  0.0263
  756loPI   C2B10408   5.835   9.689   6.975 -0.2537  0.2181 -0.1826
  756loPI   C3B10409   5.823   9.612   7.450 -0.0502  0.1020  0.0680
  756loPI   C4B10410   5.965   9.326   7.848  0.3006  0.1136  0.1387
  757loPI    C110411   3.638  13.553   5.728  0.0128  0.0411 -0.1632
  757loPI    C210412   3.571  13.727   5.374 -0.2567  0.1924 -0.0401
  757loPI    C310413   3.279  13.710   5.648 -0.0834 -0.0202  0.1350
  757loPI   PO410414   3.852  13.673   5.868  0.0029  0.2998  0.1080
  757loPI   GL110415   4.098  13.682   6.236 -0.0752 -0.2230 -0.2919
  757loPI   GL210416   4.209  13.942   6.434  0.0950 -0.1074 -0.0113
  757loPI   C1A10417   3.876  13.531   6.606 -0.2062  0.2623 -0.1449
  757loPI   C2A10418   3.755  13.528   6.978 -0.0702 -0.1730 -0.2130
  757loPI   C3A10419   3.692  13.529   7.439  0.0437  0.3674 -0.2135
  757loPI   C4A10420   3.804  13.876   7.801 -0.2271  0.3389  0.0841
  757loPI   C5A10421   3.773  14.233   8.031  0.0676 -0.2382 -0.2262
  757loPI   C6A10422   3.495  14.155   8.416  0.0003 -0.0333 -0.1151
  757loPI   C1B10423   4.203  13.789   6.822 -0.0207 -0.2303 -0.1449
  757loPI   C2B10424   4.072  13.815   7.293  0.0980  0.4523  0.2826
  757loPI   C3B10425   4.296  13.869   7.702  0.0549  0.0229  0.0510
  757loPI   C4B10426   4.202  13.900   8.106  0.0874  0.0761 -0.1672
  758loPI    C110427  14.092   5.636   5.975 -0.0069 -0.0691 -0.2171
  758loPI    C210428  14.416   5.583   5.746  0.0965  0.3118 -0.1671
  758loPI    C310429  14.137   5.849   5.639 -0.1386  0.0799 -0.1416
  758loPI   PO410430  14.252   5.623   6.231  0.0001  0.3058 -0.1570
  758loPI   GL110431  14.543   5.558   6.574  0.0891 -0.1523  0.1426
  758loPI   GL210432  14.358   5.250   6.574  0.0883 -0.1514  0.1132
  758loPI   C1A10433  14.780   5.680   6.932  0.0868  0.0395 -0.1363
  758loPI   C2A10434  14.706   6.022   7.301  0.3926  0.0216 -0.1139
  758loPI   C3A10435  14.647   6.253   7.745  0.1440 -0.1434  0.2597
  758loPI   C4A10436  14.625   6.477   8.067  0.2584  0.2230  0.0545
  758loPI   C5A10437  14.836   6.414   8.498  0.0107 -0.3788  0.0671
  758loPI   C6A10438  14.988   6.057   8.762  0.1368  0.0193 -0.2182
  758loPI   C1B10439  14.267   5.370   6.997  0.0588 -0.3003  0.2303
  758loPI   C2B10440  14.431   5.409   7.404  0.1619  0.3136 -0.4612
  758loPI   C3B10441  14.592   5.280   7.758  0.1090 -0.3692 -0.0615
  758loPI   C4B10442  14.928   5.386   8.036 -0.0752  0.0260  0.1979
  759loPI    C110443  15.664   7.972   5.896  0.0681 -0.1129  0.2426
  759loPI    C210444  16.050   7.888   5.835  0.0345 -0.0332 -0.0983
  759loPI    C310445  15.784   7.591   5.868  0.0795 -0.0835 -0.1820
  759loPI   PO410446  15.592   8.230   6.130  0.0467 -0.0086  0.0235
  759loPI   GL110447  15.759   8.363   6.563 -0.3048  0.0458  0.0515
  759loPI   GL210448  15.852   8.663   6.432 -0.2060 -0.0551  0.0556
  759loPI   C1A10449  15.788   8.305   7.066 -0.2483 -0.2362  0.3686
  759loPI   C2A10450  15.821   8.369   7.538  0.1108  0.3925  0.1327
  759loPI   C3A10451  15.926   8.467   7.904 -0.0432  0.1915  0.2216
  759loPI   C4A10452  15.988   8.483   8.434 -0.1751  0.1186  0.3351
  759loPI   C5A10453  15.887   8.222   8.745 -0.2990 -0.0129 -0.2630
  759loPI   C6A10454  15.829   8.023   9.100  0.0283  0.1525 -0.0264
  759loPI   C1B10455  15.680   8.765   6.893  0.1838 -0.4232  0.0512
  759loPI   C2B10456  15.608   8.823   7.368 -0.2219 -0.0076 -0.0597
  759loPI   C3B10457  15.679   8.893   7.725  0.0992  0.2164  0.0780
  759loPI   C4B10458  15.722   8.888   8.187  0.0004 -0.0470  0.3839
  760loPI    C110459  11.763   0.608   5.508 -0.0998 -0.1243  0.2037
  760loPI    C210460  12.134   0.520   5.630  0.1012  0.3097 -0.0659
  760loPI    C310461  12.053   0.542   5.239 -0.2055  0.2463 -0.0085
  760loPI   PO410462  11.582   0.498   5.616  0.2122  0.3107  0.0382
  760loPI   GL110463  11.622   0.401   6.033  0.2181 -0.0118 -0.2420
  760loPI   GL210464  11.966   0.485   6.082  0.1123  0.3121  0.0736
  760loPI   C1A10465  11.491   0.703   6.266  0.0846 -0.1905  0.1259
  760loPI   C2A10466  11.563   0.662   6.757 -0.0378 -0.1187 -0.1393
  760loPI   C3A10467  11.631   0.753   7.197 -0.1172  0.4404 -0.2250
  760loPI   C4A10468  11.640   0.796   7.622  0.1800  0.1193 -0.1385
  760loPI   C5A10469  11.400   1.045   7.951  0.0317  0.0135  0.2712
  760loPI   C6A10470  11.083   0.917   8.294  0.1659  0.0588  0.1268
  760loPI   C1B10471  11.896   0.373   6.480 -0.2905 -0.1380 -0.2317
  760loPI   C2B10472  12.009   0.411   6.920 -0.4152 -0.0666 -0.1631
  760loPI   C3B10473  12.003   0.550   7.395  0.2164  0.0215  0.0731
  760loPI   C4B10474  12.009   0.560   7.859  0.0594 -0.2052  0.0633
  761loPI    C110475  11.292   5.355   5.790 -0.3364 -0.0973  0.1654
  761loPI    C210476  11.454   5.710   5.703 -0.0965 -0.1818  0.2571
  761loPI    C310477  11.097   5.611   5.552  0.0792 -0.1212 -0.2154
  761loPI   PO410478  11.255   5.291   6.024 -0.0989  0.1706 -0.0027
  761loPI   GL110479  11.634   5.158   6.209  0.1739 -0.2446 -0.2510
  761loPI   GL210480  11.829   5.297   6.175  0.2032 -0.1362 -0.1584
  761loPI   C1A10481  11.399   5.317   6.635  0.0831 -0.0138 -0.2092
  761loPI   C2A10482  11.576   5.216   7.017 -0.0750  0.0415 -0.0235
  761loPI   C3A10483  11.773   5.169   7.456 -0.0027  0.2336 -0.2642
  761loPI   C4A10484  11.942   5.273   7.798 -0.2139  0.2719 -0.4178
  761loPI   C5A10485  11.955   5.424   8.192  0.2460 -0.0990  0.2040
  761loPI   C6A10486  12.116   5.671   8.402  0.1875 -0.1154  0.2024
  761loPI   C1B10487  11.872   5.446   6.548  0.0336 -0.1546 -0.2378
  761loPI   C2B10488  11.986   5.510   7.076 -0.0665  0.0993 -0.1570
  761loPI   C3B10489  11.838   5.627   7.469 -0.2570  0.1063  0.3388
  761loPI   C4B10490  11.998   5.765   7.864  0.0457 -0.2172  0.1247
  762loPI    C110491  15.962  13.653   5.685 -0.0309 -0.2011  0.0523
  762loPI    C210492  16.017  13.916   5.389  0.3076 -0.1741  0.1349
  762loPI    C310493  15.751  13.620   5.347 -0.0185  0.1290  0.0089
  762loPI   PO410494  15.933  13.876   5.970  0.2812 -0.0698  0.1536
  762loPI   GL110495  16.069  14.087   6.411  0.1733  0.2116 -0.0791
  762loPI   GL210496  16.363  14.143   6.218 -0.0685 -0.0004 -0.1813
  762loPI   C1A10497  16.062  14.216   6.852  0.0813  0.2132  0.3641
  762loPI   C2A10498  15.889  14.130   7.277  0.0887  0.1245 -0.2400
  762loPI   C3A10499  15.899  14.011   7.643  0.0388  0.1068  0.2245
  762loPI   C4A10500  16.116  13.805   7.986  0.0013  0.1342  0.0447
  762loPI   C5A10501  16.322  13.948   8.277 -0.1566  0.3538  0.0083
  762loPI   C6A10502  16.604  14.250   8.342  0.3749  0.0881 -0.2645
  762loPI   C1B10503  16.416  14.395   6.572  0.3680  0.1033 -0.2268
  762loPI   C2B10504  16.392  14.531   7.091  0.1642  0.2521  0.4191
  762loPI   C3B10505  16.426  14.473   7.492 -0.1046 -0.2502 -0.1637
  762loPI   C4B10506  16.243  14.315   7.853 -0.0133 -0.1084 -0.1195
  763loPI    C110507  14.178  16.110   5.430 -0.0644 -0.3078  0.0128
  763loPI    C210508  14.284  16.102   5.044 -0.0512 -0.3476  0.0171
  763loPI    C310509  13.897  16.085   5.146 -0.0661 -0.1473 -0.0007
  763loPI   PO410510  14.382  16.097   5.628  0.1509  0.0873  0.0909
  763loPI   GL110511  14.331  15.994   6.119  0.0803  0.1280 -0.2334
  763loPI   GL210512  14.050  15.836   6.284 -0.2327 -0.1900 -0.0809
  763loPI   C1A10513  14.541  16.023   6.562  0.0209 -0.4093 -0.1861
  763loPI   C2A10514  14.713  16.173   6.872  0.0394 -0.0371 -0.2752
  763loPI   C3A10515  14.684  16.133   7.390  0.0777 -0.1694 -0.1521
  763loPI   C4A10516  14.574  16.058   7.829 -0.1283 -0.2783  0.1595
  763loPI   C5A10517  14.507  16.353   8.179  0.0535 -0.1211 -0.0410
  763loPI   C6A10518  14.581  16.559   8.555  0.2976 -0.0869  0.1431
  763loPI   C1B10519  13.853  15.666   6.585  0.0267  0.0998  0.2149
  763loPI   C2B10520  13.880  15.627   7.009  0.0530  0.3358 -0.0028
  763loPI   C3B10521  14.006  15.630   7.420 -0.0019 -0.0090  0.3538
  763loPI   C4B10522  14.021  15.500   7.858 -0.1272 -0.0372 -0.0993
  764loPI    C110523  16.572   0.984   6.025  0.0437  0.2427  0.1139
  764loPI    C210524  16.558   1.266   5.742  0.0334  0.1341  0.0055
  764loPI    C310525  16.890   1.048   5.791 -0.1365 -0.1948 -0.2656
  764loPI   PO410526  16.393   1.002   6.300 -0.1356 -0.1615  0.0113
  764loPI   GL110527  16.609   1.162   6.624  0.0907  0.1911 -0.2958
  764loPI   GL210528  16.809   1.422   6.746 -0.2268 -0.1008  0.1540
  764loPI   C1A10529  16.380   1.346   6.954 -0.2236  0.1166 -0.0822
  764loPI   C2A10530  16.373   1.216   7.337  0.2345  0.0256 -0.0156
  764loPI   C3A10531  16.278   1.015   7.778  0.2966 -0.0591  0.1748
  764loPI   C4A10532  16.165   1.064   8.196 -0.0690 -0.0139 -0.2324
  764loPI   C5A10533  16.073   1.482   8.527 -0.2032  0.1305  0.2037
  764loPI   C6A10534  15.877   1.959   8.593 -0.0593  0.0690  0.2583
  764loPI   C1B10535  16.847   1.243   7.184 -0.2181 -0.0311 -0.2420
  764loPI   C2B10536  16.831   1.141   7.604 -0.1330  0.2717 -0.4950
  764loPI   C3B10537  16.704   0.959   8.031  0.1401 -0.2316  0.1959
  764loPI   C4B10538  16.461   0.609   8.092  0.2422  0.1829 -0.2369
  765loPI    C110539   9.018   2.503   6.240 -0.1521  0.1151  0.2062
  765loPI    C210540   9.316   2.728   6.384  0.0388 -0.0813  0.1225
  765loPI    C310541   9.172   2.797   6.017  0.0023 -0.0064  0.1508
  765loPI   PO410542   9.104   2.248   6.396 -0.2766  0.1160  0.0934
  765loPI   GL110543   9.169   2.008   6.680 -0.3204 -0.1472 -0.2276
  765loPI   GL210544   9.329   1.726   6.829  0.1340  0.0982 -0.2277
  765loPI   C1A10545   9.339   2.247   7.016 -0.0076  0.1145 -0.0002
  765loPI   C2A10546   9.488   2.329   7.431  0.1136 -0.0564 -0.2801
  765loPI   C3A10547   9.615   2.212   7.795  0.2353  0.2359 -0.1836
  765loPI   C4A10548   9.641   2.271   8.180  0.0762  0.1349 -0.0643
  765loPI   C5A10549   9.518   2.594   8.379  0.2180  0.0664 -0.0972
  765loPI   C6A10550   9.258   2.654   8.687  0.0991 -0.3651  0.1315
  765loPI   C1B10551   9.356   1.779   7.276  0.0670 -0.0052  0.0952
  765loPI   C2B10552   9.305   1.836   7.647  0.1180 -0.0645  0.2905
  765loPI   C3B10553   9.267   1.871   8.027  0.1128 -0.3011  0.0752
  765loPI   C4B10554   9.278   1.894   8.476 -0.2480  0.1291  0.0628
  766loPI    C110555   3.379  16.820   6.008 -0.1429 -0.1916 -0.0688
  766loPI    C210556   3.334  16.827   5.611 -0.3313 -0.0084 -0.0454
  766loPI    C310557   3.368  17.170   5.815  0.2749 -0.1099  0.0435
  766loPI   PO410558   3.517  16.581   6.063  0.2452 -0.2389  0.1418
  766loPI   GL110559   3.557  16.529   6.463  0.1757  0.3494 -0.0645
  766loPI   GL210560   3.309  16.374   6.492 -0.0284  0.0800 -0.0694
  766loPI   C1A10561   3.685  16.907   6.765  0.0903  0.3063  0.0948
  766loPI   C2A10562   3.769  16.933   7.240  0.2837  0.1067 -0.1819
  766loPI   C3A10563   3.824  17.172   7.726 -0.2504 -0.2648 -0.1680
  766loPI   C4A10564   3.866  17.285   8.167  0.0207 -0.2280  0.1415
  766loPI   C5A10565   4.081  17.276   8.441 -0.1005 -0.1412 -0.2005
  766loPI   C6A10566   4.107  17.386   8.808 -0.1605  0.2479  0.4068
  766loPI   C1B10567   3.566  16.195   6.879 -0.0009 -0.0076  0.2396
  766loPI   C2B10568   3.579  15.955   7.347 -0.4500 -0.0800  0.2310
  766loPI   C3B10569   3.417  15.705   7.650 -0.0501  0.0426  0.1047
  766loPI   C4B10570   3.127  15.434   7.697 -0.0202  0.0115 -0.1461
  767loPI    C110571   4.553   5.246   5.583 -0.0154  0.1914  0.0734
  767loPI    C210572   4.313   5.404   5.306 -0.0117  0.0607 -0.0053
  767loPI    C310573   4.709   5.412   5.255 -0.0213 -0.2187 -0.1436
  767loPI   PO410574   4.364   5.218   5.825 -0.2733  0.0001 -0.0178
  767loPI   GL110575   4.460   5.363   6.246  0.0093  0.3807  0.2465
  767loPI   GL210576   4.652   5.285   6.497 -0.0034 -0.0777  0.4056
  767loPI   C1A10577   4.502   5.772   6.488  0.1967 -0.1686  0.0055
  767loPI   C2A10578   4.469   5.642   6.879  0.0147 -0.0320  0.1686
  767loPI   C3A10579   4.311   5.610   7.275 -0.0106  0.2020  0.0525
  767loPI   C4A10580   4.034   5.755   7.580 -0.0209  0.2512 -0.0021
  767loPI   C5A10581   4.064   5.855   8.078 -0.0578  0.1058  0.1629
  767loPI   C6A10582   4.096   6.139   8.382  0.0529  0.1917 -0.3329
  767loPI   C1B10583   4.599   5.160   6.822 -0.2871 -0.3779  0.1621
  767loPI   C2B10584   4.534   5.134   7.253 -0.2986 -0.2135  0.6598
  767loPI   C3B10585   4.388   5.237   7.699 -0.2872  0.1048 -0.1042
  767loPI   C4B10586   4.328   5.346   8.123  0.0575  0.2421 -0.2341
  768loPI    C110587   4.835   7.278   5.479 -0.1577  0.0486 -0.0057
  768loPI    C210588   5.134   7.398   5.242  0.0610 -0.0832  0.1999
  768loPI    C310589   4.777   7.311   5.084  0.2265 -0.2484 -0.0929
  768loPI   PO410590   4.954   7.410   5.728  0.2307 -0.1318 -0.0663
  768loPI   GL110591   5.200   7.223   6.095  0.0087  0.3996  0.0788
  768loPI   GL210592   5.023   7.137   6.287  0.2125  0.0361 -0.0623
  768loPI   C1A10593   5.423   7.302   6.558 -0.2407 -0.0584 -0.0772
  768loPI   C2A10594   5.411   7.245   7.001 -0.2904  0.1137  0.0887
  768loPI   C3A10595   5.379   7.289   7.463  0.0167  0.3320  0.2570
  768loPI   C4A10596   5.384   7.301   7.969  0.0163 -0.1865 -0.0116
  768loPI   C5A10597   5.506   7.430   8.391 -0.2034  0.1742 -0.0463
  768loPI   C6A10598   5.479   7.289   8.809 -0.1433  0.1408 -0.1125
  768loPI   C1B10599   5.084   6.960   6.740  0.2752 -0.3272 -0.0134
  768loPI   C2B10600   5.087   6.844   7.138  0.0725  0.1722  0.1135
  768loPI   C3B10601   5.035   6.960   7.504  0.1560  0.0631  0.2174
  768loPI   C4B10602   4.984   6.924   8.019 -0.0048  0.1533 -0.0401
  769loPI    C110603  13.474  14.980   5.757  0.0857 -0.0238 -0.1061
  769loPI    C210604  13.789  15.226   5.751  0.1028 -0.0248  0.3515
  769loPI    C310605  13.812  14.867   5.576  0.1718  0.1814 -0.0759
  769loPI   PO410606  13.334  14.984   6.026  0.0687  0.4757 -0.2186
  769loPI   GL110607  13.139  14.780   6.344  0.1106  0.2447  0.2455
  769loPI   GL210608  13.020  14.520   6.416 -0.0428 -0.1594  0.4352
  769loPI   C1A10609  13.272  15.060   6.652  0.1981 -0.2342  0.1548
  769loPI   C2A10610  13.337  15.118   7.105 -0.2166 -0.1489  0.0375
  769loPI   C3A10611  13.249  15.104   7.507  0.0118  0.1942 -0.0009
  769loPI   C4A10612  13.269  15.096   7.966  0.2827 -0.0639 -0.2613
  769loPI   C5A10613  12.948  15.032   8.373 -0.2710  0.0290  0.2878
  769loPI   C6A10614  12.787  14.620   8.596 -0.1601 -0.1488  0.1746
  769loPI   C1B10615  13.028  14.581   6.833 -0.1204  0.0003  0.1626
  769loPI   C2B10616  13.099  14.647   7.329  0.1194  0.0614  0.1697
  769loPI   C3B10617  13.074  14.696   7.717  0.0660 -0.2169  0.1345
  769loPI   C4B10618  13.200  14.661   8.166  0.1111  0.0739 -0.0658
  770loPI    C110619   7.627  11.337   6.005 -0.0093  0.1000 -0.1211
  770loPI    C210620   7.229  11.373   5.986 -0.0358 -0.0027  0.1799
  770loPI    C310621   7.427  11.184   5.694 -0.1935  0.1486 -0.0280
  770loPI   PO410622   7.760  11.166   6.200 -0.0877 -0.1980  0.1457
  770loPI   GL110623   7.911  11.409   6.492 -0.1447  0.0408 -0.1700
  770loPI   GL210624   7.896  11.785   6.662  0.0251 -0.1543 -0.0272
  770loPI   C1A10625   7.655  11.340   6.850  0.2267  0.0987  0.0858
  770loPI   C2A10626   7.600  11.677   7.142  0.0653 -0.1015 -0.0457
  770loPI   C3A10627   7.687  11.716   7.500 -0.1619 -0.1461  0.2482
  770loPI   C4A10628   7.674  11.745   7.924  0.1515 -0.1923  0.0620
  770loPI   C5A10629   7.521  11.463   8.259 -0.0033  0.0564  0.1261
  770loPI   C6A10630   7.555  10.993   8.524  0.0243 -0.0360  0.2321
  770loPI   C1B10631   7.970  11.941   7.027  0.2298  0.0826  0.0102
  770loPI   C2B10632   8.095  12.023   7.431 -0.0284  0.0352  0.0789
  770loPI   C3B10633   8.403  12.039   7.728  0.0343  0.1851 -0.0783
  770loPI   C4B10634   8.640  12.038   8.160 -0.0187  0.1242  0.0362
  771loPI    C110635  15.319  13.865   5.175  0.1553  0.2292 -0.3332
  771loPI    C210636  15.194  14.205   5.345  0.1234 -0.0113  0.1406
  771loPI    C310637  15.580  14.158   5.251  0.0589  0.3125 -0.3206
  771loPI   PO410638  15.262  13.584   5.394 -0.0017  0.3187  0.1116
  771loPI   GL110639  15.142  13.535   5.856  0.0431 -0.0640 -0.3235
  771loPI   GL210640  14.904  13.510   6.017  0.0627 -0.2140  0.0012
  771loPI   C1A10641  15.427  13.593   6.225 -0.1579  0.2513 -0.0586
  771loPI   C2A10642  15.361  13.493   6.609  0.5004  0.1609 -0.1988
  771loPI   C3A10643  15.264  13.399   7.039 -0.0840  0.2151  0.1680
  771loPI   C4A10644  15.060  13.211   7.369  0.1451 -0.0155 -0.1156
  771loPI   C5A10645  14.659  13.148   7.601  0.3876 -0.0167 -0.0659
  771loPI   C6A10646  14.305  13.396   7.875  0.3618 -0.4371  0.1817
  771loPI   C1B10647  14.927  13.603   6.404  0.1065 -0.2758 -0.0028
  771loPI   C2B10648  14.838  13.552   6.833 -0.0612  0.2961  0.0811
  771loPI   C3B10649  14.586  13.359   7.047 -0.0246  0.1254  0.1274
  771loPI   C4B10650  14.196  13.358   7.295 -0.2620  0.3186  0.1844
  772loPI    C110651   3.350  15.846   5.368 -0.0116 -0.3303 -0.0196
  772loPI    C210652   2.987  15.699   5.285  0.0070 -0.3626 -0.0441
  772loPI    C310653   3.242  15.783   4.988 -0.1016 -0.0275 -0.0468
  772loPI   PO410654   3.361  15.863   5.710 -0.0150  0.1718 -0.0520
  772loPI   GL110655   3.236  15.707   6.132 -0.2352 -0.0042 -0.0816
  772loPI   GL210656   3.125  15.976   6.331 -0.1260 -0.2700  0.1608
  772loPI   C1A10657   3.081  15.455   6.529 -0.0595  0.0905  0.2074
  772loPI   C2A10658   2.914  15.356   6.910  0.0552  0.2237 -0.1546
  772loPI   C3A10659   2.947  15.168   7.300 -0.0300 -0.0326 -0.0930
  772loPI   C4A10660   2.908  14.960   7.655  0.1253  0.2395  0.0956
  772loPI   C5A10661   2.708  14.752   7.917  0.6229  0.1174  0.0126
  772loPI   C6A10662   2.667  14.462   8.369  0.2592 -0.0761  0.0134
  772loPI   C1B10663   3.125  15.885   6.790 -0.3129 -0.0060 -0.0400
  772loPI   C2B10664   3.103  15.725   7.227 -0.1739  0.1080 -0.3150
  772loPI   C3B10665   2.972  15.897   7.622 -0.0765  0.1075 -0.0641
  772loPI   C4B10666   3.044  15.842   8.005 -0.1944  0.3277 -0.0429
  773loPI    C110667  17.163   7.469   5.974  0.0793  0.0227 -0.2977
  773loPI    C210668  16.953   7.810   5.969 -0.1381 -0.0928  0.2537
  773loPI    C310669  16.802   7.479   5.803 -0.0547  0.0039 -0.0207
  773loPI   PO410670  17.314   7.489   6.171  0.2114 -0.5672  0.1379
  773loPI   GL110671  17.382   7.292   6.551 -0.0583 -0.1291 -0.1436
  773loPI   GL210672  17.646   7.460   6.581 -0.1544  0.3814 -0.1559
  773loPI   C1A10673  17.268   7.471   6.950  0.0206  0.0882 -0.1577
  773loPI   C2A10674  17.412   7.519   7.355 -0.1012  0.1995  0.1855
  773loPI   C3A10675  17.403   7.673   7.863  0.2665 -0.0713 -0.1223
  773loPI   C4A10676  17.071   7.920   8.126  0.3278 -0.0479  0.0093
  773loPI   C5A10677  16.934   8.263   8.136  0.0312 -0.2557 -0.1222
  773loPI   C6A10678  16.919   8.564   7.776  0.1468  0.0340  0.0066
  773loPI   C1B10679  17.752   7.598   6.976 -0.3492 -0.1487 -0.1399
  773loPI   C2B10680  17.726   7.898   7.385 -0.1934 -0.0143  0.0693
  773loPI   C3B10681  18.027   8.260   7.498 -0.0398 -0.0599  0.1056
  773loPI   C4B10682  18.238   8.454   7.092  0.1315  0.1513  0.0308
  774loPI    C110683  13.385   9.437   5.535  0.0691  0.1964  0.1006
  774loPI    C210684  13.638   9.487   5.229  0.0017 -0.0139  0.0089
  774loPI    C310685  13.332   9.740   5.279 -0.0646 -0.0563 -0.1763
  774loPI   PO410686  13.533   9.395   5.771 -0.4065  0.2010  0.1638
  774loPI   GL110687  13.455   9.507   6.153  0.1523  0.3167 -0.2396
  774loPI   GL210688  13.253   9.689   6.202  0.0177  0.3319  0.0024
  774loPI   C1A10689  13.430   9.402   6.645 -0.1073 -0.0106  0.0884
  774loPI   C2A10690  13.349   9.439   7.027 -0.0186 -0.0194  0.1093
  774loPI   C3A10691  13.342   9.498   7.509 -0.2289 -0.0863 -0.4138
  774loPI   C4A10692  13.216   9.721   7.905 -0.0711  0.2637 -0.0038
  774loPI   C5A10693  12.880   9.912   8.118  0.0002  0.0135 -0.0348
  774loPI   C6A10694  12.684  10.348   8.096  0.3108 -0.2598 -0.0449
  774loPI   C1B10695  13.514   9.855   6.521 -0.1479 -0.2824  0.0953
  774loPI   C2B10696  13.526   9.890   6.915  0.1408 -0.0371 -0.0149
  774loPI   C3B10697  13.706   9.825   7.300  0.1137 -0.0206 -0.1208
  774loPI   C4B10698  13.675   9.907   7.709  0.0628  0.0132  0.2842
  775loPI    C110699   9.130  11.820   5.620  0.1827 -0.1184  0.0340
  775loPI    C210700   9.306  11.467   5.554 -0.1172 -0.2700  0.0286
  775loPI    C310701   8.908  11.490   5.583 -0.0819  0.0181  0.3545
  775loPI   PO410702   9.218  11.907   5.819 -0.1477  0.0642  0.5202
  775loPI   GL110703   9.083  12.090   6.140  0.2567 -0.1462 -0.1316
  775loPI   GL210704   9.323  11.858   6.287 -0.0064 -0.1315 -0.1107
  775loPI   C1A10705   8.984  12.072   6.604  0.2665  0.0601 -0.2373
  775loPI   C2A10706   8.937  12.364   6.912 -0.0844  0.0346  0.0613
  775loPI   C3A10707   9.021  12.404   7.268 -0.1633 -0.1488 -0.0835
  775loPI   C4A10708   9.258  12.424   7.531  0.1150  0.1271  0.1586
  775loPI   C5A10709   9.505  12.312   7.861 -0.1506 -0.2799  0.1086
  775loPI   C6A10710   9.721  12.152   8.165  0.1569  0.0945  0.1046
  775loPI   C1B10711   9.253  11.691   6.642 -0.2531  0.1120  0.2004
  775loPI   C2B10712   9.135  11.799   7.030 -0.0019 -0.0915  0.1160
  775loPI   C3B10713   9.132  11.859   7.492 -0.4818  0.0395  0.0169
  775loPI   C4B10714   9.105  12.036   7.926  0.0946  0.1852 -0.0971
  776loPI    C110715   2.394  10.367   5.843  0.0283  0.1423  0.0516
  776loPI    C210716   2.073  10.271   6.063 -0.0272  0.1295 -0.0343
  776loPI    C310717   2.027  10.396   5.686  0.0818 -0.0856 -0.1202
  776loPI   PO410718   2.581  10.429   6.095  0.0348  0.1589 -0.0150
  776loPI   GL110719   2.898  10.607   6.360 -0.1117  0.3189 -0.0255
  776loPI   GL210720   3.265  10.610   6.432 -0.0638  0.2054  0.0584
  776loPI   C1A10721   2.881  10.929   6.722 -0.0354  0.1970  0.1177
  776loPI   C2A10722   2.686  11.119   7.112 -0.4788 -0.3455 -0.0235
  776loPI   C3A10723   2.490  11.397   7.402  0.1135 -0.0981 -0.0623
  776loPI   C4A10724   2.454  11.452   7.884  0.0784  0.0821  0.2000
  776loPI   C5A10725   2.689  11.690   8.171  0.1119  0.0476  0.2374
  776loPI   C6A10726   2.958  11.816   8.484  0.0949 -0.1863  0.1476
  776loPI   C1B10727   3.132  10.508   6.837  0.0774 -0.1502 -0.0459
  776loPI   C2B10728   2.832  10.661   7.172 -0.0389 -0.2650  0.2444
  776loPI   C3B10729   2.617  10.871   7.505 -0.1168 -0.2419 -0.3419
  776loPI   C4B10730   2.493  10.864   7.841  0.2371 -0.0042 -0.0969
  777loPI    C110731   8.503   0.471   6.047  0.0056  0.0617 -0.0491
  777loPI    C210732   8.609   0.630   5.696  0.2883 -0.0540 -0.0187
  777loPI    C310733   8.396   0.291   5.706 -0.0038  0.1246 -0.0794
  777loPI   PO410734   8.572   0.400   6.320 -0.1027 -0.1691  0.0325
  777loPI   GL110735   8.539   0.753   6.598  0.1448  0.2417  0.0874
  777loPI   GL210736   8.296   0.589   6.668 -0.0429  0.0738 -0.2544
  777loPI   C1A10737   8.674   0.982   6.877 -0.0954  0.1933  0.2594
  777loPI   C2A10738   8.813   1.091   7.243  0.2692 -0.0288  0.0192
  777loPI   C3A10739   8.855   1.084   7.659 -0.0202 -0.0746  0.3566
  777loPI   C4A10740   8.868   1.058   8.074  0.2711  0.1959 -0.5295
  777loPI   C5A10741   8.790   0.954   8.507 -0.1147  0.0670 -0.0335
  777loPI   C6A10742   8.561   0.655   8.615  0.1147  0.2346  0.0703
  777loPI   C1B10743   8.284   0.462   7.076 -0.1611  0.1040  0.0373
  777loPI   C2B10744   8.242   0.344   7.469  0.0467 -0.0675  0.3574
  777loPI   C3B10745   8.485   0.238   7.772  0.0553  0.1078  0.2147
  777loPI   C4B10746   8.490   0.226   8.243  0.0636 -0.0531 -0.1708
  778loPI    C110747  13.149  12.892   5.461 -0.1471 -0.1954  0.0003
  778loPI    C210748  13.221  13.182   5.195 -0.1661 -0.2010 -0.0109
  778loPI    C310749  13.434  12.844   5.184 -0.1205 -0.1736  0.0238
  778loPI   PO410750  13.150  13.028   5.788  0.0993  0.3627 -0.2610
  778loPI   GL110751  13.209  12.977   6.283 -0.1057 -0.4873 -0.0458
  778loPI   GL210752  12.911  13.221   6.244 -0.0283  0.0736  0.1736
  778loPI   C1A10753  13.396  12.838   6.684 -0.0455 -0.0835  0.1969
  778loPI   C2A10754  13.420  12.718   7.133 -0.0788 -0.1350 -0.0005
  778loPI   C3A10755  13.494  12.689   7.554 -0.5469  0.2043  0.0020
  778loPI   C4A10756  13.603  12.448   7.960  0.3745  0.1915 -0.1482
  778loPI   C5A10757  13.560  12.328   8.444 -0.0840  0.1145  0.1999
  778loPI   C6A10758  13.715  12.083   8.810 -0.0042  0.2342 -0.3040
  778loPI   C1B10759  12.851  13.109   6.655 -0.1388  0.2542 -0.2021
  778loPI   C2B10760  12.936  12.921   6.992 -0.0759 -0.0157  0.0009
  778loPI   C3B10761  13.015  12.921   7.394  0.1763  0.1347 -0.2892
  778loPI   C4B10762  12.838  13.059   7.739 -0.0108 -0.0948  0.1416
  779loPI    C110763  12.541   0.394   5.325 -0.0768 -0.1436  0.1165
  779loPI    C210764  12.787   0.226   5.059 -0.0195  0.0998  0.0134
  779loPI    C310765  12.538   0.517   4.945 -0.0876  0.1153  0.1983
  779loPI   PO410766  12.556   0.242   5.517  0.1485 -0.0291 -0.0076
  779loPI   GL110767  12.378   0.210   5.930 -0.0425 -0.1039 -0.1412
  779loPI   GL210768  12.694   0.259   6.067 -0.1115 -0.1084 -0.2275
  779loPI   C1A10769  12.266   0.074   6.323  0.1575 -0.2160 -0.0652
  779loPI   C2A10770  12.366   0.141   6.692 -0.2042  0.1937 -0.2475
  779loPI   C3A10771  12.404   0.239   7.126 -0.1861 -0.0603  0.1487
  779loPI   C4A10772  12.496   0.249   7.545 -0.0827  0.0540 -0.0208
  779loPI   C5A10773  12.540   0.306   8.054 -0.1611 -0.1487  0.1478
  779loPI   C6A10774  12.768   0.381   8.492  0.1324  0.3933 -0.2361
  779loPI   C1B10775  12.739   0.313   6.411 -0.2860  0.1810 -0.0756
  779loPI   C2B10776  12.800   0.341   6.809  0.2380 -0.5774 -0.1902
  779loPI   C3B10777  12.923   0.432   7.275  0.1758  0.0807  0.2580
  779loPI   C4B10778  12.967   0.531   7.723 -0.2126 -0.2722  0.2936
  780loPI    C110779  11.920  16.137   5.521  0.2323  0.2298  0.2101
  780loPI    C210780  11.607  16.059   5.758  0.1305  0.0892  0.0322
  780loPI    C310781  11.927  15.820   5.765  0.0138 -0.0764 -0.1696
  780loPI   PO410782  12.002  16.368   5.593 -0.1047  0.0254  0.0846
  780loPI   GL110783  12.413  16.281   5.729  0.1131  0.1593 -0.1321
  780loPI   GL210784  12.441  15.942   5.734 -0.0677  0.1886 -0.0514
  780loPI   C1A10785  12.758  16.327   5.946  0.0181 -0.0200 -0.0427
  780loPI   C2A10786  13.050  16.280   6.300  0.0678  0.2234 -0.0897
  780loPI   C3A10787  13.132  16.364   6.709  0.0142 -0.1498 -0.0204
  780loPI   C4A10788  13.280  16.340   7.140 -0.2237 -0.4532  0.3441
  780loPI   C5A10789  13.425  16.321   7.594 -0.0133 -0.5505  0.1428
  780loPI   C6A10790  13.499  16.357   8.043 -0.1109  0.1322  0.0950
  780loPI   C1B10791  12.687  15.899   6.197  0.2884  0.1249 -0.0480
  780loPI   C2B10792  12.856  15.836   6.630  0.1581 -0.1096  0.1580
  780loPI   C3B10793  12.898  15.906   7.072  0.2126  0.1674  0.0588
  780loPI   C4B10794  13.160  15.941   7.420  0.2636 -0.0302  0.0503
  781loPI    C110795   1.465  14.400   5.717 -0.0676  0.0884 -0.2011
  781loPI    C210796   1.576  14.173   5.407 -0.0529  0.0558 -0.1720
  781loPI    C310797   1.241  14.391   5.386  0.0329  0.1801 -0.2727
  781loPI   PO410798   1.622  14.220   5.910  0.0002 -0.2352 -0.0268
  781loPI   GL110799   1.955  14.078   6.163 -0.2882  0.0525 -0.1124
  781loPI   GL210800   2.231  13.968   6.092  0.0180 -0.0613 -0.3694
  781loPI   C1A10801   2.106  14.432   6.416 -0.0819  0.0107  0.1159
  781loPI   C2A10802   2.167  14.412   6.834  0.0010 -0.0682 -0.1987
  781loPI   C3A10803   2.201  14.654   7.212  0.1535  0.2795  0.1810
  781loPI   C4A10804   2.249  14.580   7.621  0.0200  0.0763  0.1716
  781loPI   C5A10805   2.392  14.302   7.928  0.4390 -0.2359 -0.1100
  781loPI   C6A10806   2.842  14.074   7.947  0.0148  0.2636 -0.0594
  781loPI   C1B10807   2.533  13.827   6.356 -0.3676  0.2051 -0.2740
  781loPI   C2B10808   2.418  13.638   6.782  0.3506  0.2619  0.2536
  781loPI   C3B10809   2.407  13.354   7.207 -0.2159  0.1549 -0.2215
  781loPI   C4B10810   2.438  13.317   7.617  0.3578  0.0088 -0.2441
  782loPI    C110811   7.579   4.762   5.849 -0.1829  0.0208  0.1002
  782loPI    C210812   7.537   4.418   5.650 -0.0426 -0.0885  0.2571
  782loPI    C310813   7.645   4.749   5.455 -0.1760 -0.1333  0.1057
  782loPI   PO410814   7.745   4.701   6.085  0.0411  0.0515  0.0482
  782loPI   GL110815   7.792   4.562   6.396 -0.1666 -0.0654  0.1500
  782loPI   GL210816   7.621   4.294   6.500 -0.0611  0.1081  0.1963
  782loPI   C1A10817   7.922   4.685   6.804 -0.0898 -0.1398 -0.1327
  782loPI   C2A10818   7.870   4.690   7.265  0.2398 -0.0885 -0.1365
  782loPI   C3A10819   7.722   4.463   7.689 -0.0332 -0.0225 -0.1040
  782loPI   C4A10820   7.473   4.427   8.125  0.0691 -0.0922  0.1652
  782loPI   C5A10821   7.315   4.775   8.366  0.0152  0.2049 -0.2979
  782loPI   C6A10822   7.580   4.899   8.586 -0.0116  0.1015 -0.1802
  782loPI   C1B10823   7.613   4.232   6.880  0.1074 -0.3044  0.1434
  782loPI   C2B10824   7.984   4.199   7.253  0.0078  0.0078 -0.0412
  782loPI   C3B10825   8.202   4.342   7.532  0.0988  0.0305  0.0812
  782loPI   C4B10826   8.241   4.534   7.862 -0.0931 -0.2138 -0.0829
  783loPI    C110827   6.218  13.517   6.244  0.0446  0.0168  0.1634
  783loPI    C210828   6.585  13.373   6.308  0.1142  0.0482 -0.1493
  783loPI    C310829   6.443  13.400   5.935 -0.1937  0.0684 -0.0331
  783loPI   PO410830   6.051  13.322   6.370 -0.0489 -0.3143 -0.1516
  783loPI   GL110831   5.908  13.355   6.839 -0.2789 -0.1622  0.1480
  783loPI   GL210832   6.257  13.431   6.879 -0.0347 -0.2861  0.0263
  783loPI   C1A10833   5.844  13.273   7.157 -0.0244  0.0292 -0.1060
  783loPI   C2A10834   5.887  13.208   7.592 -0.0940  0.2064 -0.1757
  783loPI   C3A10835   5.876  13.169   8.018 -0.0323 -0.3327 -0.0345
  783loPI   C4A10836   5.964  13.227   8.363  0.1265 -0.2239  0.0254
  783loPI   C5A10837   5.932  13.409   8.861  0.1615  0.5431  0.0860
  783loPI   C6A10838   6.022  13.308   9.272 -0.0482  0.0238  0.1191
  783loPI   C1B10839   6.292  13.444   7.399 -0.1745  0.2178 -0.0189
  783loPI   C2B10840   6.235  13.470   7.756 -0.1258 -0.0578  0.0144
  783loPI   C3B10841   6.338  13.479   8.112  0.1727 -0.2958 -0.0398
  783loPI   C4B10842   6.347  13.551   8.584  0.0243 -0.1134 -0.3951
  784loPI    C110843   8.561   4.256   5.789 -0.1031 -0.1114 -0.1487
  784loPI    C210844   8.795   4.194   5.471 -0.0585  0.0632 -0.1509
  784loPI    C310845   8.462   4.413   5.434 -0.0698  0.0573 -0.0845
  784loPI   PO410846   8.728   4.339   5.995  0.0482 -0.2953  0.2756
  784loPI   GL110847   8.709   4.243   6.386  0.0042 -0.1366  0.1280
  784loPI   GL210848   9.036   4.325   6.429 -0.2530 -0.2529  0.2033
  784loPI   C1A10849   8.688   4.400   6.829  0.2147 -0.0620  0.2035
  784loPI   C2A10850   8.354   4.553   7.125 -0.3151  0.1323 -0.1123
  784loPI   C3A10851   8.515   4.743   7.470  0.0199  0.0379  0.0445
  784loPI   C4A10852   8.758   4.844   7.792 -0.1039  0.0414 -0.0885
  784loPI   C5A10853   9.062   4.589   8.087  0.0138 -0.0324  0.1678
  784loPI   C6A10854   9.440   4.422   8.252  0.1422 -0.0099  0.3303
  784loPI   C1B10855   9.185   4.465   6.801  0.0756 -0.1247  0.0045
  784loPI   C2B10856   9.193   4.578   7.122  0.1918  0.3499 -0.0731
  784loPI   C3B10857   9.186   4.652   7.584  0.1501 -0.2754  0.5143
  784loPI   C4B10858   9.593   4.685   7.863  0.1261  0.1820  0.1608
  785loPI    C110859   3.953   1.254   5.642 -0.0642  0.1339  0.2508
  785loPI    C210860   4.236   1.249   5.359 -0.0474  0.0444  0.2686
  785loPI    C310861   4.027   1.583   5.428 -0.0077  0.0849  0.1944
  785loPI   PO410862   4.064   1.145   5.844  0.4258  0.0678 -0.1098
  785loPI   GL110863   4.067   1.261   6.321 -0.0404 -0.0271  0.0716
  785loPI   GL210864   3.823   1.025   6.335  0.0360 -0.0107 -0.0081
  785loPI   C1A10865   4.123   1.361   6.741  0.0919 -0.1005 -0.3418
  785loPI   C2A10866   4.241   1.472   7.218 -0.2108 -0.3213  0.1525
  785loPI   C3A10867   4.142   1.271   7.601  0.1062 -0.1867  0.3374
  785loPI   C4A10868   4.154   1.276   8.084  0.0765  0.1054 -0.2977
  785loPI   C5A10869   4.559   1.341   8.311  0.1724 -0.3442 -0.3898
  785loPI   C6A10870   4.729   0.952   8.610 -0.1377 -0.1117  0.0934
  785loPI   C1B10871   3.771   1.032   6.769 -0.1040  0.0360 -0.0513
  785loPI   C2B10872   3.805   1.297   7.112  0.0653  0.0867 -0.0159
  785loPI   C3B10873   3.686   1.189   7.546  0.2100 -0.1093  0.1313
  785loPI   C4B10874   3.725   1.151   7.917  0.0342  0.0867  0.0357
  786loPI    C110875   3.620  11.529   5.755  0.1566  0.1089 -0.1505
  786loPI    C210876   3.272  11.569   5.561  0.1163 -0.0982 -0.1234
  786loPI    C310877   3.618  11.599   5.361  0.0852  0.1470 -0.1436
  786loPI   PO410878   3.576  11.738   6.028 -0.1987 -0.1468  0.2847
  786loPI   GL110879   3.724  11.737   6.435  0.1188 -0.1840 -0.1459
  786loPI   GL210880   3.518  11.915   6.506 -0.3414  0.0817 -0.2723
  786loPI   C1A10881   3.928  11.938   6.777  0.0945 -0.0443 -0.2955
  786loPI   C2A10882   3.959  12.050   7.142  0.1748 -0.0001 -0.1042
  786loPI   C3A10883   3.914  11.964   7.586 -0.0242  0.0374  0.0032
  786loPI   C4A10884   3.749  11.929   7.959 -0.0401  0.2264 -0.1895
  786loPI   C5A10885   4.060  11.911   8.318 -0.0288  0.1799 -0.1420
  786loPI   C6A10886   4.401  11.814   8.554 -0.2555  0.2726  0.0979
  786loPI   C1B10887   3.435  12.110   6.879  0.0742  0.1733  0.1413
  786loPI   C2B10888   3.457  12.217   7.345  0.0139  0.2685  0.0537
  786loPI   C3B10889   3.359  12.111   7.812 -0.1597 -0.0370  0.0473
  786loPI   C4B10890   3.225  11.911   8.086  0.2220  0.1733  0.1953
  787loPI    C110891  13.946   3.802   5.705 -0.0951  0.0870 -0.0683
  787loPI    C210892  14.240   3.955   5.929 -0.0732 -0.3136  0.1873
  787loPI    C310893  14.300   3.617   5.724 -0.2434 -0.2005 -0.0539
  787loPI   PO410894  13.665   3.909   5.897 -0.0265  0.0985 -0.1451
  787loPI   GL110895  13.443   3.921   6.317 -0.2933 -0.2396  0.3130
  787loPI   GL210896  13.669   3.777   6.465 -0.1562 -0.2176 -0.3015
  787loPI   C1A10897  13.187   3.952   6.702  0.0159  0.3058  0.0098
  787loPI   C2A10898  13.277   3.895   7.144  0.1042  0.1334 -0.1636
  787loPI   C3A10899  13.344   4.048   7.517  0.0797 -0.0708 -0.2072
  787loPI   C4A10900  13.672   4.100   7.717 -0.1827  0.0089 -0.0751
  787loPI   C5A10901  14.042   4.012   8.025  0.3004  0.0123  0.0829
  787loPI   C6A10902  14.353   3.841   8.215  0.1150 -0.1238  0.1763
  787loPI   C1B10903  13.729   3.875   6.835  0.4102 -0.2295  0.2611
  787loPI   C2B10904  13.730   3.801   7.193  0.3049  0.1498  0.1437
  787loPI   C3B10905  13.888   3.624   7.566 -0.2254  0.5071 -0.0350
  787loPI   C4B10906  14.098   3.528   7.907 -0.0106  0.0391  0.0128
  788loPI    C110907  13.884  12.227   5.784 -0.2610  0.0596  0.0410
  788loPI    C210908  13.838  11.962   5.488  0.1913  0.0406 -0.0191
  788loPI    C310909  14.143  11.924   5.744  0.1306  0.3777  0.1071
  788loPI   PO410910  13.695  12.222   5.942 -0.2553 -0.1859 -0.2535
  788loPI   GL110911  13.681  12.112   6.355 -0.1289  0.2740  0.1449
  788loPI   GL210912  14.004  12.183   6.370  0.0509 -0.0494 -0.0585
  788loPI   C1A10913  13.510  12.177   6.679 -0.1575  0.1622 -0.1027
  788loPI   C2A10914  13.553  12.112   7.052 -0.1855  0.0524  0.1732
  788loPI   C3A10915  13.498  12.003   7.405 -0.1786  0.1990 -0.0789
  788loPI   C4A10916  13.321  11.982   7.893 -0.0856 -0.0284  0.1441
  788loPI   C5A10917  13.434  11.805   8.307  0.0730 -0.1316  0.2106
  788loPI   C6A10918  13.456  11.337   8.499  0.3057 -0.1529  0.0481
  788loPI   C1B10919  14.028  12.103   6.802  0.2623  0.0625  0.0148
  788loPI   C2B10920  13.996  12.009   7.244  0.2079  0.0604 -0.1303
  788loPI   C3B10921  13.976  11.863   7.537  0.3479 -0.0377 -0.1193
  788loPI   C4B10922  13.875  11.855   7.862 -0.2831  0.1714 -0.2175
  789loPI    C110923  11.592   2.525   5.222  0.0084  0.1300 -0.2417
  789loPI    C210924  11.944   2.696   5.138  0.0696  0.0569 -0.1367
  789loPI    C310925  11.857   2.334   4.991  0.0738  0.0374 -0.0914
  789loPI   PO410926  11.657   2.653   5.585  0.3950 -0.1593 -0.1970
  789loPI   GL110927  11.910   2.854   5.941 -0.0064  0.0042 -0.0399
  789loPI   GL210928  11.630   2.797   6.108 -0.3790 -0.0023 -0.0109
  789loPI   C1A10929  12.105   2.708   6.304  0.0632 -0.1495  0.1571
  789loPI   C2A10930  12.127   2.692   6.724 -0.0647  0.3635  0.2084
  789loPI   C3A10931  12.124   2.615   7.151 -0.0527  0.1400  0.1115
  789loPI   C4A10932  12.125   2.564   7.625 -0.0082 -0.1862 -0.0389
  789loPI   C5A10933  12.053   2.180   7.944  0.1345 -0.1777 -0.0048
  789loPI   C6A10934  11.722   2.034   8.283  0.0761  0.1779  0.0745
  789loPI   C1B10935  11.710   2.985   6.540 -0.0979  0.0568 -0.1189
  789loPI   C2B10936  11.813   3.020   6.955 -0.0492 -0.1326  0.1517
  789loPI   C3B10937  12.018   3.072   7.397  0.0476  0.1813  0.2865
  789loPI   C4B10938  12.064   3.103   7.761  0.0392  0.1889  0.0322
  790loPI    C110939   1.770  12.832   5.422 -0.0558  0.0296  0.1174
  790loPI    C210940   1.664  12.451   5.486 -0.1687  0.0747  0.2022
  790loPI    C310941   1.414  12.747   5.585 -0.0284  0.1763  0.2558
  790loPI   PO410942   2.008  12.892   5.652 -0.0990  0.1524  0.1048
  790loPI   GL110943   2.155  13.081   6.085  0.2033  0.0387  0.1042
  790loPI   GL210944   2.061  13.421   5.968 -0.1518  0.3062  0.2296
  790loPI   C1A10945   2.049  12.880   6.482 -0.1591  0.0781  0.0345
  790loPI   C2A10946   2.103  12.558   6.728 -0.0206 -0.0416  0.2531
  790loPI   C3A10947   2.057  12.504   7.114  0.0994 -0.3379  0.0548
  790loPI   C4A10948   1.849  12.640   7.484 -0.2558  0.2275  0.1494
  790loPI   C5A10949   1.816  12.590   7.863  0.2109  0.1414 -0.2127
  790loPI   C6A10950   1.779  12.955   8.123 -0.4063  0.0697 -0.0584
  790loPI   C1B10951   2.071  13.518   6.334 -0.0659 -0.0575 -0.0921
  790loPI   C2B10952   2.083  13.961   6.614  0.0116 -0.1108 -0.1323
  790loPI   C3B10953   1.718  14.155   6.857  0.0533 -0.1022 -0.0115
  790loPI   C4B10954   1.318  14.330   6.915  0.0199  0.0078  0.3746
  791loPI    C110955  13.204   0.772   5.598 -0.0368  0.1478 -0.0054
  791loPI    C210956  13.220   0.930   5.231 -0.0436 -0.2526 -0.1829
  791loPI    C310957  12.947   0.650   5.317 -0.0320 -0.1732  0.1252
  791loPI   PO410958  13.115   0.877   5.746  0.0968 -0.3749 -0.0281
  791loPI   GL110959  12.832   1.024   6.101  0.0798  0.1508  0.0852
  791loPI   GL210960  13.170   1.067   6.220 -0.0278 -0.1270 -0.0764
  791loPI   C1A10961  12.894   0.796   6.512  0.1103 -0.3045 -0.0417
  791loPI   C2A10962  12.907   0.863   6.914 -0.0802 -0.1950  0.1232
  791loPI   C3A10963  12.981   1.079   7.302 -0.1549  0.0118 -0.4502
  791loPI   C4A10964  12.981   1.043   7.818 -0.1011 -0.0714  0.1294
  791loPI   C5A10965  13.106   0.815   8.162  0.1598  0.0104 -0.1760
  791loPI   C6A10966  13.148   0.775   8.518 -0.0028 -0.0484  0.1869
  791loPI   C1B10967  13.227   1.107   6.604  0.0162 -0.0299  0.0015
  791loPI   C2B10968  13.365   1.255   7.004  0.0166  0.2431  0.2465
  791loPI   C3B10969  13.628   1.272   7.433 -0.1414  0.1611  0.0272
  791loPI   C4B10970  13.730   1.316   7.844 -0.1310  0.1216  0.1759
  792loPI    C110971   7.956  16.040   5.843  0.0778  0.0995  0.2373
  792loPI    C210972   8.144  15.766   5.619  0.0017  0.2196  0.0235
  792loPI    C310973   8.353  16.055   5.801  0.0714  0.0785  0.1691
  792loPI   PO410974   7.811  15.917   6.085 -0.2536 -0.0763  0.0932
  792loPI   GL110975   7.960  15.776   6.513 -0.1893  0.3567 -0.0869
  792loPI   GL210976   8.216  15.519   6.665 -0.2639  0.0032  0.2974
  792loPI   C1A10977   7.634  15.777   6.855  0.0289 -0.1465  0.1402
  792loPI   C2A10978   7.539  15.831   7.297  0.0806  0.3379 -0.2424
  792loPI   C3A10979   7.572  15.700   7.714 -0.2552  0.2322 -0.0148
  792loPI   C4A10980   7.452  15.676   8.194 -0.0867 -0.4355 -0.0878
  792loPI   C5A10981   7.479  15.808   8.630 -0.0535  0.0100 -0.0166
  792loPI   C6A10982   7.832  16.100   8.678 -0.1108 -0.0842 -0.1754
  792loPI   C1B10983   8.233  15.320   7.040 -0.0770 -0.0782  0.0099
  792loPI   C2B10984   8.189  15.206   7.481  0.3088 -0.1966  0.2697
  792loPI   C3B10985   8.060  14.882   7.738 -0.0609  0.4378 -0.0411
  792loPI   C4B10986   8.229  14.471   7.719  0.1806  0.0075  0.2186
  793loPI    C110987   0.582  10.517   5.663  0.0549  0.0035 -0.2628
  793loPI    C210988   0.896  10.408   5.440  0.3751  0.1762  0.0916
  793loPI    C310989   0.827  10.795   5.511 -0.0695  0.1548 -0.1892
  793loPI   PO410990   0.720  10.399   5.918  0.1347  0.0586 -0.0162
  793loPI   GL110991   0.650  10.174   6.315  0.0875 -0.3514  0.0496
  793loPI   GL210992   0.732  10.532   6.369  0.3287  0.0380 -0.3747
  793loPI   C1A10993   0.406  10.233   6.643  0.2214 -0.4381 -0.0160
  793loPI   C2A10994   0.546   9.959   6.980 -0.1529 -0.0898  0.1097
  793loPI   C3A10995   0.932   9.836   7.093 -0.2470 -0.2672 -0.0183
  793loPI   C4A10996   1.072   9.385   7.136  0.1792 -0.0753  0.2011
  793loPI   C5A10997   1.291   9.091   7.361  0.0676 -0.3444  0.0569
  793loPI   C6A10998   1.644   9.199   7.607 -0.3486  0.1458  0.2306
  793loPI   C1B10999   0.565  10.764   6.778  0.0712  0.1259 -0.2498
  793loPI   C2B11000   0.272  10.736   7.155  0.0891 -0.2063 -0.3986
  793loPI   C3B11001   0.033  10.701   7.568  0.1756 -0.3143 -0.1511
  793loPI   C4B11002  -0.374  10.655   7.834 -0.1749 -0.0627  0.0284
  794loPI    C111003  11.465   1.044   5.347 -0.0508  0.2410  0.0846
  794loPI    C211004  11.280   1.356   5.178 -0.0547  0.1207 -0.1377
  794loPI    C311005  11.369   1.034   4.959  0.0579  0.0137  0.0620
  794loPI   PO411006  11.439   1.029   5.592 -0.3065  0.0226  0.2343
  794loPI   GL111007  11.676   0.943   5.901  0.0448 -0.1084  0.2052
  794loPI   GL211008  11.463   1.284   6.081  0.1754  0.0849  0.0974
  794loPI   C1A11009  11.898   1.049   6.219  0.1025  0.1529  0.0912
  794loPI   C2A11010  11.983   0.869   6.538  0.2282  0.1443  0.0675
  794loPI   C3A11011  12.021   0.949   6.985 -0.3132 -0.1372 -0.0722
  794loPI   C4A11012  12.087   1.049   7.362 -0.1633  0.2060 -0.0021
  794loPI   C5A11013  12.116   1.072   7.813  0.1116 -0.0051 -0.1452
  794loPI   C6A11014  11.951   1.251   8.109  0.2867  0.3979 -0.0980
  794loPI   C1B11015  11.429   1.210   6.439 -0.0309 -0.1602 -0.1420
  794loPI   C2B11016  11.631   1.170   6.853 -0.1255 -0.2518 -0.1355
  794loPI   C3B11017  11.623   1.241   7.228  0.0518  0.2680  0.0119
  794loPI   C4B11018  11.672   1.327   7.656 -0.0181  0.2390  0.3461
  795loPI    C111019  16.643   4.128   5.696 -0.0572  0.1255  0.1555
  795loPI    C211020  16.490   3.796   5.533  0.1284  0.1278 -0.0274
  795loPI    C311021  16.727   4.035   5.317  0.1326  0.2919  0.1550
  795loPI   PO411022  16.384   4.188   5.811  0.0821 -0.0399  0.3473
  795loPI   GL111023  16.043   4.209   6.081  0.0945  0.0424 -0.0351
  795loPI   GL211024  16.140   4.500   6.100  0.0565 -0.1670  0.0213
  795loPI   C1A11025  16.031   3.875   6.442 -0.0738  0.0468  0.4370
  795loPI   C2A11026  15.745   3.567   6.712 -0.0906  0.0978  0.2045
  795loPI   C3A11027  15.679   3.507   7.178 -0.0025 -0.0548 -0.2086
  795loPI   C4A11028  15.627   3.449   7.608 -0.1879  0.2991 -0.2085
  795loPI   C5A11029  15.538   3.401   8.003 -0.0616  0.0165  0.0522
  795loPI   C6A11030  15.439   3.476   8.425  0.2916  0.0169 -0.3091
  795loPI   C1B11031  16.060   4.394   6.528  0.2516  0.0215 -0.0894
  795loPI   C2B11032  16.039   4.442   7.014  0.0642  0.1252  0.0204
  795loPI   C3B11033  16.024   4.385   7.402  0.1855 -0.1837 -0.0882
  795loPI   C4B11034  16.183   4.253   7.853  0.0249  0.0723 -0.1685
  796loPI    C111035  15.438  16.848   5.547 -0.2552  0.0627  0.1422
  796loPI    C211036  15.479  17.215   5.395  0.2509 -0.0515 -0.0188
  796loPI    C311037  15.234  16.952   5.219  0.0710  0.1295 -0.0437
  796loPI   PO411038  15.355  16.860   5.814 -0.4078  0.1814  0.1212
  796loPI   GL111039  15.468  16.947   6.216 -0.0506 -0.1114  0.0724
  796loPI   GL211040  15.548  17.264   6.193  0.0740 -0.1175  0.0101
  796loPI   C1A11041  15.573  16.681   6.534  0.0277  0.1118  0.3510
  796loPI   C2A11042  15.541  16.803   6.961  0.0256 -0.2704  0.3420
  796loPI   C3A11043  15.666  16.909   7.379 -0.2725  0.0242 -0.2271
  796loPI   C4A11044  15.803  16.954   7.840 -0.1552 -0.0190  0.0237
  796loPI   C5A11045  15.854  16.951   8.245  0.2410  0.3849  0.0305
  796loPI   C6A11046  15.938  17.322   8.548 -0.0909 -0.0665  0.0066
  796loPI   C1B11047  15.686  17.158   6.602  0.2136  0.0940 -0.1358
  796loPI   C2B11048  15.818  17.280   6.987  0.0417 -0.0815 -0.0954
  796loPI   C3B11049  15.557  17.663   7.118  0.0006 -0.2155 -0.2017
  796loPI   C4B11050  15.468  18.065   6.909  0.1395  0.0203 -0.0009
  797loPI    C111051  16.238  13.234   5.886  0.1246 -0.0691  0.0942
  797loPI    C211052  16.327  12.921   5.653 -0.0042 -0.0767  0.0547
  797loPI    C311053  16.088  13.212   5.516 -0.1608 -0.1298  0.2111
  797loPI   PO411054  16.456  13.208   6.032 -0.0525 -0.0983 -0.1682
  797loPI   GL111055  16.652  12.934   6.239  0.0540  0.0296 -0.4419
  797loPI   GL211056  16.929  13.038   6.467 -0.1344 -0.0092 -0.1421
  797loPI   C1A11057  16.500  12.811   6.621  0.1812  0.1328  0.1089
  797loPI   C2A11058  16.409  12.863   7.114  0.0754  0.0308 -0.0790
  797loPI   C3A11059  16.402  13.076   7.533  0.1068 -0.1350 -0.1943
  797loPI   C4A11060  16.386  13.380   7.845  0.3548 -0.0290 -0.2317
  797loPI   C5A11061  16.723  13.542   8.157  0.2040 -0.2505  0.3820
  797loPI   C6A11062  17.156  13.633   8.104 -0.2424  0.0735 -0.0099
  797loPI   C1B11063  16.862  13.050   6.862 -0.1721  0.1388 -0.0085
  797loPI   C2B11064  16.887  13.157   7.331  0.1858  0.1673 -0.3551
  797loPI   C3B11065  16.825  13.188   7.783 -0.0182  0.2831 -0.0283
  797loPI   C4B11066  16.534  13.005   8.084  0.2520  0.1486  0.1487
  798loPI    C111067   4.463   7.671   5.922 -0.0060 -0.0554 -0.0237
  798loPI    C211068   4.798   7.887   5.886 -0.2345  0.3367  0.1404
  798loPI    C311069   4.581   7.799   5.561  0.1138 -0.0734  0.0085
  798loPI   PO411070   4.298   7.779   6.142 -0.0654  0.3520 -0.0134
  798loPI   GL111071   4.063   7.739   6.510  0.1480  0.0917 -0.0305
  798loPI   GL211072   4.411   7.680   6.642 -0.1127  0.1050  0.2641
  798loPI   C1A11073   3.970   7.831   6.950 -0.1535 -0.1293  0.1587
  798loPI   C2A11074   3.920   7.893   7.351  0.0664 -0.2947  0.2868
  798loPI   C3A11075   3.887   7.835   7.750 -0.2178  0.0829 -0.0206
  798loPI   C4A11076   3.690   7.593   8.132 -0.0800  0.1008  0.1823
  798loPI   C5A11077   3.355   7.676   8.368 -0.0840 -0.4326 -0.0044
  798loPI   C6A11078   2.916   7.613   8.337 -0.1311  0.0946 -0.1254
  798loPI   C1B11079   4.430   7.643   7.108 -0.1261 -0.4642 -0.3112
  798loPI   C2B11080   4.374   7.681   7.564  0.0545  0.1965  0.0298
  798loPI   C3B11081   4.156   7.401   7.844  0.1210 -0.0895  0.0847
  798loPI   C4B11082   4.074   7.193   8.239  0.1041  0.4068  0.0266
  799loPI    C111083  11.386  15.663   6.023  0.3187 -0.3228 -0.0303
  799loPI    C211084  11.524  15.509   5.681  0.1454 -0.3886 -0.0717
  799loPI    C311085  11.133  15.492   5.764  0.1314 -0.0249 -0.0486
  799loPI   PO411086  11.616  15.683   6.143  0.1060  0.0147  0.1084
  799loPI   GL111087  11.789  15.750   6.510  0.1621 -0.2288 -0.1409
  799loPI   GL211088  11.925  16.015   6.589 -0.1003  0.1269 -0.1228
  799loPI   C1A11089  12.006  15.616   7.030  0.0899  0.0183  0.0700
  799loPI   C2A11090  12.079  15.711   7.402 -0.2305  0.0374 -0.1454
  799loPI   C3A11091  12.164  15.729   7.829 -0.2986 -0.4320  0.1418
  799loPI   C4A11092  12.125  15.866   8.231 -0.1698 -0.2843  0.2384
  799loPI   C5A11093  11.761  16.077   8.389 -0.3012 -0.0706 -0.1679
  799loPI   C6A11094  11.514  16.430   8.349  0.2981  0.0506  0.1488
  799loPI   C1B11095  11.955  16.113   7.018  0.1407  0.3877 -0.2193
  799loPI   C2B11096  11.979  16.166   7.427 -0.0654  0.1353 -0.1204
  799loPI   C3B11097  12.215  16.252   7.801  0.2013 -0.0955  0.1629
  799loPI   C4B11098  12.212  16.395   8.200  0.0329  0.0062 -0.2158
  800loPI    C111099   9.873   2.253   5.552  0.1541  0.0938  0.1578
  800loPI    C211100  10.232   2.259   5.376  0.0138 -0.1560 -0.1477
  800loPI    C311101  10.013   1.925   5.370 -0.1738 -0.0416  0.1427
  800loPI   PO411102   9.892   2.361   5.806 -0.2484 -0.0601  0.3852
  800loPI   GL111103  10.206   2.225   6.220 -0.1792  0.1463 -0.1998
  800loPI   GL211104  10.100   2.510   6.346 -0.0369  0.0157  0.1932
  800loPI   C1A11105  10.212   2.167   6.665  0.0368  0.2273 -0.1202
  800loPI   C2A11106  10.239   2.155   7.111  0.0228  0.1554  0.1315
  800loPI   C3A11107  10.418   2.313   7.376 -0.1501 -0.0202 -0.0279
  800loPI   C4A11108  10.648   2.305   7.797  0.1470  0.1749 -0.1074
  800loPI   C5A11109  11.063   2.043   7.942 -0.2941  0.0572 -0.1543
  800loPI   C6A11110  11.219   1.996   8.287 -0.1496  0.2260  0.0467
  800loPI   C1B11111  10.284   2.694   6.754  0.3235  0.2713  0.1453
  800loPI   C2B11112  10.355   2.728   7.136  0.0362 -0.2738 -0.4702
  800loPI   C3B11113  10.497   2.747   7.612 -0.0232 -0.1538  0.0202
  800loPI   C4B11114  10.724   2.943   7.885 -0.2694 -0.2932 -0.2305
  801loPI    C111115  11.444  16.521   5.884 -0.1082 -0.0076  0.2763
  801loPI    C211116  11.235  16.859   5.840 -0.1420 -0.0466  0.1328
  801loPI    C311117  11.046  16.519   5.931 -0.0912  0.0008  0.4237
  801loPI   PO411118  11.714  16.620   5.930 -0.2141  0.2009  0.1801
  801loPI   GL111119  12.028  16.714   6.265 -0.2035  0.0943 -0.1340
  801loPI   GL211120  11.883  16.466   6.491  0.1115 -0.3649  0.0278
  801loPI   C1A11121  11.950  16.979   6.635  0.1418 -0.0745  0.0025
  801loPI   C2A11122  11.971  17.035   7.109 -0.0951  0.2269  0.0977
  801loPI   C3A11123  11.952  17.213   7.417  0.2592  0.0197 -0.2211
  801loPI   C4A11124  12.075  17.241   7.829 -0.3129 -0.1075 -0.0732
  801loPI   C5A11125  12.287  17.113   8.147 -0.0555 -0.0439  0.0292
  801loPI   C6A11126  12.708  16.983   8.221  0.1629 -0.1272  0.3931
  801loPI   C1B11127  12.049  16.600   6.913 -0.1377  0.1239  0.0998
  801loPI   C2B11128  12.008  16.639   7.421 -0.1605 -0.2535 -0.0372
  801loPI   C3B11129  12.064  16.770   7.905  0.3574  0.0205  0.1148
  801loPI   C4B11130  11.830  16.896   8.176  0.1974  0.0221 -0.1897
  802loPI    C111131   6.491   0.760   6.046  0.0897 -0.0528  0.1374
  802loPI    C211132   6.820   0.954   5.929  0.0023 -0.0747 -0.1513
  802loPI    C311133   6.557   0.824   5.657 -0.1355 -0.2527  0.0637
  802loPI   PO411134   6.341   0.884   6.247 -0.0342  0.3805  0.0488
  802loPI   GL111135   5.994   1.075   6.554 -0.1430 -0.4295  0.0306
  802loPI   GL211136   6.054   1.258   6.758  0.2485 -0.2035  0.0247
  802loPI   C1A11137   5.881   0.855   6.931  0.2536  0.0662 -0.0182
  802loPI   C2A11138   5.754   0.929   7.315  0.0191  0.3274  0.3369
  802loPI   C3A11139   5.934   0.863   7.726  0.1671  0.1447  0.0083
  802loPI   C4A11140   6.046   0.809   8.132  0.1300 -0.0181  0.0956
  802loPI   C5A11141   6.175   0.624   8.505 -0.1819  0.0800 -0.0068
  802loPI   C6A11142   5.961   0.557   8.885  0.0137  0.0032 -0.1850
  802loPI   C1B11143   5.984   1.346   7.154 -0.1653 -0.2342 -0.1697
  802loPI   C2B11144   6.062   1.290   7.608  0.0622 -0.1588  0.1702
  802loPI   C3B11145   5.929   1.281   7.990 -0.1048 -0.0913 -0.0032
  802loPI   C4B11146   6.033   1.512   8.370 -0.2528 -0.1164  0.0178
  803loPI    C111147   1.913   1.302   6.089 -0.2175  0.0402  0.0145
  803loPI    C211148   1.564   1.286   5.895 -0.1366  0.2063 -0.1473
  803loPI    C311149   1.832   0.994   5.848 -0.2960  0.0228  0.0625
  803loPI   PO411150   1.863   1.335   6.287 -0.1080 -0.1024  0.0620
  803loPI   GL111151   1.998   1.332   6.643  0.0599  0.1295 -0.1955
  803loPI   GL211152   1.819   1.204   6.821 -0.0083  0.2055  0.0069
  803loPI   C1A11153   2.232   1.353   7.107  0.1337 -0.2197  0.4193
  803loPI   C2A11154   2.325   1.413   7.417  0.1578 -0.1233  0.1249
  803loPI   C3A11155   2.393   1.586   7.861 -0.2661  0.0465 -0.3132
  803loPI   C4A11156   2.564   1.771   8.208  0.0732  0.1529 -0.3414
  803loPI   C5A11157   2.907   1.985   8.381 -0.2125 -0.1131 -0.0930
  803loPI   C6A11158   3.412   1.942   8.275 -0.2094  0.1622  0.3365
  803loPI   C1B11159   1.913   0.895   6.960  0.1035  0.5968  0.1197
  803loPI   C2B11160   1.890   0.890   7.411 -0.0871 -0.0294 -0.0145
  803loPI   C3B11161   1.980   1.144   7.778 -0.1636 -0.3737  0.1511
  803loPI   C4B11162   2.150   1.077   8.167  0.3775  0.5780 -0.2781
  804loPI    C111163  13.463   5.934   5.701 -0.2708 -0.0121  0.1050
  804loPI    C211164  13.666   5.860   5.365 -0.1390  0.2274  0.1295
  804loPI    C311165  13.351   5.634   5.462 -0.0988  0.0749 -0.0877
  804loPI   PO411166  13.690   6.011   5.866 -0.1163  0.0548 -0.2019
  804loPI   GL111167  13.709   6.173   6.331 -0.0915 -0.2037  0.1086
  804loPI   GL211168  13.777   5.849   6.359 -0.1193 -0.0094 -0.2499
  804loPI   C1A11169  13.827   6.190   6.788 -0.1782  0.0418 -0.1550
  804loPI   C2A11170  13.812   6.351   7.197 -0.4820 -0.3475 -0.2193
  804loPI   C3A11171  13.726   6.509   7.691  0.3612  0.0443  0.0752
  804loPI   C4A11172  13.429   6.555   8.091  0.0365 -0.2585 -0.0145
  804loPI   C5A11173  13.152   6.468   8.434 -0.1256  0.1872 -0.1716
  804loPI   C6A11174  12.802   6.351   8.438 -0.2774 -0.0934 -0.0156
  804loPI   C1B11175  13.873   5.683   6.853 -0.0562 -0.1093 -0.1204
  804loPI   C2B11176  13.717   5.841   7.241  0.2062 -0.3158 -0.0609
  804loPI   C3B11177  13.800   5.961   7.635 -0.0279 -0.0683 -0.0517
  804loPI   C4B11178  13.799   6.091   8.065  0.1034 -0.0087 -0.2771
  805loPI    C111179   7.973   0.564   5.845 -0.1830 -0.0683  0.0013
  805loPI    C211180   7.935   0.471   5.457  0.0473  0.0996 -0.0633
  805loPI    C311181   8.182   0.765   5.570  0.0509 -0.0082  0.2194
  805loPI   PO411182   7.782   0.692   6.076  0.0424  0.0862 -0.1062
  805loPI   GL111183   7.621   0.619   6.449 -0.2215 -0.0713 -0.0924
  805loPI   GL211184   7.360   0.643   6.537 -0.1193  0.0045 -0.1801
  805loPI   C1A11185   7.846   0.577   6.847  0.0653  0.2163  0.0572
  805loPI   C2A11186   7.876   0.651   7.279  0.1107 -0.2329 -0.2260
  805loPI   C3A11187   7.854   0.689   7.688 -0.2064 -0.2400 -0.0150
  805loPI   C4A11188   7.665   0.710   8.113  0.1873 -0.1919 -0.1319
  805loPI   C5A11189   7.500   0.641   8.483  0.0025 -0.3601  0.2745
  805loPI   C6A11190   7.254   0.657   8.721 -0.0461  0.0360  0.1754
  805loPI   C1B11191   7.356   0.650   6.877 -0.0197 -0.0300 -0.1385
  805loPI   C2B11192   7.408   0.520   7.220  0.2898  0.0151  0.1738
  805loPI   C3B11193   7.374   0.420   7.638 -0.2092  0.0792 -0.2812
  805loPI   C4B11194   7.445   0.277   7.973 -0.1607  0.1219  0.0288
  806loPI    C111195  12.296   4.316   5.745 -0.1123  0.1927  0.0428
  806loPI    C211196  12.306   4.706   5.658 -0.1690  0.1971  0.0554
  806loPI    C311197  12.454   4.440   5.399 -0.1069  0.2288  0.0581
  806loPI   PO411198  12.397   4.280   5.926 -0.0799 -0.0212  0.2134
  806loPI   GL111199  12.505   4.521   6.288 -0.1061 -0.1499 -0.0287
  806loPI   GL211200  12.362   4.727   6.490  0.0006 -0.3793  0.2372
  806loPI   C1A11201  12.723   4.237   6.710  0.0139  0.4131  0.2277
  806loPI   C2A11202  12.838   4.180   7.072 -0.0163 -0.0121 -0.0956
  806loPI   C3A11203  12.892   4.246   7.436 -0.1837  0.3797 -0.0091
  806loPI   C4A11204  12.835   4.296   7.866  0.1210  0.1524  0.6721
  806loPI   C5A11205  12.792   4.256   8.313  0.2420  0.0097  0.0202
  806loPI   C6A11206  12.497   4.193   8.585  0.0551  0.1465 -0.2018
  806loPI   C1B11207  12.605   4.783   6.819 -0.2882  0.3007  0.1477
  806loPI   C2B11208  12.764   4.757   7.209  0.1842  0.0663 -0.1394
  806loPI   C3B11209  12.838   4.803   7.624 -0.0400  0.0489 -0.2487
  806loPI   C4B11210  12.849   4.739   8.022  0.0146  0.1221  0.1897
  807loPI    C111211   5.138   8.764   5.748  0.0400 -0.0263  0.1278
  807loPI    C211212   4.929   9.098   5.678  0.1710  0.0031 -0.1374
  807loPI    C311213   5.156   8.940   5.389  0.0555 -0.3561 -0.0373
  807loPI   PO411214   4.912   8.615   5.891 -0.1117  0.0929  0.0310
  807loPI   GL111215   4.711   8.481   6.293  0.2167  0.0081 -0.3712
  807loPI   GL211216   4.604   8.109   6.324 -0.0179  0.0194 -0.1244
  807loPI   C1A11217   4.745   8.525   6.750  0.1071  0.0391 -0.0085
  807loPI   C2A11218   4.790   8.488   7.227  0.1033 -0.1056  0.0690
  807loPI   C3A11219   4.745   8.578   7.607  0.1916 -0.1619  0.0373
  807loPI   C4A11220   4.729   8.414   7.933 -0.3008 -0.4098 -0.2291
  807loPI   C5A11221   4.734   8.112   8.266 -0.0750  0.3497  0.2793
  807loPI   C6A11222   4.537   7.929   8.600  0.1786  0.4018  0.0825
  807loPI   C1B11223   4.366   8.172   6.734  0.1925 -0.0799 -0.0795
  807loPI   C2B11224   4.304   8.200   7.197  0.0882  0.2019 -0.0345
  807loPI   C3B11225   4.385   8.168   7.630 -0.1452 -0.2624  0.0677
  807loPI   C4B11226   4.353   7.972   7.995  0.1329  0.0282 -0.1115
  808loPI    C111227   6.570   2.927   6.054  0.0068 -0.1399 -0.0011
  808loPI    C211228   6.772   2.712   5.784  0.0197 -0.1365  0.0058
  808loPI    C311229   6.383   2.643   5.843  0.0254 -0.1627  0.0129
  808loPI   PO411230   6.669   2.919   6.237 -0.0074  0.1631 -0.0109
  808loPI   GL111231   6.664   2.824   6.578  0.0038 -0.2724 -0.0226
  808loPI   GL211232   6.966   2.689   6.731 -0.3433 -0.0905 -0.1360
  808loPI   C1A11233   6.764   2.959   7.109  0.1246  0.1244 -0.0466
  808loPI   C2A11234   6.647   2.913   7.549 -0.0287  0.2083  0.0191
  808loPI   C3A11235   6.667   2.961   7.975  0.0315  0.1015 -0.1341
  808loPI   C4A11236   6.684   3.042   8.447  0.0596 -0.2526  0.1611
  808loPI   C5A11237   6.343   3.134   8.694 -0.0585  0.2411  0.2634
  808loPI   C6A11238   6.073   2.867   8.868 -0.1327  0.0520  0.1270
  808loPI   C1B11239   6.933   2.477   7.096  0.1187 -0.1440  0.0566
  808loPI   C2B11240   6.577   2.427   7.377  0.0730 -0.2136  0.1395
  808loPI   C3B11241   6.528   2.429   7.676  0.0413  0.0176 -0.1572
  808loPI   C4B11242   6.575   2.413   8.118 -0.0028  0.1653  0.2640
  809loPI    C111243   1.598  10.471   5.875  0.1153  0.1874  0.2422
  809loPI    C211244   1.312  10.691   5.701 -0.2558 -0.2751  0.2463
  809loPI    C311245   1.579  10.496   5.476 -0.0871 -0.0358  0.2353
  809loPI   PO411246   1.697  10.622   6.055 -0.0148  0.0498  0.0114
  809loPI   GL111247   1.776  10.928   6.323 -0.0559 -0.0218 -0.2389
  809loPI   GL211248   1.526  11.059   6.473  0.3139 -0.0967  0.1614
  809loPI   C1A11249   1.794  10.820   6.756  0.1158  0.0050 -0.3654
  809loPI   C2A11250   1.773  10.840   7.142 -0.2086  0.1630  0.0467
  809loPI   C3A11251   1.717  10.825   7.535  0.3643  0.1130 -0.2684
  809loPI   C4A11252   1.703  10.833   7.997  0.0090  0.1146  0.0360
  809loPI   C5A11253   1.976  10.752   8.325 -0.2018 -0.3571  0.0896
  809loPI   C6A11254   1.881  10.721   8.717  0.1157  0.0369  0.0436
  809loPI   C1B11255   1.550  11.241   6.988 -0.2387 -0.2439  0.2081
  809loPI   C2B11256   1.483  11.245   7.458 -0.1836  0.0786  0.1880
  809loPI   C3B11257   1.403  11.240   7.936 -0.0100  0.1449 -0.1248
  809loPI   C4B11258   1.078  11.401   8.220  0.0809 -0.0541 -0.2096
  810loPI    C111259  10.083  12.119   5.578 -0.0585  0.1144  0.1070
  810loPI    C211260  10.042  11.934   5.226 -0.0312 -0.0223  0.1749
  810loPI    C311261   9.885  12.298   5.280  0.2015  0.1174 -0.0670
  810loPI   PO411262  10.058  11.944   5.777  0.1976  0.0521  0.0214
  810loPI   GL111263   9.941  11.907   6.248  0.5021 -0.0845  0.2065
  810loPI   GL211264  10.028  11.660   6.222  0.0050 -0.2034 -0.1219
  810loPI   C1A11265   9.711  11.941   6.602 -0.0988 -0.0829  0.1077
  810loPI   C2A11266   9.624  11.655   6.984 -0.1258 -0.0575  0.0572
  810loPI   C3A11267   9.510  11.550   7.382  0.0191 -0.2027 -0.4169
  810loPI   C4A11268   9.568  11.259   7.714  0.0824  0.0055  0.3690
  810loPI   C5A11269   9.223  11.045   8.040 -0.0380  0.0940 -0.1718
  810loPI   C6A11270   9.063  10.687   8.052 -0.0019 -0.0856 -0.1099
  810loPI   C1B11271   9.735  11.406   6.569 -0.2233  0.0938 -0.0262
  810loPI   C2B11272   9.881  11.113   6.797 -0.0958  0.0988 -0.0130
  810loPI   C3B11273  10.036  10.941   7.110 -0.0620 -0.0591 -0.1144
  810loPI   C4B11274  10.167  10.928   7.528  0.3057 -0.0470 -0.2098
  811loPI    C111275   5.352   2.889   6.230 -0.0782  0.0464  0.0400
  811loPI    C211276   4.997   3.069   6.265 -0.0002  0.2555 -0.2064
  811loPI    C311277   5.104   2.904   5.917  0.0531 -0.0079 -0.0682
  811loPI   PO411278   5.533   3.024   6.313 -0.0217  0.2055 -0.1372
  811loPI   GL111279   5.555   3.417   6.450 -0.1817  0.1901  0.1955
  811loPI   GL211280   5.873   3.475   6.397  0.2318 -0.0006  0.1413
  811loPI   C1A11281   5.625   3.434   6.858  0.0817  0.0588  0.2451
  811loPI   C2A11282   5.596   3.416   7.165  0.1756  0.0821  0.0698
  811loPI   C3A11283   5.494   3.512   7.611 -0.0502 -0.1134  0.0144
  811loPI   C4A11284   5.480   3.581   8.016 -0.3151 -0.0345 -0.0371
  811loPI   C5A11285   5.383   3.921   8.285 -0.0798  0.2736  0.2992
  811loPI   C6A11286   5.084   4.222   8.377 -0.0562  0.1987 -0.0927
  811loPI   C1B11287   5.807   3.853   6.660  0.1747  0.0782 -0.0200
  811loPI   C2B11288   5.806   3.847   7.025 -0.0684 -0.0287  0.2763
  811loPI   C3B11289   5.877   3.778   7.414 -0.2678  0.1604 -0.2675
  811loPI   C4B11290   6.002   3.550   7.761 -0.0751  0.1614 -0.1171
  812loPI    C111291   3.370  14.542   5.454  0.2043 -0.1827  0.0961
  812loPI    C211292   3.769  14.549   5.447  0.2023 -0.2255 -0.3062
  812loPI    C311293   3.561  14.852   5.288  0.0752 -0.2844 -0.2532
  812loPI   PO411294   3.306  14.459   5.705  0.0739  0.0097 -0.2330
  812loPI   GL111295   3.324  14.154   6.111 -0.2141  0.0007  0.1061
  812loPI   GL211296   3.424  13.769   6.160 -0.3439 -0.0898  0.1916
  812loPI   C1A11297   3.012  14.076   6.437  0.1070  0.0795  0.0046
  812loPI   C2A11298   2.899  13.895   6.817  0.0194  0.0524  0.0123
  812loPI   C3A11299   2.804  13.890   7.179  0.0748 -0.2612  0.1179
  812loPI   C4A11300   2.515  13.824   7.503  0.0012  0.0290  0.2390
  812loPI   C5A11301   2.355  13.789   7.954 -0.2727 -0.0169 -0.2006
  812loPI   C6A11302   2.205  13.780   8.405  0.2112  0.1329 -0.0252
  812loPI   C1B11303   3.452  13.727   6.611  0.2206  0.0194 -0.2945
  812loPI   C2B11304   3.304  13.742   7.059  0.1066  0.0117  0.0173
  812loPI   C3B11305   3.212  13.775   7.554  0.1911 -0.2739 -0.0922
  812loPI   C4B11306   3.311  13.832   8.008  0.1612  0.1760  0.0299
  813loPI    C111307   7.358  16.489   5.853 -0.0426 -0.0189  0.0838
  813loPI    C211308   7.467  16.176   5.629 -0.1570  0.0954 -0.1355
  813loPI    C311309   7.685  16.512   5.624  0.0114 -0.0054  0.1620
  813loPI   PO411310   7.335  16.395   6.132  0.1060  0.4237 -0.0930
  813loPI   GL111311   7.051  16.160   6.410 -0.0041  0.0563 -0.2135
  813loPI   GL211312   6.774  15.989   6.633 -0.0110  0.0682  0.0582
  813loPI   C1A11313   7.229  16.109   6.936  0.0358  0.0658  0.1542
  813loPI   C2A11314   7.142  16.108   7.404 -0.2889 -0.0842 -0.1639
  813loPI   C3A11315   6.864  16.252   7.725 -0.0587  0.1868  0.0777
  813loPI   C4A11316   6.821  16.148   8.221  0.0588  0.0865 -0.1184
  813loPI   C5A11317   6.820  16.440   8.698 -0.0309 -0.1058 -0.1936
  813loPI   C6A11318   6.584  16.672   8.962  0.2751  0.0166  0.1630
  813loPI   C1B11319   6.748  16.002   7.022  0.0060  0.0566 -0.0758
  813loPI   C2B11320   6.563  15.805   7.388  0.1541  0.1718  0.0030
  813loPI   C3B11321   6.521  15.938   7.785 -0.0844  0.2990 -0.0201
  813loPI   C4B11322   6.335  16.136   7.992 -0.1092 -0.1866  0.1075
  814loPI    C111323  16.087  14.917   5.631 -0.0555 -0.0963  0.0084
  814loPI    C211324  16.450  14.756   5.679 -0.1274 -0.2326  0.1010
  814loPI    C311325  16.312  14.830   5.311  0.1618  0.2090  0.0735
  814loPI   PO411326  16.096  15.089   5.816 -0.0042 -0.2060  0.1962
  814loPI   GL111327  15.808  15.097   6.126  0.1746  0.0935  0.0772
  814loPI   GL211328  16.004  15.283   6.299  0.2709  0.0989  0.1212
  814loPI   C1A11329  15.613  14.912   6.412 -0.1495 -0.2222  0.0681
  814loPI   C2A11330  15.384  14.819   6.833 -0.0346 -0.1485  0.0340
  814loPI   C3A11331  15.198  15.002   7.252  0.1830  0.2509  0.1173
  814loPI   C4A11332  15.207  15.272   7.600  0.2248 -0.0933 -0.0099
  814loPI   C5A11333  15.142  15.390   8.072  0.1558 -0.3106 -0.1462
  814loPI   C6A11334  14.821  15.438   8.414  0.0024  0.0017 -0.2604
  814loPI   C1B11335  16.324  15.294   6.600  0.1871  0.0887 -0.3996
  814loPI   C2B11336  16.405  15.112   6.953  0.0842 -0.1542 -0.0649
  814loPI   C3B11337  16.309  14.955   7.320  0.1171  0.0923 -0.2390
  814loPI   C4B11338  16.073  15.073   7.607 -0.1427  0.2117  0.3976
  815loPI    C111339  16.767   5.167   5.561  0.2137  0.1214  0.0517
  815loPI    C211340  16.415   5.356   5.564  0.1185 -0.0537  0.0063
  815loPI    C311341  16.448   4.996   5.392  0.3064 -0.0633  0.0605
  815loPI   PO411342  16.844   5.110   5.838 -0.3651  0.0556 -0.1631
  815loPI   GL111343  16.951   5.308   6.286 -0.2523  0.0431 -0.3190
  815loPI   GL211344  16.795   5.532   6.430 -0.0240 -0.0176 -0.0578
  815loPI   C1A11345  17.152   5.222   6.673  0.1963 -0.1177  0.0548
  815loPI   C2A11346  17.244   5.064   7.086  0.1689  0.1593  0.0217
  815loPI   C3A11347  17.136   5.081   7.515  0.2564 -0.0373 -0.1394
  815loPI   C4A11348  16.874   5.093   8.029  0.1702 -0.1118  0.0223
  815loPI   C5A11349  16.760   5.409   8.336  0.0925  0.0022  0.0712
  815loPI   C6A11350  16.389   5.714   8.372  0.1782  0.1016 -0.0725
  815loPI   C1B11351  16.561   5.759   6.748 -0.1241 -0.1593 -0.0948
  815loPI   C2B11352  16.541   5.779   7.196 -0.0611 -0.1073  0.0638
  815loPI   C3B11353  16.498   5.567   7.473  0.0352  0.0853 -0.0257
  815loPI   C4B11354  16.294   5.623   7.872  0.1793  0.1841  0.0741
  816loPI    C111355  11.243   6.067   6.036 -0.2815 -0.0701 -0.0007
  816loPI    C211356  11.213   6.150   5.646  0.1153  0.1909  0.0181
  816loPI    C311357  11.087   6.416   5.917 -0.0504  0.0600  0.0716
  816loPI   PO411358  11.105   5.776   6.057 -0.0141 -0.1282  0.0680
  816loPI   GL111359  11.066   5.554   6.373  0.0024  0.1520 -0.1681
  816loPI   GL211360  10.734   5.526   6.339 -0.6022 -0.0057  0.3116
  816loPI   C1A11361  11.018   5.632   6.764 -0.2975  0.0372 -0.0406
  816loPI   C2A11362  10.866   5.606   7.216 -0.0370  0.3505 -0.3609
  816loPI   C3A11363  10.920   5.616   7.700  0.3172 -0.0826 -0.0723
  816loPI   C4A11364  11.016   5.584   8.058  0.1338  0.2055  0.1252
  816loPI   C5A11365  11.414   5.734   8.271  0.0013 -0.0961  0.0257
  816loPI   C6A11366  11.635   5.704   8.654  0.0254 -0.1788 -0.0646
  816loPI   C1B11367  10.574   5.796   6.649  0.1268 -0.1172  0.2428
  816loPI   C2B11368  10.523   5.943   7.074  0.0069 -0.1041 -0.0379
  816loPI   C3B11369  10.516   5.852   7.491 -0.0732  0.0835 -0.1977
  816loPI   C4B11370  10.531   5.868   7.929  0.0561  0.1047 -0.3235
  817loPI    C111371   5.551   9.749   5.799 -0.3545 -0.1220 -0.0490
  817loPI    C211372   5.355   9.937   5.505 -0.1774  0.1285 -0.0096
  817loPI    C311373   5.675  10.108   5.674  0.0031 -0.2213  0.0104
  817loPI   PO411374   5.673   9.505   5.734 -0.1790  0.1741  0.2255
  817loPI   GL111375   5.880   9.285   6.094  0.1771  0.0459  0.0333
  817loPI   GL211376   5.917   9.248   6.302 -0.2953 -0.0801  0.0937
  817loPI   C1A11377   5.484   9.059   6.375  0.2919 -0.0945  0.0689
  817loPI   C2A11378   5.101   8.960   6.734  0.1060 -0.0894  0.0360
  817loPI   C3A11379   5.136   8.909   7.111  0.2500 -0.1550 -0.1480
  817loPI   C4A11380   5.234   8.774   7.489  0.2761 -0.0382  0.1874
  817loPI   C5A11381   5.116   8.802   7.958 -0.0883 -0.1061 -0.1482
  817loPI   C6A11382   4.918   8.713   8.315  0.1612  0.0379 -0.0054
  817loPI   C1B11383   5.934   9.238   6.755 -0.0573 -0.0621  0.4504
  817loPI   C2B11384   5.855   9.199   7.175 -0.0108  0.0916 -0.0733
  817loPI   C3B11385   5.586   9.131   7.573 -0.1099  0.0580 -0.0472
  817loPI   C4B11386   5.696   8.933   7.959  0.1428 -0.6011 -0.0174
  818loPI    C111387  15.888   3.372   5.839 -0.1679  0.0119  0.0109
  818loPI    C211388  16.114   3.701   5.849 -0.0637 -0.0478 -0.2915
  818loPI    C311389  15.766   3.692   6.045 -0.0276  0.2117 -0.2119
  818loPI   PO411390  15.948   3.178   5.983 -0.2711 -0.0022 -0.0478
  818loPI   GL111391  16.091   3.017   6.323  0.2187  0.0502  0.1483
  818loPI   GL211392  15.821   3.075   6.453 -0.0490 -0.5101  0.2122
  818loPI   C1A11393  16.291   2.984   6.657 -0.0313 -0.1518  0.2813
  818loPI   C2A11394  16.402   3.004   7.043  0.1645 -0.2001 -0.0922
  818loPI   C3A11395  16.415   3.035   7.448 -0.3614 -0.3420 -0.3211
  818loPI   C4A11396  16.535   3.299   7.834 -0.3299 -0.1364 -0.2088
  818loPI   C5A11397  16.884   3.282   8.109  0.2129  0.2910 -0.1126
  818loPI   C6A11398  17.206   3.213   8.348  0.1385  0.1714 -0.2934
  818loPI   C1B11399  15.872   3.133   6.896  0.2554  0.0902  0.1738
  818loPI   C2B11400  15.793   3.054   7.318 -0.3005 -0.1412  0.0083
  818loPI   C3B11401  15.694   2.850   7.757 -0.0351  0.2983 -0.0396
  818loPI   C4B11402  15.633   2.920   8.235  0.3371 -0.0401  0.1267
  819loPI    C111403   3.150   5.725   5.920  0.2460 -0.0690 -0.2755
  819loPI    C211404   2.791   5.726   5.745  0.0156  0.0821  0.1819
  819loPI    C311405   3.048   6.023   5.674 -0.0248  0.0765  0.0064
  819loPI   PO411406   3.016   5.640   6.226 -0.1328  0.1809  0.3186
  819loPI   GL111407   3.036   5.887   6.590  0.3737 -0.0043  0.1204
  819loPI   GL211408   2.745   5.849   6.587 -0.0903 -0.0618  0.0893
  819loPI   C1A11409   3.178   5.484   6.838 -0.3129  0.0263  0.1507
  819loPI   C2A11410   3.149   5.453   7.265  0.1340  0.0552 -0.1376
  819loPI   C3A11411   3.258   5.362   7.753  0.0848 -0.2627  0.2201
  819loPI   C4A11412   3.176   5.320   8.230 -0.0431  0.0181  0.2806
  819loPI   C5A11413   3.390   5.171   8.514 -0.2088  0.2942  0.0070
  819loPI   C6A11414   3.851   5.019   8.586 -0.0982  0.0773  0.0633
  819loPI   C1B11415   2.871   5.841   7.042 -0.0638  0.0508  0.1248
  819loPI   C2B11416   2.871   5.828   7.445 -0.0548  0.4051 -0.0274
  819loPI   C3B11417   3.030   5.760   7.889  0.2227  0.3066  0.0625
  819loPI   C4B11418   2.912   5.819   8.354  0.0788  0.2721  0.0370
  820loPI    C111419   0.023   3.073   5.913  0.0046 -0.1914  0.0714
  820loPI    C211420   0.306   3.030   6.193  0.0657 -0.1123  0.0225
  820loPI    C311421   0.410   3.077   5.810 -0.0143 -0.0964  0.0025
  820loPI   PO411422  -0.157   2.894   5.971 -0.0826 -0.1814  0.0860
  820loPI   GL111423  -0.398   2.629   6.225  0.1035  0.1042 -0.1185
  820loPI   GL211424  -0.620   2.791   6.326  0.2511 -0.1500 -0.1815
  820loPI   C1A11425  -0.378   2.450   6.582  0.1459  0.1892 -0.1911
  820loPI   C2A11426  -0.485   2.628   6.994 -0.0677  0.1474 -0.0015
  820loPI   C3A11427  -0.584   2.634   7.392 -0.1829 -0.1632 -0.3545
  820loPI   C4A11428  -0.621   2.426   7.850  0.2488 -0.2155 -0.3193
  820loPI   C5A11429  -0.275   2.359   8.225 -0.1916  0.1412  0.0383
  820loPI   C6A11430  -0.012   2.108   8.407  0.2044 -0.2032  0.0501
  820loPI   C1B11431  -0.471   2.970   6.640 -0.2539 -0.2173 -0.0327
  820loPI   C2B11432  -0.363   3.132   6.954  0.1908 -0.0236  0.0759
  820loPI   C3B11433  -0.233   3.072   7.348  0.1973  0.2149 -0.2110
  820loPI   C4B11434   0.225   2.872   7.586 -0.1435 -0.1115 -0.1213
  821loPI    C111435   3.570   3.850   5.975  0.2154 -0.0263 -0.2866
  821loPI    C211436   3.424   3.515   5.813 -0.0591  0.0008 -0.1010
  821loPI    C311437   3.272   3.870   5.710 -0.1683  0.0253  0.1370
  821loPI   PO411438   3.861   3.661   6.065 -0.0748  0.1996  0.3527
  821loPI   GL111439   3.988   3.333   6.346 -0.0449 -0.2236  0.0143
  821loPI   GL211440   4.090   3.022   6.466  0.0385  0.1196 -0.1104
  821loPI   C1A11441   4.028   3.465   6.741 -0.1506  0.1861  0.0512
  821loPI   C2A11442   3.975   3.428   7.199  0.1309  0.3210  0.1163
  821loPI   C3A11443   3.978   3.492   7.691 -0.1942  0.0729 -0.0458
  821loPI   C4A11444   3.797   3.558   8.066  0.0654  0.0545  0.3272
  821loPI   C5A11445   3.512   3.849   8.402  0.1274 -0.2835  0.1334
  821loPI   C6A11446   3.829   4.101   8.639 -0.0744  0.0835 -0.1788
  821loPI   C1B11447   4.207   2.992   6.952  0.1155 -0.1439 -0.1767
  821loPI   C2B11448   4.211   3.030   7.420  0.1667  0.1812 -0.0404
  821loPI   C3B11449   4.191   3.071   7.876  0.0011  0.3766  0.0271
  821loPI   C4B11450   4.040   3.119   8.282  0.1539  0.2343  0.0670
  822loPI    C111451  10.612   7.856   5.749 -0.2429 -0.0999  0.0733
  822loPI    C211452  10.794   7.550   5.567 -0.3857 -0.0762 -0.1123
  822loPI    C311453  10.838   7.921   5.425 -0.1848 -0.0036  0.1326
  822loPI   PO411454  10.695   7.819   6.013 -0.2318 -0.0119 -0.0871
  822loPI   GL111455  10.607   7.727   6.412 -0.3259  0.2531 -0.0469
  822loPI   GL211456  10.782   7.500   6.425 -0.1067 -0.0091 -0.0185
  822loPI   C1A11457  10.701   7.810   6.887  0.0279  0.0420 -0.0605
  822loPI   C2A11458  10.551   8.048   7.164  0.0626  0.3604 -0.0674
  822loPI   C3A11459  10.485   8.178   7.632 -0.0818  0.1037 -0.1156
  822loPI   C4A11460  10.639   8.227   8.050 -0.1436 -0.0838  0.0948
  822loPI   C5A11461  10.877   8.458   8.239 -0.0451 -0.1633  0.0113
  822loPI   C6A11462  10.953   8.488   8.624  0.2302 -0.0074 -0.1921
  822loPI   C1B11463  11.101   7.517   6.773  0.1391  0.3867 -0.2721
  822loPI   C2B11464  11.092   7.470   7.181 -0.1661  0.0387  0.0336
  822loPI   C3B11465  10.847   7.774   7.510 -0.0743 -0.3430  0.0298
  822loPI   C4B11466  10.802   7.773   7.931  0.0188 -0.0571 -0.0917
  823loPI    C111467   2.783  12.392   6.158 -0.1240  0.0177 -0.0701
  823loPI    C211468   2.614  12.594   5.858 -0.0884  0.0935 -0.0394
  823loPI    C311469   2.555  12.199   5.892 -0.2443  0.1161 -0.0389
  823loPI   PO411470   3.065  12.470   6.069  0.1718 -0.0875 -0.0749
  823loPI   GL111471   3.304  12.769   6.299  0.1282 -0.0805  0.1461
  823loPI   GL211472   3.060  12.905   6.295  0.1088 -0.2177 -0.1729
  823loPI   C1A11473   3.353  12.807   6.764 -0.2914  0.0801 -0.0012
  823loPI   C2A11474   3.234  12.598   7.153  0.1847 -0.0393 -0.1752
  823loPI   C3A11475   3.335  12.706   7.598  0.2630 -0.1273 -0.0751
  823loPI   C4A11476   3.385  12.800   8.000 -0.1631 -0.1143 -0.0105
  823loPI   C5A11477   3.219  12.902   8.407 -0.0406  0.0590  0.0870
  823loPI   C6A11478   3.427  13.178   8.670 -0.0422 -0.1440 -0.1499
  823loPI   C1B11479   2.839  13.014   6.701  0.1317  0.0972  0.0507
  823loPI   C2B11480   2.833  12.950   7.171 -0.0291  0.0421  0.0245
  823loPI   C3B11481   2.775  12.957   7.552 -0.1189  0.3200  0.0863
  823loPI   C4B11482   2.917  13.025   7.995  0.2155 -0.3186  0.2936
  824loPI    C111483   8.771  13.421   6.064  0.0487  0.0463 -0.0464
  824loPI    C211484   8.948  13.323   5.719  0.0766 -0.0645 -0.0011
  824loPI    C311485   8.593  13.165   5.813 -0.0153  0.1035 -0.0600
  824loPI   PO411486   8.982  13.588   6.199  0.3950  0.2602 -0.3664
  824loPI   GL111487   8.985  13.768   6.618  0.1011 -0.1686  0.1679
  824loPI   GL211488   8.633  13.908   6.713 -0.2312 -0.2338 -0.2526
  824loPI   C1A11489   9.106  13.688   7.006  0.1053  0.3500 -0.1312
  824loPI   C2A11490   9.045  13.647   7.407  0.0447  0.2909  0.2076
  824loPI   C3A11491   8.681  13.686   7.744 -0.2160 -0.3196  0.0878
  824loPI   C4A11492   8.484  14.043   8.058 -0.3069 -0.0388 -0.1855
  824loPI   C5A11493   8.239  14.365   8.240 -0.1117 -0.1633  0.0013
  824loPI   C6A11494   8.154  14.785   8.199 -0.2056  0.2105 -0.2200
  824loPI   C1B11495   8.570  13.884   7.137  0.4797  0.3455 -0.0266
  824loPI   C2B11496   8.380  14.010   7.541 -0.1922 -0.0630  0.4497
  824loPI   C3B11497   8.027  13.949   7.743 -0.1207 -0.0877  0.0985
  824loPI   C4B11498   7.943  14.018   8.144  0.0106 -0.1561 -0.0427
  825loPI    C111499  10.648  14.546   5.718 -0.3040 -0.0489  0.1415
  825loPI    C211500  10.380  14.562   5.421 -0.1413 -0.0205 -0.0053
  825loPI    C311501  10.679  14.297   5.407  0.0531  0.1964 -0.0256
  825loPI   PO411502  10.556  14.617   5.917  0.0372  0.2296 -0.0694
  825loPI   GL111503  10.296  14.890   6.245  0.0253  0.0271 -0.2495
  825loPI   GL211504  10.398  15.152   6.536 -0.0645  0.1092  0.0207
  825loPI   C1A11505  10.296  14.684   6.677  0.1084  0.0893 -0.1571
  825loPI   C2A11506  10.349  14.163   6.824  0.1849  0.0683  0.1477
  825loPI   C3A11507  10.454  14.062   7.167  0.0934  0.2403  0.4202
  825loPI   C4A11508  10.602  14.056   7.641  0.1211  0.1300 -0.2342
  825loPI   C5A11509  10.665  13.832   7.997  0.2912  0.0069  0.0770
  825loPI   C6A11510  10.273  13.817   8.369 -0.2149 -0.0981 -0.2547
  825loPI   C1B11511  10.551  15.149   6.963 -0.1766 -0.1585 -0.0862
  825loPI   C2B11512  10.729  15.223   7.413 -0.0684  0.3301 -0.2258
  825loPI   C3B11513  10.800  15.262   7.875  0.0351  0.2861  0.0549
  825loPI   C4B11514  10.860  15.286   8.225 -0.1114  0.1406 -0.0626
  826loPI    C111515   4.454   2.239   5.662  0.0644  0.0332 -0.1148
  826loPI    C211516   4.103   2.054   5.617  0.1812 -0.2210  0.0022
  826loPI    C311517   4.113   2.443   5.706 -0.0659 -0.1304 -0.3469
  826loPI   PO411518   4.549   2.084   5.869  0.2506 -0.1085 -0.0861
  826loPI   GL111519   4.734   2.083   6.264 -0.1788 -0.0390 -0.1730
  826loPI   GL211520   5.134   1.900   6.407  0.1542 -0.5116  0.2297
  826loPI   C1A11521   4.642   2.352   6.621  0.1930  0.1067  0.0213
  826loPI   C2A11522   4.438   2.535   7.023  0.0546  0.0303 -0.0203
  826loPI   C3A11523   4.521   2.640   7.246 -0.1116 -0.2802  0.3425
  826loPI   C4A11524   4.513   2.649   7.645  0.0254 -0.0536  0.3660
  826loPI   C5A11525   4.351   2.622   8.006  0.0854  0.1714  0.2434
  826loPI   C6A11526   4.494   2.308   8.336 -0.0487  0.1238 -0.1473
  826loPI   C1B11527   4.947   2.027   6.763 -0.2619  0.0578  0.3207
  826loPI   C2B11528   4.752   2.144   7.179 -0.0606 -0.0099 -0.0788
  826loPI   C3B11529   4.860   2.137   7.530  0.1485 -0.0944 -0.0462
  826loPI   C4B11530   4.816   2.285   7.894  0.1497 -0.2547  0.0451
  827loPI    C111531   4.466  11.827   5.786 -0.1177  0.3249  0.0322
  827loPI    C211532   4.828  11.836   5.617 -0.1139 -0.0205  0.0171
  827loPI    C311533   4.503  11.777   5.391 -0.1435 -0.0984  0.0798
  827loPI   PO411534   4.531  11.997   5.991  0.0835  0.1665 -0.0140
  827loPI   GL111535   4.501  11.994   6.312 -0.1960 -0.1831 -0.2495
  827loPI   GL211536   4.269  11.792   6.421  0.1143 -0.0516 -0.0591
  827loPI   C1A11537   4.798  12.229   6.674 -0.3297 -0.0618  0.2889
  827loPI   C2A11538   4.854  12.030   6.950  0.0477 -0.2911 -0.0342
  827loPI   C3A11539   4.850  12.035   7.386  0.2372 -0.0679 -0.1279
  827loPI   C4A11540   4.839  11.971   7.783 -0.0312 -0.0320 -0.0472
  827loPI   C5A11541   4.809  11.998   8.228 -0.0879  0.0207  0.2021
  827loPI   C6A11542   4.742  11.543   8.430 -0.0848 -0.1042  0.0651
  827loPI   C1B11543   4.415  11.820   6.816  0.2883  0.2218 -0.2572
  827loPI   C2B11544   4.425  11.785   7.202 -0.2573  0.0043 -0.1730
  827loPI   C3B11545   4.516  11.628   7.590 -0.2162  0.0111  0.3938
  827loPI   C4B11546   4.442  11.583   8.070 -0.0235  0.0788 -0.1645
  828loPI    C111547   6.478   9.670   5.737  0.1037  0.0166  0.1517
  828loPI    C211548   6.383   9.547   5.368 -0.0774  0.2279  0.1260
  828loPI    C311549   6.164   9.429   5.681  0.1919 -0.1090  0.1931
  828loPI   PO411550   6.655   9.575   5.798  0.1529 -0.2276 -0.2468
  828loPI   GL111551   6.868   9.507   6.097  0.2195 -0.1315 -0.3744
  828loPI   GL211552   7.079   9.642   6.274 -0.2171  0.1021  0.1815
  828loPI   C1A11553   6.812   9.204   6.469  0.1440 -0.2140  0.1744
  828loPI   C2A11554   6.730   9.053   6.880 -0.0111  0.2803 -0.0064
  828loPI   C3A11555   6.747   9.047   7.320  0.3061  0.0462  0.1455
  828loPI   C4A11556   6.580   8.773   7.726  0.0964  0.0524 -0.0096
  828loPI   C5A11557   6.794   8.795   8.113  0.2277  0.1137 -0.2195
  828loPI   C6A11558   7.008   8.422   8.299 -0.0546 -0.2851 -0.0227
  828loPI   C1B11559   6.777   9.665   6.590  0.0506  0.0934 -0.0056
  828loPI   C2B11560   6.766   9.543   6.954  0.2492  0.1802  0.2126
  828loPI   C3B11561   6.861   9.529   7.483  0.2865 -0.1300 -0.0325
  828loPI   C4B11562   6.986   9.645   7.912 -0.1129 -0.2217  0.0718
  829loPI    C111563  12.380  13.449   5.472 -0.3416 -0.0665 -0.0524
  829loPI    C211564  12.044  13.509   5.264 -0.1847  0.0356 -0.2806
  829loPI    C311565  12.399  13.536   5.082 -0.0458  0.0755 -0.0093
  829loPI   PO411566  12.325  13.217   5.639 -0.0180 -0.0444  0.2751
  829loPI   GL111567  12.396  13.088   6.042  0.1164 -0.1843  0.1839
  829loPI   GL211568  12.272  12.799   6.126  0.1322  0.1029 -0.0697
  829loPI   C1A11569  12.448  13.255   6.405  0.0693  0.1167  0.0043
  829loPI   C2A11570  12.176  13.421   6.790 -0.1474  0.2017  0.4989
  829loPI   C3A11571  12.252  13.481   7.218 -0.0771  0.0492 -0.1633
  829loPI   C4A11572  12.255  13.342   7.653  0.0805  0.1089  0.1306
  829loPI   C5A11573  11.988  13.593   8.024  0.1357 -0.1149 -0.0390
  829loPI   C6A11574  11.976  13.811   8.352  0.1461 -0.1878  0.0960
  829loPI   C1B11575  12.160  12.384   6.359 -0.3951 -0.1207  0.0466
  829loPI   C2B11576  12.066  12.056   6.678  0.1453  0.2337  0.1292
  829loPI   C3B11577  12.188  12.002   7.084 -0.0620  0.0388 -0.4264
  829loPI   C4B11578  12.034  12.160   7.454  0.0165 -0.0488  0.2774
  830loPI    C111579   3.749   2.788   5.855  0.2117  0.0214  0.1841
  830loPI    C211580   3.646   3.102   6.080  0.0607  0.0843  0.0299
  830loPI    C311581   3.819   3.159   5.724  0.2714 -0.0142  0.1144
  830loPI   PO411582   3.881   2.623   6.135  0.0886  0.1566 -0.2038
  830loPI   GL111583   3.666   2.688   6.508  0.3757 -0.1917  0.0617
  830loPI   GL211584   3.551   2.942   6.604  0.2488 -0.0664  0.0163
  830loPI   C1A11585   3.867   2.635   6.886 -0.1144  0.5130 -0.0896
  830loPI   C2A11586   3.954   2.611   7.231  0.1485 -0.0672 -0.2280
  830loPI   C3A11587   4.008   2.593   7.674  0.1415  0.1749  0.4686
  830loPI   C4A11588   3.883   2.725   8.044  0.0444  0.0534 -0.1168
  830loPI   C5A11589   3.679   2.810   8.373  0.2602 -0.0182 -0.0091
  830loPI   C6A11590   3.776   2.737   8.809 -0.0159  0.2130 -0.1073
  830loPI   C1B11591   3.749   3.130   6.890 -0.2936 -0.1208  0.1162
  830loPI   C2B11592   3.676   3.014   7.286 -0.2728 -0.1871 -0.0588
  830loPI   C3B11593   3.701   3.055   7.647  0.3018  0.0326  0.0036
  830loPI   C4B11594   3.558   3.130   8.017 -0.2233  0.2031 -0.0426
  831loPI    C111595  16.829   2.216   5.574 -0.4532 -0.0174 -0.3054
  831loPI    C211596  16.536   2.272   5.840 -0.1297  0.2189  0.0107
  831loPI    C311597  16.565   2.511   5.521 -0.3098  0.1607 -0.0503
  831loPI   PO411598  17.040   2.125   5.701 -0.1030  0.0181 -0.0949
  831loPI   GL111599  16.974   2.237   6.107  0.0361 -0.0890  0.1964
  831loPI   GL211600  17.293   2.112   6.233  0.1307  0.0442 -0.1589
  831loPI   C1A11601  16.810   2.269   6.420 -0.0565  0.0503  0.0802
  831loPI   C2A11602  16.924   2.230   6.804 -0.0067  0.0630  0.2177
  831loPI   C3A11603  16.866   2.168   7.270  0.1326  0.1288  0.1992
  831loPI   C4A11604  16.817   1.997   7.669 -0.0103 -0.0468 -0.0496
  831loPI   C5A11605  16.671   2.059   8.048 -0.0638 -0.1273 -0.0494
  831loPI   C6A11606  16.632   1.855   8.403  0.0073 -0.1505 -0.2656
  831loPI   C1B11607  17.441   2.014   6.660 -0.1789  0.1650 -0.0939
  831loPI   C2B11608  17.423   2.118   7.082  0.1839  0.1929 -0.1787
  831loPI   C3B11609  17.334   2.104   7.558  0.0433  0.0520 -0.1782
  831loPI   C4B11610  17.151   1.975   7.978 -0.2385 -0.0084  0.1384
  832loPI    C111611  15.634  11.101   5.586  0.0748  0.1986  0.0697
  832loPI    C211612  15.513  11.022   5.213 -0.0123  0.0448  0.1294
  832loPI    C311613  15.423  11.373   5.383 -0.0266  0.0903  0.0286
  832loPI   PO411614  15.461  10.852   5.734 -0.3535  0.0499  0.2667
  832loPI   GL111615  15.433  10.698   6.198  0.3899 -0.0487 -0.0574
  832loPI   GL211616  15.097  10.894   6.048  0.1188 -0.0718 -0.1631
  832loPI   C1A11617  15.333  10.603   6.577 -0.0755  0.4062 -0.1005
  832loPI   C2A11618  15.287  10.548   7.005  0.0306  0.0503 -0.1330
  832loPI   C3A11619  15.331  10.661   7.466  0.0933 -0.0609 -0.1709
  832loPI   C4A11620  15.105  10.683   7.809 -0.1098  0.0709  0.1117
  832loPI   C5A11621  15.088  10.405   8.208 -0.1586 -0.0693 -0.0419
  832loPI   C6A11622  14.851  10.540   8.542  0.1267 -0.2226 -0.0982
  832loPI   C1B11623  15.012  11.104   6.404  0.0966 -0.2218  0.1270
  832loPI   C2B11624  15.130  11.072   6.736 -0.0035 -0.0633  0.0438
  832loPI   C3B11625  15.162  11.067   7.100 -0.0096  0.0655  0.0058
  832loPI   C4B11626  15.036  11.131   7.592  0.0824  0.0819 -0.3004
  833loPI    C111627   3.073  12.936   5.417  0.0005  0.0545 -0.1661
  833loPI    C211628   3.319  13.252   5.416  0.0175  0.0437  0.0600
  833loPI    C311629   3.468  12.882   5.384  0.0114  0.0489 -0.0310
  833loPI   PO411630   2.954  12.924   5.654  0.0914 -0.1525 -0.1919
  833loPI   GL111631   2.733  13.096   6.007 -0.0642  0.0190  0.0161
  833loPI   GL211632   2.534  13.395   6.069 -0.2284  0.2088 -0.1375
  833loPI   C1A11633   2.538  12.728   6.397  0.0192 -0.0544 -0.1153
  833loPI   C2A11634   2.437  12.325   6.474  0.1547  0.0930  0.0416
  833loPI   C3A11635   2.471  12.032   6.782  0.3165 -0.3858 -0.1667
  833loPI   C4A11636   2.153  11.983   7.051 -0.1113  0.0536 -0.0137
  833loPI   C5A11637   1.834  12.030   7.424  0.1758  0.0355 -0.1170
  833loPI   C6A11638   1.616  12.196   7.736  0.0063  0.0248 -0.1116
  833loPI   C1B11639   2.405  13.210   6.537  0.1926 -0.0624 -0.4376
  833loPI   C2B11640   2.395  12.881   6.947  0.3092  0.4352  0.0737
  833loPI   C3B11641   2.350  12.802   7.329  0.1073  0.0754  0.1428
  833loPI   C4B11642   2.361  12.830   7.755 -0.1658  0.1610 -0.2463
  834loPI    C111643   6.462  16.659   5.667  0.0637 -0.0479  0.1176
  834loPI    C211644   6.844  16.604   5.775  0.1069  0.1826  0.0878
  834loPI    C311645   6.751  16.880   5.500 -0.0803  0.1160  0.0824
  834loPI   PO411646   6.364  16.717   5.896  0.2757  0.0446 -0.0886
  834loPI   GL111647   6.377  16.657   6.370 -0.0322 -0.2719 -0.0729
  834loPI   GL211648   6.361  16.252   6.556  0.0151 -0.0402 -0.2142
  834loPI   C1A11649   6.272  16.731   6.738 -0.0531 -0.1991  0.3094
  834loPI   C2A11650   6.197  16.786   7.175  0.0504  0.0979  0.2239
  834loPI   C3A11651   6.202  16.670   7.673 -0.0325 -0.1034 -0.1072
  834loPI   C4A11652   6.120  16.601   8.120  0.2380 -0.2591  0.2639
  834loPI   C5A11653   6.376  16.421   8.425 -0.1185 -0.0799  0.0366
  834loPI   C6A11654   6.173  16.033   8.432  0.2137  0.1372  0.1971
  834loPI   C1B11655   6.386  16.331   6.950 -0.1848 -0.0800  0.2105
  834loPI   C2B11656   6.287  16.282   7.312 -0.0887  0.1592  0.0853
  834loPI   C3B11657   5.926  16.171   7.617 -0.0279 -0.1902 -0.1200
  834loPI   C4B11658   5.830  16.132   8.020  0.0555 -0.1026  0.1891
  835loPI    C111659   7.124  13.144   6.002  0.0456 -0.1986  0.1919
  835loPI    C211660   7.362  13.440   5.877 -0.2386 -0.0687 -0.0504
  835loPI    C311661   7.308  13.117   5.648  0.2485 -0.4193  0.3112
  835loPI   PO411662   7.111  13.211   6.281  0.0850  0.0058 -0.1143
  835loPI   GL111663   6.755  13.159   6.731  0.0165  0.2001  0.2649
  835loPI   GL211664   6.786  12.837   6.811 -0.0102 -0.0784 -0.1675
  835loPI   C1A11665   6.654  13.203   7.122 -0.1858  0.1486 -0.3088
  835loPI   C2A11666   6.723  13.231   7.611 -0.2616 -0.0660  0.2196
  835loPI   C3A11667   6.764  13.200   7.976  0.2920  0.2881 -0.0165
  835loPI   C4A11668   6.663  13.127   8.384 -0.1089 -0.0726  0.0890
  835loPI   C5A11669   6.445  13.064   8.704 -0.1234 -0.5475  0.0659
  835loPI   C6A11670   6.479  13.173   9.084  0.0679  0.1431  0.1832
  835loPI   C1B11671   6.868  12.748   7.073 -0.1211 -0.1507  0.1482
  835loPI   C2B11672   6.893  12.784   7.419 -0.1135  0.0354  0.1715
  835loPI   C3B11673   6.739  12.713   7.841 -0.0714  0.0360 -0.0121
  835loPI   C4B11674   6.549  12.475   8.189 -0.1236  0.0969  0.0313
  836loPI    C111675  14.805  10.696   5.577  0.0257 -0.0564  0.0227
  836loPI    C211676  15.063  10.993   5.508 -0.0106  0.0245  0.2275
  836loPI    C311677  14.793  10.894   5.230  0.0354  0.1483  0.1376
  836loPI   PO411678  14.916  10.532   5.763  0.2732  0.0280  0.1117
  836loPI   GL111679  14.901  10.497   6.237  0.0560 -0.1856  0.1024
  836loPI   GL211680  15.153  10.246   6.225 -0.2131 -0.1014  0.2443
  836loPI   C1A11681  14.833  10.584   6.744 -0.3308 -0.1865 -0.0100
  836loPI   C2A11682  14.855  10.642   7.202  0.4173  0.1736 -0.1362
  836loPI   C3A11683  14.611  10.846   7.589 -0.2203  0.1476 -0.0242
  836loPI   C4A11684  14.672  10.988   7.980  0.1652 -0.3263  0.1615
  836loPI   C5A11685  14.645  11.076   8.433  0.1568  0.0295  0.0484
  836loPI   C6A11686  14.757  11.006   8.864 -0.0690  0.1555 -0.0251
  836loPI   C1B11687  15.114  10.150   6.606  0.1144  0.1422  0.1321
  836loPI   C2B11688  14.992  10.144   7.006 -0.1613  0.0683 -0.2688
  836loPI   C3B11689  15.072  10.205   7.408 -0.0068 -0.1071  0.1195
  836loPI   C4B11690  14.852  10.210   7.808  0.0024 -0.2088  0.1222
  837loPI    C111691  14.178   6.679   5.531 -0.0688  0.0171  0.0619
  837loPI    C211692  14.487   6.914   5.433 -0.0206  0.0385  0.2610
  837loPI    C311693  14.510   6.519   5.376 -0.1189  0.0834 -0.1162
  837loPI   PO411694  14.068   6.791   5.758 -0.0195 -0.0563  0.0617
  837loPI   GL111695  14.011   6.596   6.205  0.1418  0.0232 -0.3797
  837loPI   GL211696  13.880   6.694   6.425  0.3550 -0.1159 -0.2165
  837loPI   C1A11697  14.277   6.486   6.667 -0.0552  0.1203  0.0243
  837loPI   C2A11698  14.338   6.372   7.105 -0.0314 -0.1413 -0.3347
  837loPI   C3A11699  14.174   6.319   7.567  0.0971  0.1192  0.0072
  837loPI   C4A11700  14.159   6.570   7.911  0.0123 -0.0418  0.0900
  837loPI   C5A11701  13.896   6.606   8.240  0.2552  0.0827 -0.2744
  837loPI   C6A11702  13.635   6.410   8.531  0.0326  0.3770  0.2163
  837loPI   C1B11703  13.724   6.687   6.846  0.0548  0.1354 -0.1812
  837loPI   C2B11704  13.570   6.880   7.143  0.1952 -0.3785  0.0201
  837loPI   C3B11705  13.394   7.157   7.530 -0.1276  0.2311  0.0104
  837loPI   C4B11706  13.263   7.442   7.831 -0.0208  0.0293 -0.0581
  838loPI    C111707   5.301   0.875   6.002 -0.1221 -0.0300 -0.2812
  838loPI    C211708   5.019   1.149   6.075 -0.3167 -0.3186  0.0865
  838loPI    C311709   5.055   0.992   5.709 -0.3558  0.0219 -0.0677
  838loPI   PO411710   5.291   0.715   6.186  0.0615 -0.1625 -0.0471
  838loPI   GL111711   4.978   0.494   6.490  0.2718 -0.2169 -0.1149
  838loPI   GL211712   4.871   0.872   6.431 -0.0410 -0.2440 -0.1210
  838loPI   C1A11713   4.860   0.639   6.988  0.0700 -0.0865 -0.0944
  838loPI   C2A11714   4.582   0.620   7.432  0.0060  0.0888  0.0616
  838loPI   C3A11715   4.500   0.468   7.867  0.0197 -0.0729  0.0890
  838loPI   C4A11716   4.434   0.463   8.318 -0.0708  0.1119 -0.0138
  838loPI   C5A11717   4.311   0.646   8.726 -0.1530 -0.0850  0.1322
  838loPI   C6A11718   4.514   0.898   9.068 -0.3216  0.1991  0.3769
  838loPI   C1B11719   5.093   1.056   6.656 -0.1171 -0.0730  0.1010
  838loPI   C2B11720   5.013   1.197   7.118  0.1272 -0.1844 -0.2796
  838loPI   C3B11721   5.010   1.291   7.598 -0.2144 -0.0689  0.1147
  838loPI   C4B11722   4.921   1.469   7.950  0.2109 -0.0373 -0.2750
  839loPI    C111723  11.989   8.462   5.935 -0.2192  0.0945  0.0782
  839loPI    C211724  12.170   8.682   6.215  0.0338  0.1466 -0.1224
  839loPI    C311725  12.114   8.833   5.849 -0.0896 -0.0030 -0.1660
  839loPI   PO411726  11.787   8.383   6.028  0.1636 -0.0295  0.0724
  839loPI   GL111727  11.785   8.094   6.373  0.0723 -0.0648  0.3084
  839loPI   GL211728  11.876   8.324   6.585  0.3038  0.1111 -0.4733
  839loPI   C1A11729  11.517   7.973   6.671 -0.2131 -0.2387  0.0413
  839loPI   C2A11730  11.297   7.920   7.037  0.0160 -0.0970 -0.2604
  839loPI   C3A11731  11.260   8.090   7.405  0.2928  0.1537 -0.0586
  839loPI   C4A11732  11.134   8.113   7.859 -0.1756  0.0150  0.1301
  839loPI   C5A11733  11.137   8.021   8.313 -0.3298 -0.2665  0.3011
  839loPI   C6A11734  11.124   7.872   8.719  0.3275 -0.1191  0.3346
  839loPI   C1B11735  12.117   8.520   6.890 -0.2378  0.2161 -0.1783
  839loPI   C2B11736  12.239   8.845   7.149  0.0714  0.0353  0.1644
  839loPI   C3B11737  12.037   9.263   7.212 -0.2620  0.1416  0.0161
  839loPI   C4B11738  11.777   9.439   7.568 -0.2965  0.5342  0.1399
  840loPI    C111739  12.861   1.953   5.892  0.1716  0.2050 -0.1444
  840loPI    C211740  13.260   1.976   5.896  0.1784  0.0928 -0.1441
  840loPI    C311741  13.072   1.815   5.582  0.1537 -0.2016  0.0182
  840loPI   PO411742  12.789   2.176   6.007 -0.0945 -0.0828 -0.5834
  840loPI   GL111743  12.665   2.162   6.406  0.1366  0.0686  0.0633
  840loPI   GL211744  12.421   2.329   6.368  0.2941  0.1548  0.2314
  840loPI   C1A11745  12.897   1.901   6.688  0.0715 -0.1446  0.4051
  840loPI   C2A11746  12.959   2.054   7.182 -0.0714 -0.2510  0.1171
  840loPI   C3A11747  13.126   2.024   7.631  0.0111  0.0576 -0.1185
  840loPI   C4A11748  13.060   2.144   7.978 -0.2833  0.0938  0.0800
  840loPI   C5A11749  12.907   2.167   8.399 -0.2726 -0.6400 -0.3105
  840loPI   C6A11750  12.754   2.294   8.730  0.2496  0.1321  0.1099
  840loPI   C1B11751  12.410   2.303   6.836  0.0298  0.0619  0.2534
  840loPI   C2B11752  12.549   2.347   7.219  0.0208  0.0883 -0.4293
  840loPI   C3B11753  12.649   2.375   7.631  0.0877 -0.0238 -0.0965
  840loPI   C4B11754  12.523   2.297   8.036 -0.0082  0.0196  0.0155
  841loPI    C111755  17.400   9.904   5.701  0.0141  0.2816 -0.0063
  841loPI    C211756  17.619   9.698   5.437  0.0479  0.2336  0.0587
  841loPI    C311757  17.293   9.896   5.316 -0.0773  0.0079  0.0226
  841loPI   PO411758  17.544  10.051   5.872  0.0818  0.1281  0.0066
  841loPI   GL111759  17.456  10.230   6.232  0.0275 -0.0794 -0.1285
  841loPI   GL211760  17.774  10.013   6.387 -0.0815  0.1046  0.1268
  841loPI   C1A11761  17.169  10.218   6.480  0.0122 -0.0645 -0.3311
  841loPI   C2A11762  17.069   9.996   6.874  0.1543  0.0392 -0.0786
  841loPI   C3A11763  17.317  10.040   7.259  0.2600 -0.0488  0.2705
  841loPI   C4A11764  17.547  10.293   7.557  0.3547 -0.0425 -0.2946
  841loPI   C5A11765  17.856  10.374   7.874  0.0593 -0.0197  0.0906
  841loPI   C6A11766  18.304  10.204   7.904 -0.2972 -0.4053 -0.2808
  841loPI   C1B11767  17.587  10.006   6.740  0.1084  0.0957  0.0095
  841loPI   C2B11768  17.772  10.179   7.096 -0.3019  0.2222  0.1732
  841loPI   C3B11769  18.090  10.238   7.450  0.1892 -0.4282 -0.3004
  841loPI   C4B11770  18.506  10.168   7.464 -0.0861 -0.0167  0.0777
  842loPI    C111771   1.117   8.108   5.656 -0.0342  0.1618 -0.1780
  842loPI    C211772   0.928   8.449   5.745  0.0033  0.0806  0.2289
  842loPI    C311773   0.722   8.139   5.600 -0.0611  0.2140  0.0318
  842loPI   PO411774   1.225   8.031   5.944  0.1620 -0.3082 -0.0811
  842loPI   GL111775   1.077   8.197   6.454 -0.0720 -0.2828 -0.0944
  842loPI   GL211776   1.215   8.544   6.592  0.0687 -0.1792  0.0082
  842loPI   C1A11777   0.918   8.127   6.852  0.0665  0.0128  0.1040
  842loPI   C2A11778   0.871   8.230   7.330 -0.0703  0.0522 -0.0667
  842loPI   C3A11779   0.809   8.018   7.679  0.0814 -0.1722 -0.0758
  842loPI   C4A11780   0.532   7.918   8.005 -0.3305  0.0257 -0.3243
  842loPI   C5A11781   0.393   7.987   8.359 -0.1245 -0.0444  0.2028
  842loPI   C6A11782   0.273   7.608   8.594  0.0166  0.2381  0.2457
  842loPI   C1B11783   1.175   8.530   6.989 -0.0973 -0.1988 -0.1182
  842loPI   C2B11784   1.210   8.579   7.415  0.1782  0.3824 -0.1791
  842loPI   C3B11785   1.134   8.425   7.776  0.2504 -0.0764  0.0865
  842loPI   C4B11786   1.090   8.557   8.183 -0.1938  0.2179 -0.0584
  843loPI    C111787   4.540   9.050   6.005 -0.1141  0.1144  0.1896
  843loPI    C211788   4.342   9.147   5.672  0.3334  0.0863 -0.0932
  843loPI    C311789   4.203   8.857   5.910 -0.1001  0.2476 -0.1417
  843loPI   PO411790   4.639   9.350   6.054 -0.0173  0.1639 -0.2817
  843loPI   GL111791   4.910   9.281   6.346 -0.1684 -0.1338  0.1215
  843loPI   GL211792   4.959   9.029   6.282 -0.1165 -0.1380 -0.1230
  843loPI   C1A11793   4.826   9.353   6.726 -0.0212  0.0979 -0.1390
  843loPI   C2A11794   4.726   9.455   7.103 -0.3184  0.3188  0.0505
  843loPI   C3A11795   4.710   9.577   7.539  0.1857  0.1194  0.1215
  843loPI   C4A11796   4.817   9.489   7.984 -0.1940  0.1798 -0.0485
  843loPI   C5A11797   4.832   9.641   8.405  0.0606 -0.1220  0.0331
  843loPI   C6A11798   5.082   9.637   8.677 -0.0278 -0.0005  0.1030
  843loPI   C1B11799   4.629   8.911   6.514  0.1713 -0.2190 -0.0107
  843loPI   C2B11800   4.637   8.943   7.048 -0.0717 -0.1487  0.3364
  843loPI   C3B11801   4.739   9.029   7.417 -0.1117 -0.1130 -0.1059
  843loPI   C4B11802   4.668   9.005   7.866 -0.1160 -0.0401  0.3581
  844loPI    C111803  13.448  17.492   5.800  0.1582 -0.2495 -0.1355
  844loPI    C211804  13.779  17.475   5.576  0.1857  0.0389 -0.1207
  844loPI    C311805  13.429  17.571   5.408  0.1608  0.0099 -0.0855
  844loPI   PO411806  13.496  17.272   5.995  0.4359 -0.0939  0.2699
  844loPI   GL111807  13.532  17.043   6.264  0.0671 -0.0027 -0.2999
  844loPI   GL211808  13.790  16.789   6.069 -0.0271  0.0648 -0.2166
  844loPI   C1A11809  13.642  16.961   6.615 -0.0336 -0.3105 -0.1311
  844loPI   C2A11810  13.568  16.918   7.039 -0.1094 -0.1408 -0.1087
  844loPI   C3A11811  13.501  16.762   7.396 -0.0250  0.1920 -0.0524
  844loPI   C4A11812  13.260  16.790   7.795  0.0088  0.0100 -0.1154
  844loPI   C5A11813  12.794  16.764   7.714  0.0910 -0.1492 -0.2779
  844loPI   C6A11814  12.531  16.641   7.873 -0.0518 -0.1046 -0.1943
  844loPI   C1B11815  14.118  16.810   6.389 -0.0344 -0.3380  0.0797
  844loPI   C2B11816  14.116  16.878   6.746 -0.1372  0.1264 -0.0433
  844loPI   C3B11817  14.063  16.857   7.146 -0.0036  0.0227  0.1628
  844loPI   C4B11818  13.920  17.065   7.488  0.2986 -0.3649 -0.1011
  845loPI    C111819   2.722   5.192   6.167  0.1558  0.1720  0.0989
  845loPI    C211820   2.943   5.220   5.835 -0.0542 -0.1390 -0.0724
  845loPI    C311821   2.548   5.280   5.817 -0.0679 -0.1659  0.1200
  845loPI   PO411822   2.803   4.926   6.306 -0.1375  0.0227  0.2161
  845loPI   GL111823   2.852   4.748   6.626 -0.0390 -0.2069  0.0641
  845loPI   GL211824   3.092   5.046   6.660  0.1296  0.0570 -0.0605
  845loPI   C1A11825   3.253   4.470   6.761 -0.2974  0.3282 -0.1177
  845loPI   C2A11826   3.248   4.353   7.163  0.0148 -0.0655 -0.0649
  845loPI   C3A11827   3.364   4.436   7.634  0.1713  0.1788  0.0854
  845loPI   C4A11828   3.364   4.497   8.063 -0.1027 -0.1463  0.0605
  845loPI   C5A11829   3.499   4.431   8.484  0.1898  0.0171  0.1720
  845loPI   C6A11830   3.320   4.697   8.683  0.0069  0.3704 -0.2608
  845loPI   C1B11831   3.031   4.837   7.100  0.1252  0.1870 -0.3830
  845loPI   C2B11832   3.077   4.919   7.516 -0.0677  0.3179  0.0357
  845loPI   C3B11833   2.990   4.965   7.929 -0.5210  0.2357 -0.2366
  845loPI   C4B11834   2.912   4.867   8.350 -0.3432  0.0211  0.2043
  846loPI    C111835   7.167   4.700   5.458  0.0435 -0.0420  0.0817
  846loPI    C211836   6.948   4.996   5.302  0.0608 -0.0934 -0.0412
  846loPI    C311837   7.288   4.885   5.124  0.1301 -0.0886  0.0871
  846loPI   PO411838   7.029   4.721   5.722  0.1564  0.1630  0.1652
  846loPI   GL111839   7.174   4.786   6.153  0.0808 -0.2986 -0.1584
  846loPI   GL211840   7.064   5.134   6.123 -0.1932 -0.0349 -0.1172
  846loPI   C1A11841   7.380   4.703   6.670  0.1059 -0.2524 -0.4297
  846loPI   C2A11842   7.392   4.653   7.107 -0.0475  0.1179 -0.2225
  846loPI   C3A11843   7.446   4.859   7.430  0.0634 -0.0478  0.0302
  846loPI   C4A11844   7.471   4.893   7.847 -0.0738  0.2218  0.0370
  846loPI   C5A11845   7.280   5.192   8.065 -0.0483 -0.1386  0.1506
  846loPI   C6A11846   7.380   5.338   8.457 -0.0836  0.2739 -0.2640
  846loPI   C1B11847   6.937   5.326   6.545 -0.0365 -0.1175 -0.0105
  846loPI   C2B11848   6.878   5.381   7.046  0.4160  0.0481 -0.0346
  846loPI   C3B11849   6.720   5.435   7.516  0.1763 -0.0629  0.1356
  846loPI   C4B11850   6.759   5.294   8.022  0.0037  0.3128  0.0488
  847loPI    C111851   7.808  14.761   6.301 -0.0767 -0.0091  0.1816
  847loPI    C211852   7.946  15.134   6.346 -0.0594 -0.0107  0.1426
  847loPI    C311853   7.985  14.947   5.994 -0.1004 -0.0362  0.1514
  847loPI   PO411854   7.891  14.572   6.433 -0.0085 -0.1823  0.0339
  847loPI   GL111855   7.976  14.249   6.758  0.0714  0.0599  0.1129
  847loPI   GL211856   8.216  14.442   6.833  0.2149 -0.0302  0.3501
  847loPI   C1A11857   8.070  13.951   7.059  0.0595 -0.0020  0.1323
  847loPI   C2A11858   7.819  13.745   7.369 -0.1020  0.0211  0.1220
  847loPI   C3A11859   7.525  13.838   7.672  0.0215  0.1496 -0.2107
  847loPI   C4A11860   7.455  13.977   8.060  0.0611 -0.4352  0.3048
  847loPI   C5A11861   7.553  14.098   8.397  0.3665 -0.1402 -0.2431
  847loPI   C6A11862   7.536  14.188   8.818 -0.3074 -0.1834  0.2923
  847loPI   C1B11863   7.979  14.452   7.192  0.0302 -0.2458  0.1486
  847loPI   C2B11864   7.710  14.803   7.367  0.2587  0.1351 -0.0370
  847loPI   C3B11865   7.532  14.779   7.760  0.0963 -0.1551  0.0313
  847loPI   C4B11866   7.376  14.980   8.176 -0.1650  0.1058 -0.1345
  848loPI    C111867  13.954   5.148   5.706 -0.1577 -0.0267  0.0902
  848loPI    C211868  13.732   5.480   5.689  0.1291  0.1609 -0.0812
  848loPI    C311869  14.014   5.415   5.413  0.0676 -0.2335 -0.0557
  848loPI   PO411870  13.821   5.031   5.846 -0.3039  0.1405 -0.0546
  848loPI   GL111871  13.610   5.216   6.185 -0.2117  0.0031 -0.1081
  848loPI   GL211872  13.871   5.275   6.301  0.1385 -0.0768  0.4538
  848loPI   C1A11873  13.441   5.482   6.546  0.2969  0.1082 -0.2470
  848loPI   C2A11874  13.332   5.446   7.023 -0.1679 -0.2082 -0.1048
  848loPI   C3A11875  13.404   5.512   7.442 -0.0567 -0.1197 -0.0933
  848loPI   C4A11876  13.591   5.629   7.884 -0.0902 -0.1948  0.0509
  848loPI   C5A11877  13.599   5.421   8.294  0.1051  0.0759  0.0561
  848loPI   C6A11878  13.634   5.088   8.479  0.2407 -0.0357  0.3265
  848loPI   C1B11879  13.879   5.198   6.745 -0.1834  0.0340  0.0214
  848loPI   C2B11880  13.788   5.287   7.163 -0.3255 -0.3288  0.1875
  848loPI   C3B11881  13.880   5.396   7.541  0.3151 -0.2456  0.0541
  848loPI   C4B11882  14.093   5.500   7.942  0.0908  0.0118  0.0182
  849loPI    C111883   1.001   8.907   5.819 -0.1442 -0.1253 -0.0422
  849loPI    C211884   1.190   9.232   5.956 -0.1046 -0.2244  0.1418
  849loPI    C311885   1.256   9.104   5.583 -0.0859 -0.0481  0.0839
  849loPI   PO411886   0.736   9.000   5.939  0.1208 -0.1236  0.0207
  849loPI   GL111887   0.487   8.857   6.291 -0.0762 -0.0987 -0.1374
  849loPI   GL211888   0.192   8.784   6.300  0.1484 -0.2014  0.3267
  849loPI   C1A11889   0.463   9.067   6.617 -0.2527  0.1800 -0.1347
  849loPI   C2A11890   0.286   8.877   7.049  0.0423  0.2134 -0.1924
  849loPI   C3A11891   0.185   8.797   7.493 -0.1242  0.1219  0.2520
  849loPI   C4A11892   0.025   8.518   7.813  0.0106 -0.0873 -0.3283
  849loPI   C5A11893  -0.358   8.600   8.031 -0.4042 -0.0138  0.0366
  849loPI   C6A11894  -0.544   8.751   8.553  0.2912 -0.1966  0.2122
  849loPI   C1B11895   0.206   8.552   6.666  0.3177  0.3383 -0.0454
  849loPI   C2B11896   0.045   8.349   7.049  0.0634 -0.2016  0.0132
  849loPI   C3B11897  -0.202   8.319   7.402 -0.1008  0.0276 -0.0188
  849loPI   C4B11898  -0.405   8.156   7.766  0.1052  0.3366 -0.0172
  850loPI    C111899  15.807  12.794   5.627 -0.1673 -0.0418 -0.1630
  850loPI    C211900  16.005  12.457   5.542 -0.1024 -0.0643  0.0714
  850loPI    C311901  15.654  12.532   5.366  0.0838 -0.0507 -0.3044
  850loPI   PO411902  15.842  12.817   5.902 -0.2387 -0.0025  0.4038
  850loPI   GL111903  15.745  12.418   6.079  0.2621  0.0765  0.0721
  850loPI   GL211904  15.395  12.481   6.004 -0.2261 -0.1423  0.2573
  850loPI   C1A11905  15.918  12.535   6.484 -0.0103  0.0520  0.2462
  850loPI   C2A11906  16.013  12.733   6.784  0.2880 -0.1188 -0.1144
  850loPI   C3A11907  15.952  12.667   7.128  0.0895 -0.0211 -0.2859
  850loPI   C4A11908  15.929  12.838   7.684  0.2038 -0.1072  0.0758
  850loPI   C5A11909  16.035  13.090   8.050 -0.0274 -0.3654 -0.2238
  850loPI   C6A11910  15.772  13.360   8.251  0.2554 -0.1729  0.0152
  850loPI   C1B11911  15.404  12.644   6.469  0.4823 -0.3967  0.1150
  850loPI   C2B11912  15.517  12.643   6.834 -0.0998 -0.0737 -0.1526
  850loPI   C3B11913  15.403  12.731   7.274 -0.0286 -0.0047  0.1186
  850loPI   C4B11914  15.398  12.712   7.675  0.1144 -0.1355 -0.0076
  851loPI    C111915  13.554   2.537   5.688  0.0398 -0.0485 -0.1147
  851loPI    C211916  13.294   2.756   5.477 -0.0282  0.0654  0.0855
  851loPI    C311917  13.665   2.892   5.539 -0.0736  0.1310  0.2182
  851loPI   PO411918  13.382   2.451   5.970 -0.1794  0.0499  0.2234
  851loPI   GL111919  13.180   2.218   6.282 -0.0830 -0.0028 -0.1769
  851loPI   GL211920  13.048   2.501   6.381 -0.1034  0.1568  0.0460
  851loPI   C1A11921  13.293   2.275   6.742 -0.1612 -0.0406  0.1445
  851loPI   C2A11922  13.474   2.238   7.275 -0.2551 -0.1182  0.0524
  851loPI   C3A11923  13.427   2.427   7.615 -0.2626  0.1481 -0.1530
  851loPI   C4A11924  13.568   2.257   7.993  0.3180 -0.3945  0.0926
  851loPI   C5A11925  13.379   2.264   8.409 -0.1004  0.0818 -0.1130
  851loPI   C6A11926  13.557   2.455   8.782 -0.0097 -0.1760  0.0405
  851loPI   C1B11927  12.862   2.475   6.767 -0.1492  0.2431  0.2667
  851loPI   C2B11928  12.963   2.610   7.302 -0.0069 -0.0098 -0.1638
  851loPI   C3B11929  12.949   2.738   7.723  0.0635  0.1191  0.1421
  851loPI   C4B11930  13.045   2.593   8.035  0.0671 -0.1873 -0.1207
  852loPI    C111931  15.685  14.620   5.951  0.3224 -0.0332 -0.0656
  852loPI    C211932  15.738  14.356   5.655  0.0383 -0.1451 -0.0205
  852loPI    C311933  15.368  14.455   5.771  0.1465 -0.0579  0.2591
  852loPI   PO411934  16.014  14.500   6.012 -0.0905  0.0494 -0.1698
  852loPI   GL111935  16.239  14.749   6.199 -0.2665  0.2562  0.1396
  852loPI   GL211936  16.428  14.949   6.188  0.2263 -0.2049 -0.2448
  852loPI   C1A11937  16.103  14.823   6.641 -0.1420 -0.1010 -0.1415
  852loPI   C2A11938  15.910  14.639   7.033 -0.1034 -0.1566  0.0179
  852loPI   C3A11939  15.903  14.595   7.471 -0.1976 -0.1371 -0.3574
  852loPI   C4A11940  15.627  14.394   7.765 -0.0111 -0.0682  0.0736
  852loPI   C5A11941  15.374  14.429   8.179 -0.3681  0.0358  0.2076
  852loPI   C6A11942  14.980  14.467   8.225  0.2025  0.0419  0.2857
  852loPI   C1B11943  16.615  14.922   6.543  0.2266  0.1238  0.0834
  852loPI   C2B11944  16.808  14.768   6.868  0.3024 -0.1063  0.0314
  852loPI   C3B11945  16.773  14.721   7.285 -0.3260  0.0043 -0.0430
  852loPI   C4B11946  16.616  14.955   7.729  0.3574  0.1535 -0.0909
  853loPI    C111947   2.097  14.866   5.511 -0.1154 -0.1328  0.0801
  853loPI    C211948   1.984  15.082   5.194  0.0247 -0.0414  0.0919
  853loPI    C311949   2.260  15.225   5.446 -0.1083 -0.1001  0.2731
  853loPI   PO411950   2.207  14.655   5.494  0.1064 -0.1127 -0.1380
  853loPI   GL111951   2.351  14.631   5.902 -0.1019  0.1695  0.1790
  853loPI   GL211952   1.976  14.654   5.948 -0.1257  0.0871  0.1821
  853loPI   C1A11953   2.422  14.826   6.309  0.1753 -0.3225 -0.0813
  853loPI   C2A11954   2.110  14.888   6.692  0.0790  0.0937 -0.0119
  853loPI   C3A11955   1.948  15.083   7.079  0.2673  0.0733  0.2852
  853loPI   C4A11956   1.850  14.908   7.520 -0.1948  0.1144  0.1934
  853loPI   C5A11957   1.525  14.709   7.536 -0.1586 -0.0170  0.0936
  853loPI   C6A11958   1.264  14.386   7.392 -0.1557 -0.1763  0.3157
  853loPI   C1B11959   1.880  14.859   6.236 -0.0456  0.0242  0.1742
  853loPI   C2B11960   1.840  15.279   6.548 -0.0447 -0.0291  0.1003
  853loPI   C3B11961   1.945  15.679   6.736  0.0345 -0.2623  0.0523
  853loPI   C4B11962   2.012  15.841   7.170 -0.1925  0.0098 -0.0103
  854loPI    C111963   0.074   4.871   6.193  0.1976 -0.0278  0.0493
  854loPI    C211964   0.155   4.616   5.895  0.1117 -0.0856  0.0750
  854loPI    C311965   0.109   5.006   5.818 -0.1314 -0.1321 -0.0220
  854loPI   PO411966  -0.085   4.799   6.415 -0.3072  0.1405 -0.0576
  854loPI   GL111967  -0.200   4.446   6.682  0.0697 -0.0379  0.0750
  854loPI   GL211968   0.124   4.303   6.600  0.2676  0.2555  0.0071
  854loPI   C1A11969  -0.276   4.604   7.146  0.1956 -0.2156  0.1686
  854loPI   C2A11970  -0.231   4.550   7.496  0.1059 -0.3165  0.1822
  854loPI   C3A11971  -0.099   4.407   7.933 -0.2719 -0.1194  0.1751
  854loPI   C4A11972  -0.132   4.138   8.329  0.0329  0.0851  0.1595
  854loPI   C5A11973  -0.326   3.834   8.523  0.0678 -0.2518 -0.1905
  854loPI   C6A11974  -0.302   3.476   8.701 -0.0086 -0.1480 -0.4568
  854loPI   C1B11975   0.208   4.439   7.027 -0.2216  0.1222  0.0524
  854loPI   C2B11976   0.295   4.456   7.427  0.1375 -0.0780  0.0756
  854loPI   C3B11977   0.322   4.180   7.694  0.0462 -0.2974  0.1868
  854loPI   C4B11978   0.112   3.820   7.994  0.1450  0.2436  0.1167
  855loPI    C111979   2.678  10.848   5.875 -0.1754 -0.1570  0.1276
  855loPI    C211980   2.892  10.899   5.541 -0.1149 -0.0867  0.1768
  855loPI    C311981   2.885  10.542   5.722 -0.2229 -0.1498  0.0487
  855loPI   PO411982   2.521  11.068   5.882  0.0483 -0.2843 -0.2542
  855loPI   GL111983   2.305  11.252   6.302  0.0169 -0.1031  0.2114
  855loPI   GL211984   2.494  10.900   6.367 -0.1489 -0.0804  0.1464
  855loPI   C1A11985   2.044  11.192   6.629 -0.0176  0.1480 -0.3910
  855loPI   C2A11986   2.165  11.164   7.062  0.1045 -0.3586  0.0803
  855loPI   C3A11987   2.118  11.038   7.497  0.0610  0.0390  0.0257
  855loPI   C4A11988   2.059  11.104   7.970 -0.0048 -0.1802 -0.1028
  855loPI   C5A11989   2.360  11.088   8.253 -0.0791 -0.0170  0.3586
  855loPI   C6A11990   2.411  10.866   8.567 -0.1018 -0.1069 -0.0216
  855loPI   C1B11991   2.359  10.825   6.757 -0.0758 -0.0213 -0.0751
  855loPI   C2B11992   2.260  10.696   7.170 -0.0477  0.3937 -0.0222
  855loPI   C3B11993   2.164  10.570   7.584 -0.0064 -0.0310  0.1364
  855loPI   C4B11994   2.099  10.529   7.883  0.2579 -0.3917 -0.3693
  856loPI    C111995   2.069   7.457   5.709 -0.1812  0.2681 -0.2000
  856loPI    C211996   2.371   7.678   5.569  0.2095 -0.0717  0.0805
  856loPI    C311997   2.259   7.346   5.375  0.0316  0.0376 -0.0067
  856loPI   PO411998   2.093   7.412   5.931 -0.1152  0.1709 -0.1850
  856loPI   GL111999   2.140   7.536   6.371 -0.0906  0.0285 -0.3283
  856loPI   GL212000   2.493   7.602   6.522  0.1867 -0.2588  0.3812
  856loPI   C1A12001   2.043   7.864   6.778 -0.0328 -0.0998  0.1727
  856loPI   C2A12002   1.968   7.816   7.214 -0.3112  0.1495 -0.3980
  856loPI   C3A12003   1.995   7.830   7.691  0.0801  0.0928  0.3493
  856loPI   C4A12004   2.167   8.045   8.047 -0.1532 -0.0829 -0.1242
  856loPI   C5A12005   2.231   7.883   8.352  0.1944 -0.0676  0.1085
  856loPI   C6A12006   2.435   7.623   8.595 -0.4861  0.0100  0.3846
  856loPI   C1B12007   2.432   7.612   6.968  0.1473  0.0911  0.0868
  856loPI   C2B12008   2.415   7.668   7.439  0.1509  0.1038 -0.3410
  856loPI   C3B12009   2.451   7.632   7.840 -0.1090 -0.1060  0.0236
  856loPI   C4B12010   2.662   7.970   8.122 -0.0460 -0.1848 -0.1687
  857loPI    C112011   1.708  16.037   5.511 -0.3524 -0.0670 -0.1674
  857loPI    C212012   1.742  16.367   5.288  0.0393  0.0233  0.0179
  857loPI    C312013   1.775  16.007   5.117  0.1267  0.0884 -0.1040
  857loPI   PO412014   1.881  16.047   5.673  0.2094  0.1949  0.0393
  857loPI   GL112015   1.851  16.080   6.083  0.2166  0.1367 -0.0697
  857loPI   GL212016   1.625  15.825   6.225 -0.2649 -0.0995  0.1713
  857loPI   C1A12017   1.994  16.136   6.508  0.1626 -0.1067  0.0771
  857loPI   C2A12018   2.338  16.126   6.824  0.0358  0.2052 -0.1621
  857loPI   C3A12019   2.424  16.402   7.119  0.0130  0.0063 -0.1589
  857loPI   C4A12020   2.488  16.546   7.506  0.2012 -0.0157 -0.0481
  857loPI   C5A12021   2.604  16.756   7.834 -0.4158 -0.3259  0.1668
  857loPI   C6A12022   2.722  16.814   8.285  0.3209 -0.1441 -0.2104
  857loPI   C1B12023   1.400  16.048   6.469 -0.0969 -0.2015 -0.3013
  857loPI   C2B12024   1.456  16.046   6.921 -0.0059  0.0715  0.1796
  857loPI   C3B12025   1.569  16.025   7.288 -0.1284  0.2799  0.0002
  857loPI   C4B12026   1.516  16.123   7.711 -0.1554 -0.2367 -0.1597
  858loPI    C112027   1.801   4.401   5.842 -0.0479  0.0262 -0.0823
  858loPI    C212028   1.864   4.702   6.097 -0.0483 -0.0331 -0.0121
  858loPI    C312029   1.874   4.769   5.703 -0.1794  0.0855  0.0040
  858loPI   PO412030   1.626   4.240   6.081  0.1899 -0.4559  0.1206
  858loPI   GL112031   1.780   4.308   6.536 -0.0331 -0.1455 -0.0091
  858loPI   GL212032   1.957   4.576   6.654  0.0943  0.2981 -0.0162
  858loPI   C1A12033   1.660   4.340   7.004 -0.3492  0.3824  0.2868
  858loPI   C2A12034   1.637   4.332   7.428  0.1268  0.2609 -0.2736
  858loPI   C3A12035   1.795   4.250   7.768 -0.1533  0.0429  0.0444
  858loPI   C4A12036   1.839   4.240   8.186  0.1198  0.1420 -0.1220
  858loPI   C5A12037   1.931   3.934   8.431  0.1027  0.1749 -0.1764
  858loPI   C6A12038   2.149   3.778   8.848  0.3073 -0.3740  0.1295
  858loPI   C1B12039   2.078   4.611   6.989 -0.2286  0.0377  0.2888
  858loPI   C2B12040   2.109   4.519   7.432  0.0273  0.1175  0.2244
  858loPI   C3B12041   2.195   4.600   7.843  0.1530 -0.2742 -0.0965
  858loPI   C4B12042   1.940   4.733   8.168 -0.1167  0.3545  0.2131
  859loPI    C112043   6.336   8.639   5.876 -0.1585  0.0847  0.1766
  859loPI    C212044   6.173   8.750   5.527 -0.0505 -0.0472  0.0834
  859loPI    C312045   6.066   8.935   5.866  0.0639  0.2841 -0.0576
  859loPI   PO412046   6.290   8.324   5.860 -0.0683 -0.0325 -0.2125
  859loPI   GL112047   6.121   8.169   6.244 -0.0062  0.1415  0.0511
  859loPI   GL212048   6.423   7.927   6.194  0.0572  0.1309 -0.0903
  859loPI   C1A12049   6.213   8.397   6.551  0.1519 -0.1204  0.0780
  859loPI   C2A12050   6.186   8.353   7.039  0.1087 -0.1213 -0.0424
  859loPI   C3A12051   6.144   8.420   7.524  0.1038  0.3047 -0.0400
  859loPI   C4A12052   6.056   8.359   7.918  0.4893  0.0326  0.1679
  859loPI   C5A12053   6.138   8.731   8.193  0.1202 -0.0376 -0.0836
  859loPI   C6A12054   6.285   9.070   8.126 -0.0927  0.3008 -0.0695
  859loPI   C1B12055   6.308   7.952   6.792 -0.4241 -0.0627 -0.1306
  859loPI   C2B12056   6.228   7.879   7.241 -0.2158  0.1531  0.1909
  859loPI   C3B12057   6.133   7.868   7.682 -0.3297  0.2368 -0.1043
  859loPI   C4B12058   6.148   7.918   8.101  0.2072  0.0515  0.0462
  860loPI    C112059   4.170  14.805   5.666 -0.1807  0.0828  0.2540
  860loPI    C212060   4.096  14.825   5.273  0.1248 -0.2063  0.1768
  860loPI    C312061   3.905  15.070   5.525 -0.1143 -0.0545 -0.1439
  860loPI   PO412062   4.106  14.477   5.787  0.0281 -0.0271 -0.0627
  860loPI   GL112063   3.935  14.231   6.173 -0.0412 -0.1153 -0.1629
  860loPI   GL212064   3.727  14.490   6.132  0.0902  0.3410 -0.0308
  860loPI   C1A12065   3.673  14.132   6.470  0.3703  0.1837  0.0085
  860loPI   C2A12066   3.776  14.036   6.920 -0.1061  0.1132  0.4929
  860loPI   C3A12067   3.625  14.023   7.411 -0.0153  0.2586  0.0631
  860loPI   C4A12068   3.407  14.223   7.723 -0.1435 -0.1674  0.0332
  860loPI   C5A12069   3.133  14.453   8.021  0.2034  0.2547 -0.0445
  860loPI   C6A12070   3.068  14.853   8.251 -0.1298  0.1632  0.0319
  860loPI   C1B12071   3.862  14.623   6.460  0.2197  0.0916 -0.1085
  860loPI   C2B12072   3.663  14.544   6.908  0.1357 -0.4885  0.1279
  860loPI   C3B12073   3.685  14.576   7.340 -0.3402 -0.0253  0.0110
  860loPI   C4B12074   3.707  14.614   7.706 -0.0412 -0.0988  0.0420
  861loPI    C112075   0.121   0.284   6.074 -0.0113  0.0265 -0.1333
  861loPI    C212076   0.504   0.352   5.980  0.0547 -0.0108  0.1032
  861loPI    C312077   0.254   0.202   5.706  0.2463 -0.1308 -0.0078
  861loPI   PO412078   0.126   0.090   6.243  0.0691 -0.2073 -0.0724
  861loPI   GL112079  -0.014  -0.102   6.536  0.1087  0.2797 -0.2044
  861loPI   GL212080   0.360  -0.045   6.684 -0.4289  0.0954 -0.1792
  861loPI   C1A12081  -0.106  -0.166   6.909  0.1998 -0.1424 -0.0147
  861loPI   C2A12082  -0.092  -0.252   7.412  0.2715  0.0330 -0.0558
  861loPI   C3A12083   0.094  -0.414   7.851 -0.2432  0.2165 -0.0353
  861loPI   C4A12084   0.361  -0.589   8.135 -0.2109  0.3441 -0.0207
  861loPI   C5A12085   0.560  -0.949   8.133  0.1235 -0.0142  0.0868
  861loPI   C6A12086   0.998  -1.054   8.411  0.1319  0.0710 -0.2193
  861loPI   C1B12087   0.377  -0.413   6.961 -0.0300  0.1972  0.1745
  861loPI   C2B12088   0.504  -0.531   7.347 -0.2547  0.0298 -0.3919
  861loPI   C3B12089   0.677  -0.605   7.765 -0.0863 -0.1021 -0.2032
  861loPI   C4B12090   0.889  -0.536   8.198  0.2245 -0.4647 -0.2001
  862loPI    C112091   3.117   6.368   6.025  0.1359 -0.0144 -0.1135
  862loPI    C212092   3.406   6.593   5.864  0.0602  0.1935  0.0360
  862loPI    C312093   3.056   6.552   5.675  0.1499  0.0222 -0.0968
  862loPI   PO412094   3.173   6.212   6.095 -0.1395 -0.0998  0.1269
  862loPI   GL112095   3.449   5.932   6.323 -0.1796 -0.2489 -0.1931
  862loPI   GL212096   3.537   5.736   6.272  0.0018  0.2495  0.2462
  862loPI   C1A12097   3.547   5.975   6.766  0.0949  0.0859  0.0201
  862loPI   C2A12098   3.344   6.045   7.145  0.0537 -0.1685 -0.0821
  862loPI   C3A12099   3.312   6.117   7.605 -0.0985  0.0647 -0.3158
  862loPI   C4A12100   3.289   6.056   8.141  0.1880 -0.2914 -0.4320
  862loPI   C5A12101   3.546   6.298   8.507  0.1024 -0.1509 -0.1192
  862loPI   C6A12102   3.478   6.547   8.933 -0.1058  0.0558  0.1319
  862loPI   C1B12103   3.645   5.485   6.622 -0.0157  0.2088  0.1470
  862loPI   C2B12104   3.603   5.479   7.118 -0.4615  0.0660  0.1625
  862loPI   C3B12105   3.522   5.686   7.506  0.1710 -0.3103  0.1793
  862loPI   C4B12106   3.568   5.805   7.849  0.0925 -0.0599 -0.1352
  863loPI    C112107   9.455  16.712   6.157  0.0282  0.2216  0.1017
  863loPI    C212108   9.812  16.891   6.139  0.0349  0.2053  0.0741
  863loPI    C312109   9.571  16.894   5.820  0.1337 -0.0394 -0.0051
  863loPI   PO412110   9.455  16.777   6.474  0.3417  0.0393 -0.1073
  863loPI   GL112111   9.115  16.789   6.856  0.0202  0.2526  0.2123
  863loPI   GL212112   8.844  16.660   6.912  0.2121 -0.0351  0.1029
  863loPI   C1A12113   9.195  16.774   7.267  0.1110 -0.0317 -0.0743
  863loPI   C2A12114   9.151  16.842   7.617  0.1205  0.1426  0.2358
  863loPI   C3A12115   9.240  16.840   8.019 -0.0513 -0.0283 -0.0603
  863loPI   C4A12116   9.066  16.902   8.512 -0.0045  0.0355  0.2666
  863loPI   C5A12117   8.661  16.625   8.599 -0.2364 -0.2523  0.1130
  863loPI   C6A12118   8.169  16.677   8.737 -0.1697 -0.1033 -0.1411
  863loPI   C1B12119   8.689  16.773   7.361 -0.1626 -0.1287 -0.0070
  863loPI   C2B12120   8.479  16.757   7.736 -0.0015 -0.0114  0.1500
  863loPI   C3B12121   8.415  16.555   8.096  0.1195  0.1917 -0.0761
  863loPI   C4B12122   8.258  16.196   8.386  0.2077 -0.0752  0.0743
  864loPI    C112123  10.363   1.597   5.359 -0.0937 -0.1674 -0.2623
  864loPI    C212124  10.487   1.908   5.140 -0.2024  0.0468 -0.0246
  864loPI    C312125  10.288   1.608   4.966 -0.0732  0.0954 -0.2606
  864loPI   PO412126  10.676   1.541   5.512 -0.1585  0.0887 -0.1104
  864loPI   GL112127  10.605   1.612   5.969  0.1308  0.2150 -0.3641
  864loPI   GL212128  10.642   1.317   5.959  0.1425  0.1485  0.2177
  864loPI   C1A12129  11.087   1.572   6.279  0.0144  0.0299  0.0472
  864loPI   C2A12130  11.161   1.535   6.734  0.1100  0.2050  0.2577
  864loPI   C3A12131  11.208   1.531   7.195  0.1263 -0.1041 -0.1332
  864loPI   C4A12132  11.259   1.606   7.641 -0.0527  0.0709  0.0863
  864loPI   C5A12133  10.983   1.533   8.034  0.2144  0.3821 -0.0831
  864loPI   C6A12134  10.666   1.813   8.190 -0.0313  0.0640 -0.1157
  864loPI   C1B12135  10.618   1.324   6.364 -0.3221 -0.0082 -0.1760
  864loPI   C2B12136  10.712   1.293   6.718 -0.2143 -0.0332  0.0082
  864loPI   C3B12137  10.730   1.411   7.128 -0.3307  0.1443 -0.1928
  864loPI   C4B12138  10.784   1.430   7.573  0.0747  0.1079  0.0577
  865loPI    C112139   5.126  13.612   6.294 -0.2964  0.1456 -0.0954
  865loPI    C212140   5.202  13.434   5.944 -0.0035  0.0694  0.0040
  865loPI    C312141   5.028  13.794   5.952 -0.1075  0.0255 -0.2152
  865loPI   PO412142   5.135  13.336   6.429  0.0259 -0.1085 -0.1095
  865loPI   GL112143   5.161  13.269   6.849 -0.1946 -0.3847 -0.0908
  865loPI   GL212144   5.451  13.261   6.787 -0.1249 -0.1774  0.1279
  865loPI   C1A12145   4.864  13.110   7.127 -0.0932  0.0271  0.2477
  865loPI   C2A12146   4.799  13.008   7.565 -0.1561 -0.0918 -0.0271
  865loPI   C3A12147   4.476  13.009   7.881 -0.1205 -0.0244 -0.0761
  865loPI   C4A12148   4.118  13.040   8.223 -0.2375 -0.0185  0.2289
  865loPI   C5A12149   3.881  13.340   8.505  0.0526 -0.2699  0.0069
  865loPI   C6A12150   3.684  13.686   8.349  0.3124 -0.3297 -0.2111
  865loPI   C1B12151   5.365  13.241   7.313  0.0223 -0.0600 -0.1608
  865loPI   C2B12152   5.195  13.441   7.608  0.0074 -0.0814 -0.2036
  865loPI   C3B12153   4.997  13.244   7.999 -0.0971 -0.2285  0.2453
  865loPI   C4B12154   4.666  13.220   8.279  0.2148 -0.1249  0.0594
  866loPI    C112155  10.139  12.480   5.943  0.1275  0.1671  0.1253
  866loPI    C212156  10.406  12.771   5.878  0.1556  0.0889 -0.1192
  866loPI    C312157  10.469  12.405   5.730 -0.0339  0.0409 -0.0842
  866loPI   PO412158   9.988  12.504   6.080 -0.1423  0.0855  0.0178
  866loPI   GL112159  10.016  12.348   6.452 -0.2265  0.2058 -0.1131
  866loPI   GL212160  10.161  12.498   6.631 -0.0064 -0.1671 -0.0252
  866loPI   C1A12161  10.115  12.064   6.905  0.0419  0.1024  0.1092
  866loPI   C2A12162  10.151  12.170   7.349 -0.1943 -0.1825 -0.0610
  866loPI   C3A12163  10.080  12.118   7.747  0.4128 -0.0457 -0.2927
  866loPI   C4A12164  10.094  11.798   8.015 -0.2148  0.0141 -0.2519
  866loPI   C5A12165  10.174  11.448   8.387  0.0462 -0.0288 -0.1268
  866loPI   C6A12166  10.048  10.968   8.452 -0.1565  0.0119 -0.1352
  866loPI   C1B12167  10.413  12.605   6.979 -0.2463  0.0381  0.1879
  866loPI   C2B12168  10.592  12.355   7.241 -0.0230  0.0483 -0.1607
  866loPI   C3B12169  10.604  12.180   7.683 -0.0373  0.1716  0.1769
  866loPI   C4B12170  10.691  12.197   8.082 -0.1504 -0.2516 -0.1203
  867loPI    C112171  12.915   5.934   5.559 -0.0587  0.2465 -0.2111
  867loPI    C212172  12.698   5.679   5.338  0.2929 -0.0633 -0.2090
  867loPI    C312173  12.562   6.049   5.408 -0.1608 -0.2005 -0.3303
  867loPI   PO412174  12.992   5.724   5.815  0.1311  0.0671 -0.0901
  867loPI   GL112175  12.853   5.778   6.248  0.0730  0.1300 -0.0917
  867loPI   GL212176  12.871   5.701   6.667 -0.2594  0.2219 -0.1558
  867loPI   C1A12177  13.255   5.974   6.533  0.0151  0.2373  0.0982
  867loPI   C2A12178  13.336   6.030   6.956 -0.3505 -0.2187  0.2641
  867loPI   C3A12179  13.321   6.000   7.466 -0.1632  0.0198 -0.0260
  867loPI   C4A12180  13.343   6.092   7.943  0.0788 -0.3061  0.2242
  867loPI   C5A12181  13.338   5.997   8.365 -0.1596  0.2670  0.0084
  867loPI   C6A12182  13.366   6.086   8.851 -0.0049 -0.1832 -0.0108
  867loPI   C1B12183  12.892   5.613   7.123  0.1124 -0.0488 -0.1959
  867loPI   C2B12184  12.811   5.695   7.479  0.2795 -0.3927  0.1765
  867loPI   C3B12185  13.095   5.620   7.797 -0.2224 -0.1168  0.2064
  867loPI   C4B12186  13.143   5.557   8.176  0.2057 -0.0203 -0.0637
  868loPI    C112187  16.212  16.219   5.841 -0.0038 -0.1630 -0.0892
  868loPI    C212188  16.311  16.579   5.986  0.1584 -0.1587 -0.2084
  868loPI    C312189  16.333  16.508   5.593  0.0205 -0.2655 -0.1977
  868loPI   PO412190  16.297  16.050   5.989 -0.0179  0.1383 -0.1971
  868loPI   GL112191  16.175  15.934   6.283 -0.0012  0.0103  0.0159
  868loPI   GL212192  16.006  15.771   6.349 -0.1734  0.0984  0.3188
  868loPI   C1A12193  16.458  15.747   6.558 -0.0089  0.1253 -0.0616
  868loPI   C2A12194  16.419  15.623   6.981  0.1119  0.0379 -0.2596
  868loPI   C3A12195  16.385  15.476   7.456 -0.0856  0.2963 -0.1690
  868loPI   C4A12196  16.430  15.422   7.879  0.0800  0.0731 -0.2425
  868loPI   C5A12197  16.213  15.144   8.124 -0.0805 -0.0980  0.0611
  868loPI   C6A12198  15.986  14.768   7.976 -0.0628 -0.0964 -0.0760
  868loPI   C1B12199  15.935  15.747   6.711  0.0128 -0.0128 -0.1958
  868loPI   C2B12200  15.920  15.628   7.078  0.1808 -0.1462  0.1314
  868loPI   C3B12201  15.840  15.546   7.488  0.1604 -0.0330  0.1681
  868loPI   C4B12202  15.747  15.303   7.895 -0.1868  0.1057 -0.0756
  869loPI    C112203   3.366   2.447   6.006 -0.1855  0.1830 -0.0550
  869loPI    C212204   3.251   2.512   5.629 -0.0440 -0.1473 -0.1583
  869loPI    C312205   3.607   2.345   5.704  0.0401  0.1518  0.1321
  869loPI   PO412206   3.343   2.636   6.117  0.0676  0.0353  0.1232
  869loPI   GL112207   3.107   2.747   6.421  0.2542  0.1993  0.3013
  869loPI   GL212208   2.865   2.643   6.671 -0.4400 -0.0469  0.4432
  869loPI   C1A12209   3.053   3.053   6.804 -0.0917 -0.0039 -0.0115
  869loPI   C2A12210   3.169   3.051   7.205  0.3357  0.2196 -0.2760
  869loPI   C3A12211   3.218   3.020   7.598 -0.1102  0.1199 -0.1073
  869loPI   C4A12212   3.080   3.076   7.969 -0.4964 -0.2490 -0.0184
  869loPI   C5A12213   3.194   2.981   8.316 -0.1038 -0.0283 -0.0025
  869loPI   C6A12214   3.217   2.863   8.697 -0.2188 -0.0980 -0.1751
  869loPI   C1B12215   2.677   2.765   6.978 -0.4734  0.4283  0.0195
  869loPI   C2B12216   2.431   2.577   7.242  0.0170  0.1215  0.0421
  869loPI   C3B12217   2.477   2.458   7.684  0.0931 -0.1082  0.0217
  869loPI   C4B12218   2.681   2.126   7.863  0.2337  0.1682  0.0462
  870loPI    C112219   9.225   6.358   5.724 -0.0891  0.1048 -0.0119
  870loPI    C212220   9.194   6.118   6.042 -0.0592  0.1303  0.0102
  870loPI    C312221   9.008   6.022   5.701 -0.0161  0.0562  0.0076
  870loPI   PO412222   9.206   6.588   5.799 -0.1541 -0.1365  0.3220
  870loPI   GL112223   9.062   6.713   6.212  0.1958 -0.2721 -0.0531
  870loPI   GL212224   9.058   7.077   6.150  0.1290  0.0714 -0.1847
  870loPI   C1A12225   9.247   6.825   6.570  0.0410 -0.2668  0.0163
  870loPI   C2A12226   9.265   6.912   6.945 -0.0421  0.0497 -0.2717
  870loPI   C3A12227   9.191   6.822   7.302  0.1479  0.0283  0.0654
  870loPI   C4A12228   8.976   6.688   7.636 -0.0811  0.1293 -0.3072
  870loPI   C5A12229   8.799   6.523   7.992  0.2817  0.1253  0.0531
  870loPI   C6A12230   8.613   6.251   8.247  0.0500  0.0760 -0.1301
  870loPI   C1B12231   8.994   7.326   6.448 -0.1790  0.2855 -0.1343
  870loPI   C2B12232   8.944   7.238   6.892 -0.0756 -0.3147 -0.0643
  870loPI   C3B12233   8.886   7.191   7.231  0.2950 -0.2235 -0.2651
  870loPI   C4B12234   9.005   7.258   7.566  0.0471  0.1044  0.0890
  871loPI    C112235   7.235   8.822   5.526 -0.2686  0.1535 -0.0593
  871loPI    C212236   7.487   8.872   5.219  0.0998  0.0845  0.2253
  871loPI    C312237   7.115   9.016   5.198  0.1038  0.0376 -0.2703
  871loPI   PO412238   7.473   8.845   5.746  0.2414  0.1572  0.0182
  871loPI   GL112239   7.312   8.663   6.110 -0.2519  0.0974  0.2390
  871loPI   GL212240   7.035   8.790   6.167 -0.0784 -0.0692  0.0743
  871loPI   C1A12241   7.592   8.566   6.421 -0.0752 -0.1513 -0.1317
  871loPI   C2A12242   7.615   8.492   6.792  0.2788  0.0470 -0.0712
  871loPI   C3A12243   7.697   8.560   7.269 -0.0736  0.3227  0.4546
  871loPI   C4A12244   7.529   8.473   7.625 -0.0463  0.0019 -0.1382
  871loPI   C5A12245   7.358   8.740   7.943 -0.0949  0.0891  0.1368
  871loPI   C6A12246   7.248   9.173   8.135  0.1563 -0.0267  0.0555
  871loPI   C1B12247   7.162   8.807   6.565  0.0543  0.2469 -0.0663
  871loPI   C2B12248   7.178   8.778   6.976 -0.0089 -0.0744  0.1110
  871loPI   C3B12249   7.065   8.654   7.376 -0.1048 -0.1596 -0.0344
  871loPI   C4B12250   7.002   8.499   7.762  0.0886 -0.2254 -0.0050
  872loPI    C112251  17.142   8.662   6.070 -0.0367 -0.0872  0.0265
  872loPI    C212252  16.913   8.884   5.828 -0.0708 -0.1894 -0.0355
  872loPI    C312253  17.248   8.716   5.688 -0.0520 -0.1879  0.0079
  872loPI   PO412254  16.951   8.731   6.284  0.1748 -0.2688 -0.1915
  872loPI   GL112255  16.917   8.997   6.506  0.1612  0.0412  0.0448
  872loPI   GL212256  16.636   9.126   6.621  0.0372 -0.3041  0.1148
  872loPI   C1A12257  17.098   9.113   6.864  0.0406 -0.1885 -0.1157
  872loPI   C2A12258  17.016   9.302   7.302  0.2061 -0.1345  0.1195
  872loPI   C3A12259  16.982   9.272   7.733 -0.0813  0.1127 -0.0609
  872loPI   C4A12260  16.749   8.983   8.067  0.1731 -0.0382  0.0596
  872loPI   C5A12261  16.579   8.619   8.168  0.0912  0.1092 -0.0584
  872loPI   C6A12262  16.442   8.323   8.543 -0.2213 -0.1156  0.2201
  872loPI   C1B12263  16.545   9.200   6.861  0.0278  0.1604  0.0684
  872loPI   C2B12264  16.404   9.218   7.281  0.0590 -0.2351 -0.0173
  872loPI   C3B12265  16.418   9.404   7.676  0.1998  0.0099 -0.2870
  872loPI   C4B12266  16.370   9.386   8.150  0.3531  0.0982 -0.0797
  873loPI    C112267  14.176  15.610   5.719  0.2410  0.1106 -0.2981
  873loPI    C212268  13.828  15.737   5.568 -0.1333 -0.4280  0.0731
  873loPI    C312269  14.078  15.522   5.342 -0.0640 -0.0963 -0.1741
  873loPI   PO412270  14.148  15.487   5.940  0.0469  0.1137 -0.0428
  873loPI   GL112271  14.081  15.166   6.175 -0.1755 -0.1354  0.1420
  873loPI   GL212272  13.709  15.202   6.283 -0.3879  0.2130  0.0419
  873loPI   C1A12273  14.281  15.209   6.622 -0.1221  0.2050 -0.1135
  873loPI   C2A12274  14.336  15.193   7.025  0.1291  0.1419 -0.0975
  873loPI   C3A12275  14.278  15.149   7.512 -0.2432 -0.0653  0.2492
  873loPI   C4A12276  14.282  15.072   7.922 -0.1335 -0.0156  0.2392
  873loPI   C5A12277  14.676  15.101   8.147  0.0689  0.2201  0.0316
  873loPI   C6A12278  15.062  14.964   8.438 -0.0466 -0.2083  0.2441
  873loPI   C1B12279  13.717  15.183   6.775 -0.1083 -0.0182  0.3116
  873loPI   C2B12280  13.817  15.124   7.181  0.0343  0.3051 -0.2023
  873loPI   C3B12281  13.749  15.122   7.601  0.3226 -0.1580 -0.1842
  873loPI   C4B12282  13.761  15.019   7.999 -0.1212 -0.1024 -0.2730
  874loPI    C112283   7.941   2.217   5.978 -0.1630  0.1243  0.1066
  874loPI    C212284   8.303   2.160   5.816 -0.1713 -0.1253  0.1715
  874loPI    C312285   8.075   2.466   5.694  0.0056 -0.0464  0.0341
  874loPI   PO412286   8.066   2.239   6.305 -0.1445 -0.1337  0.1239
  874loPI   GL112287   7.864   2.018   6.560 -0.3171 -0.0511  0.2582
  874loPI   GL212288   7.625   2.066   6.576 -0.1463 -0.0241 -0.2985
  874loPI   C1A12289   8.121   1.990   6.977 -0.1743 -0.0144 -0.1342
  874loPI   C2A12290   8.464   1.851   7.291 -0.1250  0.0826  0.2901
  874loPI   C3A12291   8.518   2.003   7.708 -0.0913 -0.0602  0.3791
  874loPI   C4A12292   8.444   2.123   8.149  0.3175  0.1717  0.1761
  874loPI   C5A12293   8.721   2.052   8.588 -0.0464 -0.0424 -0.1603
  874loPI   C6A12294   8.929   1.577   8.713  0.0924 -0.2750  0.0788
  874loPI   C1B12295   7.585   2.008   6.977  0.0771 -0.2840 -0.1775
  874loPI   C2B12296   7.539   2.051   7.417  0.1547 -0.0019 -0.0274
  874loPI   C3B12297   7.156   2.193   7.604 -0.3162 -0.0870  0.0950
  874loPI   C4B12298   6.987   2.432   7.693  0.1666  0.1296  0.1061
  875loPI    C112299   6.067   4.756   5.847  0.1167 -0.0082  0.1428
  875loPI    C212300   5.688   4.796   5.725  0.0706 -0.1997  0.2190
  875loPI    C312301   5.892   5.116   5.852 -0.0196 -0.0719  0.0466
  875loPI   PO412302   6.042   4.558   5.929 -0.0868 -0.1771 -0.2163
  875loPI   GL112303   6.395   4.456   6.195 -0.3227  0.1337 -0.2490
  875loPI   GL212304   6.633   4.720   6.162  0.2140 -0.0149  0.1564
  875loPI   C1A12305   6.547   4.533   6.658  0.3182  0.1089  0.0301
  875loPI   C2A12306   6.505   4.436   7.042 -0.4517 -0.1419 -0.1763
  875loPI   C3A12307   6.523   4.364   7.513  0.1466  0.0118  0.1242
  875loPI   C4A12308   6.671   4.185   7.876 -0.0269  0.1177  0.1339
  875loPI   C5A12309   6.606   4.132   8.235  0.0539 -0.0081  0.0019
  875loPI   C6A12310   6.610   4.055   8.694  0.1070 -0.1613 -0.0410
  875loPI   C1B12311   6.906   4.846   6.554 -0.0439  0.0029  0.0200
  875loPI   C2B12312   6.963   4.847   7.047  0.0912 -0.2557  0.0458
  875loPI   C3B12313   6.846   4.766   7.480  0.1808  0.1954  0.1315
  875loPI   C4B12314   6.979   4.826   7.833  0.0016 -0.0481 -0.3164
  876loPI    C112315   7.503   3.737   6.198  0.0946 -0.0260  0.0477
  876loPI    C212316   7.464   3.932   5.851 -0.2548  0.1056  0.1569
  876loPI    C312317   7.410   3.536   5.865 -0.0466  0.0710  0.0279
  876loPI   PO412318   7.344   3.877   6.340  0.0098  0.1122  0.0246
  876loPI   GL112319   6.986   4.092   6.491  0.1645  0.0154 -0.0715
  876loPI   GL212320   6.628   3.985   6.403  0.2383  0.1165  0.0171
  876loPI   C1A12321   7.045   4.364   6.806 -0.0823  0.0709  0.3103
  876loPI   C2A12322   7.049   4.364   7.242 -0.3081  0.0049 -0.1175
  876loPI   C3A12323   7.162   4.419   7.693  0.0251 -0.0745  0.0073
  876loPI   C4A12324   6.957   4.468   8.156 -0.3140  0.1191  0.1229
  876loPI   C5A12325   6.918   4.410   8.592 -0.0998  0.1889 -0.2301
  876loPI   C6A12326   6.814   4.670   8.907 -0.2249 -0.0193 -0.0975
  876loPI   C1B12327   6.674   4.006   6.851  0.0569 -0.1466  0.0201
  876loPI   C2B12328   6.741   3.965   7.238 -0.2104 -0.2312 -0.0828
  876loPI   C3B12329   6.989   3.937   7.574  0.0875 -0.1196 -0.2569
  876loPI   C4B12330   7.184   4.009   7.976  0.2086  0.1656  0.2683
  877loPI    C112331  11.514  14.506   5.703 -0.1337  0.0088  0.0264
  877loPI    C212332  11.125  14.479   5.614 -0.1280 -0.1665  0.0519
  877loPI    C312333  11.374  14.181   5.517  0.0367  0.0326 -0.1463
  877loPI   PO412334  11.483  14.568   5.951 -0.0444  0.1040 -0.0513
  877loPI   GL112335  11.635  14.435   6.370 -0.0600  0.0398  0.2282
  877loPI   GL212336  11.488  14.724   6.476  0.1148  0.0663 -0.1793
  877loPI   C1A12337  11.742  14.307   6.726  0.0508 -0.1531  0.0602
  877loPI   C2A12338  12.057  14.348   7.075  0.1083  0.0179  0.0114
  877loPI   C3A12339  12.076  14.433   7.509 -0.1561  0.0693  0.0306
  877loPI   C4A12340  11.989  14.687   7.960  0.0546  0.1563 -0.0735
  877loPI   C5A12341  11.954  14.949   8.366 -0.1117  0.0109  0.3133
  877loPI   C6A12342  11.764  15.111   8.649 -0.1609 -0.0051  0.2778
  877loPI   C1B12343  11.524  14.755   6.852 -0.4166  0.0297 -0.0158
  877loPI   C2B12344  11.646  14.619   7.191 -0.1769  0.0720  0.1202
  877loPI   C3B12345  11.680  14.833   7.573 -0.3310 -0.1462 -0.1798
  877loPI   C4B12346  11.679  15.063   7.984  0.0007  0.0641 -0.0119
  878loPI    C112347   3.005   1.845   6.244  0.2347  0.0450  0.1074
  878loPI    C212348   2.977   1.449   6.297 -0.1898  0.1121  0.4351
  878loPI    C312349   2.733   1.634   6.039  0.3025  0.1087 -0.0495
  878loPI   PO412350   3.365   1.849   6.255 -0.1112 -0.0016  0.1660
  878loPI   GL112351   3.544   1.867   6.726  0.0813 -0.0732  0.1052
  878loPI   GL212352   3.654   1.643   6.814 -0.4534  0.1112  0.1703
  878loPI   C1A12353   3.733   2.159   6.961  0.1588 -0.2034  0.0615
  878loPI   C2A12354   3.763   2.162   7.449 -0.2082 -0.1251  0.1003
  878loPI   C3A12355   3.727   2.248   7.892  0.0138 -0.1654  0.2060
  878loPI   C4A12356   3.961   2.287   8.310  0.0085 -0.1920  0.3104
  878loPI   C5A12357   4.170   2.616   8.470 -0.1487 -0.0562  0.0060
  878loPI   C6A12358   4.237   3.008   8.697 -0.2771  0.0415 -0.0433
  878loPI   C1B12359   3.694   1.752   7.228 -0.0977 -0.3285 -0.0502
  878loPI   C2B12360   3.936   1.681   7.608  0.1778 -0.1544 -0.1238
  878loPI   C3B12361   3.968   1.747   8.007  0.0140 -0.1699  0.0974
  878loPI   C4B12362   4.040   1.582   8.426  0.1967  0.0278 -0.0218
  879loPI    C112363   0.012   7.546   5.755 -0.1617  0.0306 -0.1170
  879loPI    C212364  -0.287   7.802   5.681 -0.2230 -0.0166 -0.0343
  879loPI    C312365  -0.143   7.571   5.387 -0.3286 -0.0580 -0.0539
  879loPI   PO412366   0.102   7.519   6.099  0.1304  0.2471 -0.1893
  879loPI   GL112367   0.422   7.724   6.370  0.2218 -0.2350 -0.0340
  879loPI   GL212368   0.724   7.717   6.496  0.4818  0.1164 -0.0622
  879loPI   C1A12369   0.411   7.982   6.832  0.0518  0.1747 -0.1771
  879loPI   C2A12370   0.557   7.871   7.235 -0.1440  0.0499 -0.1762
  879loPI   C3A12371   0.567   7.543   7.580  0.0785 -0.1422  0.1996
  879loPI   C4A12372   0.449   7.147   7.945 -0.1121  0.1567 -0.0889
  879loPI   C5A12373   0.656   6.962   8.233 -0.0177 -0.1830  0.0633
  879loPI   C6A12374   0.770   6.645   8.572 -0.1166  0.2818 -0.2304
  879loPI   C1B12375   0.986   7.615   6.877  0.0604  0.2211 -0.2556
  879loPI   C2B12376   1.002   7.711   7.361 -0.1441  0.0408 -0.1168
  879loPI   C3B12377   1.146   7.357   7.499 -0.0032  0.0619  0.0721
  879loPI   C4B12378   0.945   7.175   7.816 -0.1772 -0.1066 -0.1489
  880loPI    C112379  13.539   1.598   5.767  0.0223  0.0790  0.0980
  880loPI    C212380  13.501   1.206   5.835 -0.1495  0.0811  0.0179
  880loPI    C312381  13.192   1.451   5.900 -0.1883  0.1405 -0.3658
  880loPI   PO412382  13.808   1.616   5.861 -0.3570  0.1496 -0.2171
  880loPI   GL112383  13.960   1.834   6.232  0.0701  0.2163 -0.3641
  880loPI   GL212384  13.583   1.922   6.273 -0.0638  0.1575  0.2346
  880loPI   C1A12385  14.349   1.951   6.506 -0.0789  0.0742 -0.1860
  880loPI   C2A12386  14.415   1.968   6.960  0.0938 -0.0531  0.1072
  880loPI   C3A12387  14.474   1.949   7.435  0.2918 -0.1243 -0.3774
  880loPI   C4A12388  14.580   1.926   7.832  0.0779 -0.0303  0.0125
  880loPI   C5A12389  14.430   1.928   8.269 -0.1817 -0.4806  0.1945
  880loPI   C6A12390  14.433   2.209   8.662  0.1811  0.0813  0.0896
  880loPI   C1B12391  13.365   1.725   6.662 -0.0839  0.0378  0.0246
  880loPI   C2B12392  13.394   1.757   7.059 -0.0027 -0.1309 -0.1476
  880loPI   C3B12393  13.588   1.848   7.600  0.2256  0.2018 -0.1439
  880loPI   C4B12394  13.603   1.811   8.072 -0.1532  0.0845  0.0537
  881loPI    C112395  14.160  16.886   5.574 -0.0309 -0.0319 -0.1935
  881loPI    C212396  13.779  16.990   5.638 -0.0799 -0.2095 -0.1919
  881loPI    C312397  13.966  17.110   5.305 -0.1158 -0.0656 -0.1608
  881loPI   PO412398  14.381  17.030   5.775  0.2473  0.2357  0.0994
  881loPI   GL112399  14.506  17.175   6.103  0.0432  0.0643 -0.1181
  881loPI   GL212400  14.472  17.436   6.080 -0.1105  0.0548  0.2397
  881loPI   C1A12401  14.568  17.032   6.563  0.1888  0.3670 -0.1972
  881loPI   C2A12402  14.632  16.991   7.002  0.0081  0.0907  0.0660
  881loPI   C3A12403  14.787  17.045   7.377  0.0771 -0.1627  0.2502
  881loPI   C4A12404  14.715  16.996   7.832 -0.0548 -0.0688 -0.0208
  881loPI   C5A12405  14.564  17.108   8.180 -0.0977 -0.1555  0.4344
  881loPI   C6A12406  14.583  17.209   8.627  0.0159 -0.1650 -0.2583
  881loPI   C1B12407  14.147  17.350   6.441 -0.1367  0.2703  0.0126
  881loPI   C2B12408  14.215  17.369   6.842 -0.0184  0.1426  0.1738
  881loPI   C3B12409  14.304  17.297   7.222  0.0650  0.1709  0.0964
  881loPI   C4B12410  14.392  17.327   7.720  0.4070  0.1102  0.3318
  882loPI    C112411   8.910  10.630   5.778 -0.1443 -0.0663 -0.0485
  882loPI    C212412   8.516  10.671   5.837 -0.1434  0.0732 -0.1327
  882loPI    C312413   8.756  10.990   5.864 -0.0176 -0.0348  0.0507
  882loPI   PO412414   9.004  10.480   5.983  0.0984 -0.1662  0.4389
  882loPI   GL112415   8.945  10.394   6.419 -0.1088 -0.0393  0.1321
  882loPI   GL212416   9.282  10.450   6.352 -0.1650  0.2505  0.2121
  882loPI   C1A12417   8.786  10.365   6.877 -0.2275 -0.0159 -0.0338
  882loPI   C2A12418   8.743  10.273   7.342 -0.0656  0.1653  0.3388
  882loPI   C3A12419   8.715  10.413   7.816 -0.4809 -0.0231  0.0197
  882loPI   C4A12420   8.605  10.677   8.137 -0.0161  0.0271  0.0588
  882loPI   C5A12421   8.399  11.049   8.264  0.1196 -0.1497  0.0596
  882loPI   C6A12422   7.916  11.187   8.187 -0.1327 -0.1223 -0.1009
  882loPI   C1B12423   9.296  10.577   6.715  0.0617 -0.1686  0.1002
  882loPI   C2B12424   9.181  10.481   7.210 -0.0379 -0.3512  0.0431
  882loPI   C3B12425   9.159  10.440   7.638  0.3176  0.0328 -0.2105
  882loPI   C4B12426   9.077  10.120   8.063 -0.0739 -0.2688  0.0965
  883loPI    C112427  15.518   1.605   5.898 -0.0609  0.0686  0.1030
  883loPI    C212428  15.504   1.290   6.145  0.0154  0.1283  0.1844
  883loPI    C312429  15.492   1.235   5.748 -0.1526  0.0346  0.2019
  883loPI   PO412430  15.341   1.813   5.979  0.3390 -0.2657 -0.1502
  883loPI   GL112431  15.217   1.955   6.351 -0.1956 -0.0747  0.0647
  883loPI   GL212432  15.145   2.290   6.448 -0.2080 -0.1550 -0.0349
  883loPI   C1A12433  14.987   1.792   6.669  0.1269  0.1138 -0.1325
  883loPI   C2A12434  14.941   1.721   7.045 -0.1979 -0.1501 -0.0138
  883loPI   C3A12435  14.981   1.780   7.532  0.2166  0.0508  0.0301
  883loPI   C4A12436  15.130   1.797   7.993 -0.1230 -0.3292  0.1437
  883loPI   C5A12437  15.299   1.794   8.437  0.0650 -0.2710  0.0291
  883loPI   C6A12438  15.392   2.152   8.603  0.2410  0.0317 -0.0601
  883loPI   C1B12439  15.276   2.310   6.907 -0.0148 -0.2452 -0.0202
  883loPI   C2B12440  15.301   2.064   7.224 -0.1194  0.1703  0.2976
  883loPI   C3B12441  15.463   2.031   7.653 -0.0464  0.1779 -0.0078
  883loPI   C4B12442  15.575   2.051   8.169  0.2089 -0.0533  0.1224
  884loPI    C112443   6.687   5.235   5.814  0.1323 -0.0605  0.0857
  884loPI    C212444   6.497   5.321   5.473 -0.0462 -0.1517  0.1606
  884loPI    C312445   6.860   5.474   5.544 -0.0015 -0.1436 -0.0755
  884loPI   PO412446   6.415   5.214   5.922  0.1584 -0.0863 -0.0134
  884loPI   GL112447   6.491   5.268   6.363 -0.1854 -0.0084 -0.0977
  884loPI   GL212448   6.266   5.539   6.572  0.0042 -0.1114 -0.1034
  884loPI   C1A12449   6.534   5.042   6.838 -0.0355  0.2540  0.0355
  884loPI   C2A12450   6.394   5.058   7.348  0.0829  0.0132 -0.0102
  884loPI   C3A12451   6.435   5.057   7.782 -0.0060  0.1504 -0.0567
  884loPI   C4A12452   6.356   5.151   8.243  0.1963  0.1121 -0.0844
  884loPI   C5A12453   6.381   4.999   8.664 -0.0907  0.0605 -0.0468
  884loPI   C6A12454   6.339   4.896   9.084 -0.2312 -0.0242  0.0619
  884loPI   C1B12455   6.331   5.520   6.970 -0.1524 -0.0184  0.1447
  884loPI   C2B12456   6.257   5.558   7.468 -0.0568  0.2168 -0.2153
  884loPI   C3B12457   6.332   5.577   7.881  0.2993 -0.1601 -0.0270
  884loPI   C4B12458   6.360   5.657   8.321  0.0879  0.4005  0.1878
  885loPI    C112459   0.124  14.884   5.646  0.0262  0.0009 -0.0745
  885loPI    C212460   0.173  15.216   5.428 -0.2420  0.0374 -0.0819
  885loPI    C312461   0.132  14.861   5.247 -0.1316  0.0233 -0.0796
  885loPI   PO412462   0.337  14.860   5.857 -0.0811  0.1981 -0.2411
  885loPI   GL112463   0.367  14.957   6.297  0.2713 -0.2287  0.0411
  885loPI   GL212464   0.236  14.695   6.323  0.0395 -0.0334 -0.1866
  885loPI   C1A12465   0.603  14.907   6.627 -0.0834 -0.0284  0.0750
  885loPI   C2A12466   0.622  14.874   6.973  0.2767  0.0003  0.0486
  885loPI   C3A12467   0.493  15.018   7.362  0.1023 -0.0227 -0.1201
  885loPI   C4A12468   0.462  15.376   7.482 -0.0547  0.1215  0.1746
  885loPI   C5A12469   0.684  15.691   7.666  0.0438 -0.3514  0.1755
  885loPI   C6A12470   0.758  15.810   8.045 -0.1075 -0.0659  0.2062
  885loPI   C1B12471   0.214  14.618   6.771  0.0236 -0.3604 -0.0817
  885loPI   C2B12472   0.259  14.599   7.188  0.0585 -0.2022 -0.1526
  885loPI   C3B12473   0.359  14.576   7.599  0.3202 -0.2035  0.3367
  885loPI   C4B12474   0.395  14.319   7.844 -0.0633  0.0927  0.2033
  886loPI    C112475  14.283   7.028   6.141  0.0066 -0.0914  0.1137
  886loPI    C212476  14.662   7.146   6.191  0.0342 -0.0972 -0.0748
  886loPI    C312477  14.475   7.216   5.844 -0.0973 -0.2037 -0.0261
  886loPI   PO412478  14.156   7.152   6.287 -0.2082 -0.2634  0.0291
  886loPI   GL112479  13.831   7.251   6.556 -0.1941 -0.0361  0.0229
  886loPI   GL212480  13.586   7.390   6.663  0.2032  0.1134 -0.2247
  886loPI   C1A12481  13.991   7.356   6.922 -0.2067  0.2164  0.1224
  886loPI   C2A12482  13.918   7.312   7.361 -0.1239 -0.0981 -0.4831
  886loPI   C3A12483  13.812   7.454   7.804  0.0777  0.1533 -0.3983
  886loPI   C4A12484  13.903   7.447   8.274  0.1435  0.2029 -0.0159
  886loPI   C5A12485  13.796   7.263   8.614 -0.1089  0.0659 -0.0775
  886loPI   C6A12486  13.737   7.278   9.016  0.1617 -0.1185 -0.2644
  886loPI   C1B12487  13.483   7.388   7.036 -0.1023 -0.0030 -0.2619
  886loPI   C2B12488  13.566   7.707   7.378 -0.2258 -0.1167 -0.1406
  886loPI   C3B12489  13.515   7.842   7.693 -0.4644  0.1203 -0.0422
  886loPI   C4B12490  13.585   7.824   8.143  0.3273  0.0521  0.1160
  887loPI    C112491  11.001   4.927   5.669  0.0037 -0.2341 -0.0469
  887loPI    C212492  10.674   5.007   5.453  0.1999 -0.1943 -0.3349
  887loPI    C312493  11.029   5.153   5.340  0.2786 -0.0134  0.1232
  887loPI   PO412494  10.904   4.920   5.902  0.1541 -0.3580  0.1351
  887loPI   GL112495  10.912   5.022   6.290  0.1542 -0.0506  0.1402
  887loPI   GL212496  11.231   4.819   6.398  0.1506 -0.0535 -0.4082
  887loPI   C1A12497  10.901   5.167   6.644  0.4185  0.0501 -0.3167
  887loPI   C2A12498  10.982   5.185   7.104 -0.0997  0.2007 -0.1112
  887loPI   C3A12499  11.004   5.017   7.480  0.2242 -0.0383 -0.5738
  887loPI   C4A12500  11.002   5.015   7.973 -0.0556  0.1789 -0.2727
  887loPI   C5A12501  11.179   5.010   8.346 -0.0624 -0.2260  0.1083
  887loPI   C6A12502  11.251   5.319   8.579 -0.0819  0.2002  0.1995
  887loPI   C1B12503  11.317   4.853   6.850  0.0050  0.0526 -0.3205
  887loPI   C2B12504  11.439   4.787   7.238  0.1635  0.2642 -0.0752
  887loPI   C3B12505  11.403   4.877   7.702 -0.1928 -0.1651 -0.2787
  887loPI   C4B12506  11.456   5.238   8.027 -0.2376  0.0381 -0.0541
  888loPI    C112507  14.267   3.136   5.902 -0.0678  0.0846  0.0363
  888loPI    C212508  14.173   2.877   5.611  0.1334 -0.1204  0.1502
  888loPI    C312509  14.460   3.150   5.552  0.0770 -0.0696  0.1086
  888loPI   PO412510  14.293   2.977   6.131  0.0095  0.1301  0.1391
  888loPI   GL112511  14.249   2.640   6.447 -0.0110 -0.1460  0.1194
  888loPI   GL212512  14.127   2.338   6.331  0.0217 -0.0473 -0.0252
  888loPI   C1A12513  14.347   2.481   6.835  0.0402 -0.2896  0.1681
  888loPI   C2A12514  14.318   2.384   7.299  0.0489 -0.1277  0.2809
  888loPI   C3A12515  14.272   2.480   7.736  0.3856 -0.0750  0.2738
  888loPI   C4A12516  14.506   2.506   8.139 -0.2145 -0.1461 -0.1298
  888loPI   C5A12517  14.846   2.598   8.422  0.0180  0.2124  0.0243
  888loPI   C6A12518  15.201   2.964   8.499  0.0296  0.0657 -0.0499
  888loPI   C1B12519  13.885   2.085   6.703  0.4463 -0.1274  0.0344
  888loPI   C2B12520  13.918   2.048   7.164  0.0978 -0.0352  0.3167
  888loPI   C3B12521  13.924   2.166   7.639  0.0054  0.0398  0.0653
  888loPI   C4B12522  14.077   2.060   7.938  0.1086 -0.1873  0.0848
  889loPI    C112523  14.565  12.326   5.547  0.1609  0.2338 -0.1539
  889loPI    C212524  14.278  12.167   5.317  0.0651  0.1198  0.0421
  889loPI    C312525  14.234  12.535   5.466  0.2273  0.2834 -0.3020
  889loPI   PO412526  14.662  12.081   5.743  0.2377  0.0513  0.2294
  889loPI   GL112527  14.520  11.838   6.138 -0.0612 -0.2509 -0.2734
  889loPI   GL212528  14.589  11.530   6.087  0.2327 -0.3314  0.3664
  889loPI   C1A12529  14.408  11.900   6.502  0.3632 -0.2882 -0.1543
  889loPI   C2A12530  14.383  11.806   6.937 -0.1395  0.1667 -0.2992
  889loPI   C3A12531  14.431  11.793   7.400 -0.0503  0.0048 -0.0203
  889loPI   C4A12532  14.366  11.829   7.772 -0.1291 -0.2325  0.0344
  889loPI   C5A12533  14.531  11.907   8.176  0.0373 -0.0757 -0.2031
  889loPI   C6A12534  14.693  11.893   8.464 -0.1468  0.2860 -0.2630
  889loPI   C1B12535  14.733  11.524   6.498 -0.2072 -0.0461  0.1591
  889loPI   C2B12536  14.755  11.450   6.870 -0.0983  0.0514  0.0946
  889loPI   C3B12537  14.749  11.291   7.250 -0.0094  0.2464 -0.2923
  889loPI   C4B12538  14.584  11.381   7.679 -0.1133  0.2632 -0.1617
  890loPI    C112539   1.647   6.756   5.702 -0.3187 -0.1441 -0.0031
  890loPI    C212540   1.908   7.018   5.550 -0.3128 -0.0293  0.2009
  890loPI    C312541   1.643   6.838   5.311 -0.2439  0.0788  0.0411
  890loPI   PO412542   1.692   6.834   5.960 -0.0070 -0.4478  0.0782
  890loPI   GL112543   2.097   6.613   6.321  0.1230  0.0379  0.1784
  890loPI   GL212544   2.271   6.693   6.421  0.0830  0.0494  0.0107
  890loPI   C1A12545   1.854   6.854   6.821 -0.0115 -0.4139 -0.1208
  890loPI   C2A12546   1.661   6.989   7.146  0.1106 -0.1819 -0.0625
  890loPI   C3A12547   1.597   7.010   7.562 -0.1652 -0.2975  0.0244
  890loPI   C4A12548   1.420   7.143   7.889  0.0967 -0.2260 -0.0545
  890loPI   C5A12549   1.133   7.208   8.274 -0.1156  0.0016  0.0311
  890loPI   C6A12550   1.071   6.984   8.698 -0.0889 -0.2399 -0.1205
  890loPI   C1B12551   2.314   6.674   6.909  0.2524  0.0455  0.0263
  890loPI   C2B12552   2.101   6.772   7.252 -0.2761 -0.1518 -0.2020
  890loPI   C3B12553   1.998   6.612   7.587 -0.2816 -0.1894 -0.0428
  890loPI   C4B12554   1.768   6.722   8.028 -0.1628 -0.2587  0.1645
  891loPI    C112555  12.279  11.707   5.636 -0.1101 -0.0660 -0.1273
  891loPI    C212556  12.600  11.667   5.400 -0.0329 -0.1407 -0.0110
  891loPI    C312557  12.248  11.778   5.244  0.0875  0.1046 -0.1137
  891loPI   PO412558  12.392  11.863   5.836 -0.1909 -0.2285 -0.2459
  891loPI   GL112559  12.793  11.920   6.209 -0.0192 -0.2273  0.0845
  891loPI   GL212560  12.573  11.985   6.421  0.0131  0.1405 -0.2541
  891loPI   C1A12561  13.109  11.797   6.549 -0.0823 -0.0017  0.0346
  891loPI   C2A12562  13.179  11.763   7.025 -0.0964  0.1385  0.2815
  891loPI   C3A12563  13.084  11.786   7.403  0.0122  0.0008 -0.0674
  891loPI   C4A12564  13.090  11.587   7.750  0.1192  0.1256 -0.0511
  891loPI   C5A12565  13.273  11.436   8.055  0.1954  0.1322 -0.1984
  891loPI   C6A12566  12.986  11.309   8.389 -0.0478  0.2959 -0.2594
  891loPI   C1B12567  12.641  11.857   6.871 -0.1120 -0.1928 -0.1796
  891loPI   C2B12568  12.562  11.918   7.338 -0.0461  0.2516  0.2343
  891loPI   C3B12569  12.509  11.828   7.809 -0.0876 -0.0147 -0.0737
  891loPI   C4B12570  12.414  12.077   8.126  0.0786  0.0014 -0.2072
  892loPI    C112571  13.415  15.966   5.327  0.3660 -0.0623 -0.0475
  892loPI    C212572  13.356  16.003   4.933 -0.0217  0.1076  0.0218
  892loPI    C312573  13.114  15.770   5.151  0.3101 -0.1407  0.1330
  892loPI   PO412574  13.434  16.228   5.434  0.2714 -0.0527 -0.0743
  892loPI   GL112575  13.603  16.323   5.942  0.0431 -0.0138  0.2954
  892loPI   GL212576  13.851  16.151   5.913 -0.0676 -0.3234  0.1916
  892loPI   C1A12577  13.538  16.468   6.387 -0.1322 -0.1637  0.0232
  892loPI   C2A12578  13.733  16.521   6.850  0.0379  0.0544  0.0573
  892loPI   C3A12579  13.841  16.420   7.231 -0.1068 -0.1410 -0.0349
  892loPI   C4A12580  13.870  16.544   7.648 -0.1799  0.0922  0.0477
  892loPI   C5A12581  13.950  16.344   7.972 -0.3922  0.3253  0.0648
  892loPI   C6A12582  14.156  15.955   8.065  0.1160  0.2367  0.0448
  892loPI   C1B12583  14.008  16.328   6.345  0.0047  0.0680  0.3072
  892loPI   C2B12584  14.034  16.147   6.616 -0.2475  0.1129  0.0115
  892loPI   C3B12585  14.180  16.077   6.999 -0.0117  0.0230 -0.1837
  892loPI   C4B12586  14.176  16.116   7.474  0.1167  0.1908  0.1487
  893loPI    C112587  11.983   9.216   5.540  0.0391  0.2792 -0.0011
  893loPI    C212588  12.287   9.346   5.316  0.3193 -0.0548  0.1748
  893loPI    C312589  12.217   8.954   5.349 -0.1363  0.0178  0.1357
  893loPI   PO412590  12.065   9.338   5.748  0.1145 -0.1125  0.0115
  893loPI   GL112591  11.969   9.476   6.214 -0.0478 -0.3799 -0.1402
  893loPI   GL212592  11.948   9.753   6.252 -0.1120 -0.4100  0.2013
  893loPI   C1A12593  11.981   9.273   6.612 -0.3142 -0.1534 -0.0445
  893loPI   C2A12594  12.297   8.925   6.651  0.0549 -0.0296 -0.1829
  893loPI   C3A12595  12.671   8.784   6.779 -0.0841 -0.1922 -0.1407
  893loPI   C4A12596  12.713   8.533   7.134  0.1596 -0.3544 -0.0205
  893loPI   C5A12597  12.566   8.696   7.548  0.0924  0.0382 -0.2165
  893loPI   C6A12598  12.403   8.722   7.905 -0.0056 -0.1769 -0.0953
  893loPI   C1B12599  12.084   9.743   6.744  0.0977 -0.0793  0.1721
  893loPI   C2B12600  12.365   9.676   7.103 -0.0899 -0.2232 -0.1088
  893loPI   C3B12601  12.332   9.646   7.605 -0.1260 -0.0388 -0.2804
  893loPI   C4B12602  12.269   9.626   8.033 -0.0815 -0.0663  0.2666
  894loPI    C112603  10.647  13.219   6.053 -0.0454  0.0189  0.0363
  894loPI    C212604  10.714  13.551   5.841 -0.0042 -0.0182 -0.0093
  894loPI    C312605  10.859  13.201   5.714  0.1451 -0.0178  0.1563
  894loPI   PO412606  10.678  13.307   6.371  0.1281 -0.1002  0.0315
  894loPI   GL112607  10.925  13.193   6.665 -0.4137  0.0515  0.1312
  894loPI   GL212608  11.141  13.433   6.609 -0.0343  0.0156  0.1299
  894loPI   C1A12609  10.987  13.193   7.028  0.0106 -0.1062 -0.0566
  894loPI   C2A12610  11.139  13.155   7.421  0.3575  0.1112 -0.2011
  894loPI   C3A12611  11.270  13.090   7.816  0.1838 -0.0565  0.1565
  894loPI   C4A12612  11.404  13.255   8.178 -0.1581 -0.2040 -0.0589
  894loPI   C5A12613  11.777  13.352   8.407 -0.0239  0.2059  0.1903
  894loPI   C6A12614  11.943  13.642   8.791 -0.0902 -0.0807  0.4132
  894loPI   C1B12615  11.247  13.609   6.976 -0.0058  0.0134  0.2954
  894loPI   C2B12616  11.352  13.602   7.309  0.2928  0.0583  0.1253
  894loPI   C3B12617  11.472  13.526   7.708  0.1451 -0.4687 -0.1485
  894loPI   C4B12618  11.539  13.863   7.983 -0.0999  0.3458 -0.0522
  895loPI    C112619  10.416  17.352   5.825 -0.0230  0.1193  0.0739
  895loPI    C212620  10.576  17.571   5.531  0.0943 -0.0950 -0.0241
  895loPI    C312621  10.387  17.229   5.446 -0.0972 -0.0289  0.1267
  895loPI   PO412622  10.309  17.487   5.988 -0.0862 -0.1894 -0.2406
  895loPI   GL112623  10.371  17.536   6.468  0.1386 -0.2464  0.2203
  895loPI   GL212624  10.448  17.807   6.402  0.0288  0.3625 -0.0714
  895loPI   C1A12625  10.524  17.354   6.770 -0.0440 -0.0012 -0.2550
  895loPI   C2A12626  10.661  17.402   7.191  0.2513  0.2071 -0.0472
  895loPI   C3A12627  10.709  17.441   7.627 -0.0984  0.0626  0.1334
  895loPI   C4A12628  10.804  17.708   8.050  0.0967  0.1769 -0.2029
  895loPI   C5A12629  10.823  17.831   8.426  0.0300  0.3786 -0.0859
  895loPI   C6A12630  10.644  17.906   8.896 -0.0040  0.1127  0.0510
  895loPI   C1B12631  10.610  18.001   6.822 -0.1316 -0.0191 -0.0175
  895loPI   C2B12632  10.674  18.133   7.214 -0.0266 -0.0447 -0.1431
  895loPI   C3B12633  10.733  18.113   7.608 -0.0714  0.0250 -0.0254
  895loPI   C4B12634  10.577  18.147   8.069 -0.1455  0.0189 -0.0900
  896loPI    C112635  13.031   0.191   5.541 -0.3719  0.1441 -0.0211
  896loPI    C212636  12.814  -0.080   5.741 -0.0824 -0.0561  0.0274
  896loPI    C312637  12.945  -0.161   5.371  0.2417 -0.1015  0.1483
  896loPI   PO412638  13.211   0.213   5.677  0.1286 -0.0597 -0.0820
  896loPI   GL112639  13.373   0.288   6.005  0.0499  0.2440 -0.1400
  896loPI   GL212640  13.144  -0.027   6.183 -0.1012 -0.0986  0.0384
  896loPI   C1A12641  13.249   0.481   6.302 -0.0086 -0.4706  0.1706
  896loPI   C2A12642  13.300   0.535   6.761 -0.0631 -0.2109  0.1278
  896loPI   C3A12643  13.355   0.690   7.116  0.0946 -0.0029  0.1884
  896loPI   C4A12644  13.332   0.816   7.521  0.1247 -0.2979  0.0189
  896loPI   C5A12645  13.445   0.583   7.818 -0.0206  0.0931  0.0484
  896loPI   C6A12646  13.724   0.591   8.212 -0.0833 -0.0889  0.2693
  896loPI   C1B12647  13.172   0.092   6.612 -0.1635 -0.0940 -0.0840
  896loPI   C2B12648  13.233   0.074   6.987  0.0459 -0.0505  0.1156
  896loPI   C3B12649  13.376   0.172   7.385 -0.2269  0.0659 -0.0378
  896loPI   C4B12650  13.428   0.107   7.769 -0.2433  0.3133  0.1056
  897loPI    C112651  14.716   7.651   5.807  0.0991 -0.2069  0.2688
  897loPI    C212652  14.881   7.401   5.542  0.0225  0.1162 -0.0927
  897loPI    C312653  14.786   7.774   5.433 -0.0327  0.2493  0.3876
  897loPI   PO412654  14.784   7.594   6.023  0.1824 -0.2449 -0.0384
  897loPI   GL112655  14.938   7.542   6.518 -0.0310 -0.1164 -0.2526
  897loPI   GL212656  14.966   7.804   6.492 -0.0046 -0.1644  0.0935
  897loPI   C1A12657  15.019   7.294   6.769  0.0053 -0.0776  0.0518
  897loPI   C2A12658  15.310   6.842   7.032  0.0556 -0.2767  0.0658
  897loPI   C3A12659  15.336   6.747   7.472  0.0216 -0.2304 -0.1430
  897loPI   C4A12660  15.532   6.804   7.853 -0.0991 -0.0500 -0.0069
  897loPI   C5A12661  15.658   6.790   8.302  0.2212 -0.0071 -0.0758
  897loPI   C6A12662  15.819   6.458   8.651  0.0078 -0.0808  0.0324
  897loPI   C1B12663  14.583   7.872   6.790 -0.0357  0.4037 -0.0526
  897loPI   C2B12664  14.374   8.000   7.166 -0.1278  0.0861  0.0112
  897loPI   C3B12665  14.577   7.935   7.486  0.1820 -0.1791 -0.1196
  897loPI   C4B12666  14.726   7.974   7.947 -0.1464  0.1437  0.2997
  898loPI    C112667   1.873   2.711   5.953  0.0128  0.2668  0.2059
  898loPI    C212668   2.214   2.632   6.147  0.1668 -0.0761 -0.1883
  898loPI    C312669   2.225   2.799   5.784 -0.0773 -0.2327 -0.2703
  898loPI   PO412670   1.724   2.586   6.084  0.2493  0.0896 -0.0949
  898loPI   GL112671   1.759   2.525   6.539  0.2185 -0.1981  0.1745
  898loPI   GL212672   1.844   2.177   6.660  0.1448 -0.2306  0.1293
  898loPI   C1A12673   1.591   2.846   6.856 -0.1048 -0.0545  0.0954
  898loPI   C2A12674   1.559   2.833   7.324 -0.3804 -0.3430 -0.1862
  898loPI   C3A12675   1.632   2.854   7.749  0.1273  0.2208  0.2948
  898loPI   C4A12676   1.786   3.007   8.190  0.0201  0.2567 -0.1081
  898loPI   C5A12677   1.943   3.398   8.301  0.2632  0.1232 -0.1443
  898loPI   C6A12678   2.306   3.632   8.417 -0.0010  0.3563 -0.0391
  898loPI   C1B12679   1.412   2.325   6.987  0.0997 -0.0237  0.1387
  898loPI   C2B12680   1.295   2.055   7.373  0.2075 -0.4101  0.0769
  898loPI   C3B12681   1.425   1.596   7.470 -0.1419  0.2487  0.0662
  898loPI   C4B12682   1.766   1.446   7.350  0.2535 -0.0735  0.1267
  899loPI    C112683   9.355  11.390   6.070 -0.1725  0.0613 -0.1576
  899loPI    C212684   9.731  11.267   6.010 -0.1461  0.0691 -0.0120
  899loPI    C312685   9.621  11.635   5.899 -0.0554  0.1402  0.1309
  899loPI   PO412686   9.200  11.238   5.998 -0.2866 -0.0172 -0.1366
  899loPI   GL112687   9.055  10.874   6.243  0.1316 -0.2682  0.0491
  899loPI   GL212688   8.786  11.138   6.342 -0.0809 -0.0075  0.1383
  899loPI   C1A12689   8.845  10.848   6.724  0.0491  0.3638  0.0610
  899loPI   C2A12690   8.820  10.841   7.185  0.1984  0.0994  0.0539
  899loPI   C3A12691   8.534  11.178   7.290 -0.0423 -0.0388  0.2949
  899loPI   C4A12692   8.177  11.067   7.521 -0.1222 -0.1694 -0.2446
  899loPI   C5A12693   8.175  10.818   7.868 -0.1287  0.1183  0.0876
  899loPI   C6A12694   8.088  10.485   8.227 -0.0037 -0.0788 -0.1460
  899loPI   C1B12695   8.384  11.124   6.581 -0.2646  0.0330  0.1856
  899loPI   C2B12696   8.067  11.124   6.969  0.0546 -0.0532 -0.0217
  899loPI   C3B12697   7.731  11.227   7.362  0.0345 -0.0199 -0.0446
  899loPI   C4B12698   7.618  11.225   7.751 -0.1921  0.0022 -0.1212
  900loPI    C112699   5.670   7.602   5.522  0.1310 -0.0151 -0.0298
  900loPI    C212700   5.637   7.310   5.250 -0.1954 -0.0211  0.0134
  900loPI    C312701   5.556   7.689   5.148  0.0810  0.0352 -0.0030
  900loPI   PO412702   5.857   7.404   5.654  0.0101 -0.2886 -0.0385
  900loPI   GL112703   5.759   7.480   6.020 -0.0262  0.0206  0.0385
  900loPI   GL212704   5.929   7.689   6.231  0.0337  0.1436 -0.1516
  900loPI   C1A12705   5.879   7.169   6.407 -0.0724  0.0349  0.2399
  900loPI   C2A12706   6.101   7.139   6.756 -0.1318  0.0544  0.1463
  900loPI   C3A12707   5.976   7.117   7.201 -0.2333  0.1031 -0.0680
  900loPI   C4A12708   5.953   7.079   7.653  0.0537  0.2026  0.0062
  900loPI   C5A12709   5.877   7.071   8.105  0.0841  0.0567 -0.1184
  900loPI   C6A12710   5.824   7.100   8.524 -0.2300 -0.1330  0.0365
  900loPI   C1B12711   5.930   7.632   6.586 -0.0775  0.1672  0.0637
  900loPI   C2B12712   5.844   7.627   6.940 -0.1094 -0.0608 -0.1186
  900loPI   C3B12713   5.802   7.588   7.386  0.0677 -0.2903 -0.1453
  900loPI   C4B12714   5.799   7.583   7.871  0.0227 -0.0764 -0.2868
  901loPI    C112715   1.199  17.668   5.928 -0.0836  0.0093  0.0333
  901loPI    C212716   1.335  18.032   6.021  0.2897 -0.1936  0.3086
  901loPI    C312717   1.592  17.733   5.958  0.0018 -0.3319 -0.2777
  901loPI   PO412718   0.998  17.625   6.075 -0.1367  0.1216 -0.4422
  901loPI   GL112719   0.832  17.842   6.378  0.1538 -0.0286  0.1017
  901loPI   GL212720   0.628  18.043   6.454 -0.0641 -0.2750 -0.0653
  901loPI   C1A12721   1.022  17.879   6.781  0.1594  0.0153 -0.1095
  901loPI   C2A12722   1.260  17.967   7.143  0.1390  0.0583  0.1692
  901loPI   C3A12723   1.452  18.151   7.380 -0.0453  0.0989 -0.0817
  901loPI   C4A12724   1.528  18.408   7.704  0.0351 -0.0036 -0.0868
  901loPI   C5A12725   1.607  18.600   8.067 -0.1817 -0.1904  0.0053
  901loPI   C6A12726   1.419  18.714   8.494  0.1355 -0.3757  0.3539
  901loPI   C1B12727   0.571  18.027   6.890  0.4887  0.1763 -0.0618
  901loPI   C2B12728   0.760  17.857   7.236 -0.2533 -0.1661  0.3668
  901loPI   C3B12729   0.802  17.931   7.655 -0.1389  0.1492  0.4100
  901loPI   C4B12730   0.828  17.902   8.076  0.0404 -0.1997  0.2888
  902loPI    C112731  13.600   3.425   5.800  0.2469 -0.2397  0.1004
  902loPI    C212732  13.365   3.279   5.512 -0.1189  0.1001  0.2179
  902loPI    C312733  13.555   3.626   5.457  0.2954 -0.1300  0.1577
  902loPI   PO412734  13.784   3.193   5.924 -0.1193 -0.1099 -0.0588
  902loPI   GL112735  13.802   3.034   6.338 -0.0452 -0.0635 -0.0129
  902loPI   GL212736  13.902   3.292   6.470 -0.0477 -0.1210  0.0388
  902loPI   C1A12737  13.440   2.969   6.600  0.0907 -0.0116 -0.0693
  902loPI   C2A12738  13.314   2.933   6.989  0.2031  0.0340  0.0492
  902loPI   C3A12739  13.406   2.885   7.430 -0.0115 -0.3718 -0.1534
  902loPI   C4A12740  13.338   3.024   7.928  0.2188  0.0629 -0.2246
  902loPI   C5A12741  13.275   3.113   8.308 -0.1462 -0.0125  0.1784
  902loPI   C6A12742  13.553   3.440   8.496 -0.2514  0.0589 -0.3101
  902loPI   C1B12743  13.784   3.219   6.864  0.1791  0.3473 -0.2131
  902loPI   C2B12744  13.758   3.266   7.255  0.0436  0.1741 -0.0987
  902loPI   C3B12745  13.754   3.164   7.654  0.0600  0.2974 -0.0154
  902loPI   C4B12746  13.768   3.229   8.109 -0.0889  0.3445 -0.2713
  903loPI    C112747   7.565  17.683   6.000  0.1833 -0.1978  0.1271
  903loPI    C212748   7.890  17.780   5.788  0.0482 -0.2090 -0.0876
  903loPI    C312749   7.751  17.405   5.780  0.1797 -0.2666  0.2107
  903loPI   PO412750   7.619  17.788   6.186 -0.0204 -0.0797 -0.1657
  903loPI   GL112751   7.284  17.858   6.515  0.1951  0.0998  0.1826
  903loPI   GL212752   6.926  17.903   6.583  0.3977  0.2752 -0.0899
  903loPI   C1A12753   7.546  17.888   6.864 -0.1255 -0.2290  0.0942
  903loPI   C2A12754   7.795  17.921   7.218  0.0737 -0.1749  0.2469
  903loPI   C3A12755   7.831  17.861   7.617 -0.3326  0.1087  0.3522
  903loPI   C4A12756   7.791  17.503   7.910 -0.0523  0.3692 -0.2789
  903loPI   C5A12757   7.647  17.402   8.275 -0.2140  0.0622  0.0965
  903loPI   C6A12758   7.810  17.042   8.576  0.0227  0.1132  0.0137
  903loPI   C1B12759   7.036  17.896   6.997 -0.2488  0.2086 -0.1176
  903loPI   C2B12760   7.047  17.884   7.385 -0.0459 -0.1069  0.1850
  903loPI   C3B12761   6.934  17.962   7.793 -0.0823 -0.1725  0.2088
  903loPI   C4B12762   6.928  18.046   8.172 -0.2745 -0.1416  0.2811
  904loPI    C112763   5.077  17.109   5.877  0.1228 -0.1833  0.0183
  904loPI    C212764   5.421  16.929   5.782  0.2663  0.1362 -0.0804
  904loPI    C312765   5.411  17.325   5.836 -0.0391  0.0993  0.1580
  904loPI   PO412766   4.896  17.028   6.112  0.3363 -0.0245 -0.2384
  904loPI   GL112767   4.805  17.323   6.467  0.1198  0.1184 -0.1171
  904loPI   GL212768   4.429  17.160   6.490  0.0799  0.0436  0.1571
  904loPI   C1A12769   5.168  17.396   6.736  0.0496 -0.0296  0.4974
  904loPI   C2A12770   5.129  17.484   7.224 -0.1092  0.0454 -0.2828
  904loPI   C3A12771   5.242  17.590   7.589  0.3173  0.3027  0.1603
  904loPI   C4A12772   5.182  17.565   8.070  0.2792  0.0634 -0.1305
  904loPI   C5A12773   5.182  17.804   8.442 -0.0562  0.0573  0.0802
  904loPI   C6A12774   4.801  18.036   8.632 -0.0523  0.1157  0.1418
  904loPI   C1B12775   4.403  16.992   6.806 -0.0525  0.1291 -0.1944
  904loPI   C2B12776   4.407  16.809   7.192  0.0643 -0.2050  0.0281
  904loPI   C3B12777   4.144  16.739   7.579  0.1998  0.1458  0.2941
  904loPI   C4B12778   4.151  16.877   8.058 -0.1205  0.0018  0.2062
  905loPI    C112779   1.524   9.811   6.108 -0.0627 -0.1128  0.1700
  905loPI    C212780   1.755   9.934   5.806 -0.1994  0.0660  0.1367
  905loPI    C312781   1.508   9.624   5.754  0.0334 -0.1292  0.1741
  905loPI   PO412782   1.532  10.067   6.211 -0.1380 -0.1204  0.1575
  905loPI   GL112783   1.191  10.031   6.530  0.1003 -0.2202 -0.2121
  905loPI   GL212784   1.427  10.048   6.782  0.0440 -0.1871  0.1583
  905loPI   C1A12785   0.968  10.281   6.808 -0.1187 -0.1646 -0.1861
  905loPI   C2A12786   0.813  10.575   7.175 -0.0717  0.0644  0.2016
  905loPI   C3A12787   0.691  10.660   7.564  0.0773 -0.1067  0.0285
  905loPI   C4A12788   0.864  10.924   7.907  0.1100 -0.0764 -0.1744
  905loPI   C5A12789   1.173  10.919   8.208  0.0858 -0.0134 -0.0544
  905loPI   C6A12790   1.603  11.077   8.417  0.4189 -0.2142 -0.1024
  905loPI   C1B12791   1.500   9.694   7.096 -0.1460 -0.3549  0.3933
  905loPI   C2B12792   1.726   9.731   7.484  0.0183 -0.1957  0.0270
  905loPI   C3B12793   1.999   9.534   7.823  0.0919 -0.2691  0.1398
  905loPI   C4B12794   2.278   9.231   8.092  0.2113 -0.3287 -0.1854
  906loPI    C112795   7.525  16.986   5.874  0.1906 -0.1754  0.0780
  906loPI    C212796   7.162  16.945   6.036  0.1814 -0.0498  0.0900
  906loPI    C312797   7.205  16.943   5.638  0.1591  0.0024  0.0872
  906loPI   PO412798   7.660  16.900   6.027  0.0695  0.1720 -0.1377
  906loPI   GL112799   7.522  16.812   6.392 -0.0209 -0.1068 -0.0149
  906loPI   GL212800   7.734  16.988   6.618  0.1188 -0.0363 -0.2121
  906loPI   C1A12801   7.367  16.564   6.761  0.0022 -0.0427 -0.0137
  906loPI   C2A12802   7.312  16.524   7.222 -0.0629  0.0603  0.0085
  906loPI   C3A12803   7.224  16.569   7.584 -0.4532  0.0010 -0.0197
  906loPI   C4A12804   7.119  16.637   7.990  0.0505  0.5829 -0.0430
  906loPI   C5A12805   6.848  16.839   8.404  0.0389  0.2046  0.1283
  906loPI   C6A12806   6.489  16.964   8.489 -0.0098 -0.2012  0.3272
  906loPI   C1B12807   7.741  16.813   7.063  0.1055  0.1845 -0.1527
  906loPI   C2B12808   7.671  16.744   7.474 -0.1784 -0.4345 -0.2080
  906loPI   C3B12809   7.710  16.566   7.951 -0.0051  0.0757  0.1571
  906loPI   C4B12810   7.906  16.483   8.348  0.0239  0.3638  0.3309
  907loPI    C112811  11.558   9.987   5.585 -0.0476  0.1376  0.0967
  907loPI    C212812  11.675   9.673   5.803  0.1228  0.1982  0.0936
  907loPI    C312813  11.289   9.720   5.712  0.1019 -0.0351  0.0552
  907loPI   PO412814  11.763  10.162   5.675 -0.2000  0.0132 -0.0015
  907loPI   GL112815  11.977  10.170   6.013  0.0250  0.2932 -0.1243
  907loPI   GL212816  12.360  10.155   6.165  0.4859 -0.1140 -0.1115
  907loPI   C1A12817  11.792  10.165   6.439  0.0563 -0.0470 -0.1101
  907loPI   C2A12818  11.610  10.011   6.776  0.0286 -0.1911  0.0997
  907loPI   C3A12819  11.561  10.073   7.100  0.1213  0.0752  0.1138
  907loPI   C4A12820  11.401  10.117   7.504 -0.4648  0.0702  0.0655
  907loPI   C5A12821  11.277  10.014   7.893  0.1299  0.0716 -0.0297
  907loPI   C6A12822  10.975   9.802   8.156 -0.1842 -0.0711  0.0529
  907loPI   C1B12823  12.660  10.389   6.348 -0.0278 -0.0183  0.1756
  907loPI   C2B12824  12.801  10.597   6.705  0.0788  0.0849  0.1610
  907loPI   C3B12825  12.953  10.490   7.178 -0.2757 -0.0554 -0.0688
  907loPI   C4B12826  13.061  10.552   7.536  0.1328  0.1589 -0.2012
  908loPI    C112827   0.888  14.838   5.730 -0.0334  0.3014 -0.0505
  908loPI    C212828   0.984  14.877   5.344 -0.1528  0.0865 -0.1036
  908loPI    C312829   0.619  14.980   5.470 -0.1213  0.1350 -0.0520
  908loPI   PO412830   1.137  14.745   5.817  0.2850  0.0919  0.2525
  908loPI   GL112831   1.452  14.812   6.081  0.1117  0.1640 -0.3934
  908loPI   GL212832   1.490  14.521   6.279  0.3967  0.0523 -0.0218
  908loPI   C1A12833   1.435  15.030   6.440  0.2106 -0.0296  0.0615
  908loPI   C2A12834   1.442  15.063   6.874 -0.2056  0.3558 -0.0049
  908loPI   C3A12835   1.373  15.163   7.360  0.3071 -0.0180 -0.0806
  908loPI   C4A12836   1.435  15.193   7.726  0.1072  0.2497 -0.0787
  908loPI   C5A12837   1.178  14.998   7.992 -0.0870  0.0433  0.0435
  908loPI   C6A12838   0.876  14.977   8.326  0.1869  0.4795  0.2289
  908loPI   C1B12839   1.627  14.633   6.625 -0.1218 -0.2172  0.2666
  908loPI   C2B12840   1.727  14.627   7.091  0.3170 -0.1883 -0.0365
  908loPI   C3B12841   1.878  14.330   7.354 -0.3224  0.1425 -0.0448
  908loPI   C4B12842   2.084  14.087   7.659  0.1895 -0.0948  0.1012
  909loPI    C112843  16.986   2.652   5.836 -0.2229  0.0789 -0.0992
  909loPI    C212844  17.077   2.664   5.446  0.1328 -0.4290 -0.0425
  909loPI    C312845  17.352   2.548   5.713 -0.0680  0.0295  0.3823
  909loPI   PO412846  16.765   2.894   5.842 -0.0788  0.1226  0.3338
  909loPI   GL112847  16.594   2.989   6.209 -0.2118 -0.3427  0.0329
  909loPI   GL212848  16.614   2.641   6.210 -0.0890 -0.1081 -0.0378
  909loPI   C1A12849  16.858   3.189   6.425  0.0476 -0.3919 -0.1900
  909loPI   C2A12850  16.767   3.164   6.839  0.1466  0.4001 -0.0422
  909loPI   C3A12851  16.908   3.065   7.191  0.1262 -0.3492  0.2552
  909loPI   C4A12852  17.011   3.081   7.663 -0.0177 -0.0341 -0.0269
  909loPI   C5A12853  17.208   2.941   7.908 -0.2104  0.1520  0.0137
  909loPI   C6A12854  17.092   2.709   8.385 -0.0763  0.0640 -0.0447
  909loPI   C1B12855  16.752   2.682   6.710  0.1401  0.2144 -0.0376
  909loPI   C2B12856  16.650   2.623   7.196  0.0001  0.0638 -0.1842
  909loPI   C3B12857  16.668   2.615   7.644  0.2200  0.0158  0.4118
  909loPI   C4B12858  16.706   2.807   7.986  0.0053 -0.2196  0.0391
  910loPI    C112859  12.813   2.658   5.694 -0.2436 -0.2221  0.3246
  910loPI    C212860  13.031   2.333   5.614 -0.0508 -0.0465  0.1227
  910loPI    C312861  12.642   2.340   5.523 -0.0241 -0.1687 -0.0041
  910loPI   PO412862  12.890   2.773   5.905  0.0364  0.0624 -0.1287
  910loPI   GL112863  13.031   2.976   6.359 -0.0495  0.2777 -0.1491
  910loPI   GL212864  12.766   3.182   6.308 -0.0284  0.0509  0.4931
  910loPI   C1A12865  12.944   3.172   6.762 -0.0685  0.0315  0.0457
  910loPI   C2A12866  12.935   3.087   7.284  0.0711  0.2006 -0.3665
  910loPI   C3A12867  12.869   3.257   7.720  0.1111 -0.3488 -0.1666
  910loPI   C4A12868  12.833   3.222   8.168  0.0244 -0.0345  0.3215
  910loPI   C5A12869  12.513   3.080   8.434  0.1673  0.1386 -0.1647
  910loPI   C6A12870  12.104   3.102   8.393  0.1712  0.1208 -0.0623
  910loPI   C1B12871  12.583   2.852   6.524 -0.0871  0.1403 -0.0252
  910loPI   C2B12872  12.618   2.894   6.966  0.1997  0.0723  0.0423
  910loPI   C3B12873  12.488   2.840   7.438  0.0428  0.0304 -0.0002
  910loPI   C4B12874  12.454   2.788   7.911  0.1489  0.0011  0.1592
  911loPI    C112875  10.206   1.415   5.764 -0.1438 -0.1467  0.1642
  911loPI    C212876  10.000   1.162   5.532  0.1885 -0.2349 -0.0403
  911loPI    C312877  10.383   1.087   5.621  0.1363 -0.0753  0.3398
  911loPI   PO412878  10.077   1.463   5.937 -0.0540 -0.2087  0.1265
  911loPI   GL112879  10.141   1.713   6.219  0.0667 -0.0063  0.2709
  911loPI   GL212880   9.849   1.522   6.352  0.1698 -0.3604  0.0294
  911loPI   C1A12881  10.240   1.649   6.695 -0.2572 -0.1349  0.3856
  911loPI   C2A12882  10.247   1.643   7.009  0.0969  0.2921  0.1141
  911loPI   C3A12883  10.246   1.760   7.378 -0.1924 -0.0842  0.2993
  911loPI   C4A12884  10.237   1.664   7.800 -0.1611  0.0735 -0.5285
  911loPI   C5A12885  10.208   1.631   8.213 -0.2477  0.0220 -0.1051
  911loPI   C6A12886  10.168   1.232   8.368 -0.0435 -0.2117 -0.6988
  911loPI   C1B12887   9.730   1.473   6.786  0.2937 -0.3908  0.2622
  911loPI   C2B12888   9.773   1.526   7.242 -0.1487  0.1255 -0.0053
  911loPI   C3B12889   9.725   1.639   7.633 -0.4803 -0.1814 -0.0096
  911loPI   C4B12890   9.734   1.665   8.041 -0.1714 -0.0239 -0.0924
  912loPI    C112891  16.806  16.796   5.632  0.3085 -0.3910 -0.2510
  912loPI    C212892  17.178  16.942   5.620  0.1990 -0.0907 -0.0996
  912loPI    C312893  16.925  17.015   5.319  0.1772 -0.0569 -0.0731
  912loPI   PO412894  16.715  16.815   5.933 -0.1729 -0.1168  0.0182
  912loPI   GL112895  16.550  16.928   6.255  0.0245  0.0284 -0.1291
  912loPI   GL212896  16.365  17.201   6.236  0.0137  0.2292  0.2586
  912loPI   C1A12897  16.538  16.745   6.585 -0.1400 -0.3903 -0.0363
  912loPI   C2A12898  16.520  16.583   6.997 -0.1433 -0.2764  0.0587
  912loPI   C3A12899  16.719  16.381   7.432 -0.1699 -0.2466 -0.0544
  912loPI   C4A12900  16.934  16.204   7.837 -0.0460 -0.0900  0.3830
  912loPI   C5A12901  17.255  16.063   8.137  0.0720 -0.0351 -0.1750
  912loPI   C6A12902  17.328  16.039   8.626 -0.2655  0.2859  0.1310
  912loPI   C1B12903  16.239  17.177   6.694 -0.0158 -0.0098 -0.2294
  912loPI   C2B12904  16.285  17.091   7.129  0.0281 -0.0191  0.0600
  912loPI   C3B12905  16.170  17.056   7.548 -0.1695  0.0316 -0.5887
  912loPI   C4B12906  16.459  16.728   7.729 -0.1794 -0.0782 -0.2010
  913loPI    C112907  17.551  16.887   6.014  0.0339  0.1006  0.0355
  913loPI    C212908  17.811  16.616   5.873  0.0889  0.1478  0.0458
  913loPI    C312909  17.681  16.911   5.636 -0.0902  0.0236 -0.0125
  913loPI   PO412910  17.504  16.758   6.248 -0.0176  0.3038 -0.0273
  913loPI   GL112911  17.516  16.606   6.645 -0.0198  0.0653  0.2880
  913loPI   GL212912  17.918  16.559   6.614  0.1154 -0.1449 -0.1594
  913loPI   C1A12913  17.370  16.204   6.875 -0.1057 -0.1008  0.1658
  913loPI   C2A12914  17.565  16.035   7.248  0.0674 -0.0427  0.3619
  913loPI   C3A12915  17.604  16.031   7.684 -0.1827  0.1348 -0.0549
  913loPI   C4A12916  17.969  15.881   7.921 -0.1966 -0.0739  0.1906
  913loPI   C5A12917  18.117  15.458   8.231  0.2075 -0.3437  0.1359
  913loPI   C6A12918  18.192  15.201   8.487 -0.1556 -0.3805  0.1438
  913loPI   C1B12919  18.206  16.758   6.968  0.0956 -0.0960 -0.0756
  913loPI   C2B12920  18.361  16.717   7.392  0.1157  0.1075 -0.2145
  913loPI   C3B12921  18.667  16.619   7.725  0.0998 -0.2856 -0.0983
  913loPI   C4B12922  18.921  16.428   7.975 -0.1433  0.2226 -0.0773
  914loPI    C112923   0.729  13.988   5.845 -0.1139  0.0423  0.0278
  914loPI    C212924   0.683  13.592   5.810 -0.1296  0.0340  0.1403
  914loPI    C312925   0.541  13.836   5.527 -0.2175 -0.0348  0.1251
  914loPI   PO412926   0.647  14.023   6.044 -0.1239 -0.1550 -0.0004
  914loPI   GL112927   0.440  13.751   6.277  0.1711  0.0353  0.1391
  914loPI   GL212928   0.201  13.568   6.308  0.1439  0.1576  0.1778
  914loPI   C1A12929   0.639  13.707   6.653 -0.0320  0.1569 -0.0393
  914loPI   C2A12930   0.441  13.873   7.053  0.0254 -0.2746  0.3135
  914loPI   C3A12931   0.261  13.549   7.374 -0.2700 -0.0209  0.0161
  914loPI   C4A12932   0.063  13.695   7.636 -0.0935  0.1416 -0.3158
  914loPI   C5A12933  -0.028  13.764   8.061 -0.0004  0.1140 -0.0994
  914loPI   C6A12934  -0.199  13.594   8.451 -0.0062 -0.1265 -0.1018
  914loPI   C1B12935   0.122  13.568   6.755  0.0205 -0.6477 -0.0125
  914loPI   C2B12936  -0.091  13.718   7.057 -0.1158 -0.2322  0.0310
  914loPI   C3B12937  -0.377  13.831   7.391  0.0599  0.0998  0.0828
  914loPI   C4B12938  -0.722  13.630   7.584  0.2111  0.0700  0.1291
  915loPI    C112939  15.111   4.754   5.680  0.3282 -0.0064  0.1695
  915loPI    C212940  15.366   4.921   5.421  0.0925  0.0693 -0.0173
  915loPI    C312941  15.112   4.638   5.297  0.1154 -0.0381  0.1775
  915loPI   PO412942  15.217   4.661   5.859  0.1791  0.0061 -0.0213
  915loPI   GL112943  15.223   4.764   6.191  0.0171 -0.2055 -0.0423
  915loPI   GL212944  15.459   4.952   6.325  0.1514  0.1391  0.0453
  915loPI   C1A12945  15.151   4.797   6.660  0.2014 -0.0156 -0.0863
  915loPI   C2A12946  15.131   4.750   7.030  0.0383 -0.2623 -0.1694
  915loPI   C3A12947  14.978   4.964   7.364  0.0787  0.1607  0.0211
  915loPI   C4A12948  14.815   4.875   7.845  0.0686  0.1258  0.3851
  915loPI   C5A12949  14.668   4.772   8.250  0.0440 -0.3622  0.0619
  915loPI   C6A12950  14.397   4.826   8.593 -0.3568 -0.0225 -0.1351
  915loPI   C1B12951  15.658   5.063   6.758 -0.2550 -0.0573 -0.0837
  915loPI   C2B12952  15.605   5.192   7.203  0.0658 -0.0423  0.1770
  915loPI   C3B12953  15.389   5.359   7.550  0.0239 -0.1369  0.0852
  915loPI   C4B12954  15.248   5.117   7.862 -0.0874  0.1148  0.1135
  916loPI    C112955  12.149  17.668   5.453 -0.2536 -0.3488 -0.3133
  916loPI    C212956  11.921  17.787   5.760  0.2418 -0.1292 -0.0168
  916loPI    C312957  11.790  17.830   5.384 -0.2563 -0.1413  0.1483
  916loPI   PO412958  12.343  17.470   5.651 -0.4256  0.0944 -0.1215
  916loPI   GL112959  12.508  17.399   6.025  0.4320  0.1197  0.3220
  916loPI   GL212960  12.227  17.198   6.107 -0.2107  0.1893 -0.2367
  916loPI   C1A12961  12.691  17.480   6.441  0.0644 -0.2191  0.0546
  916loPI   C2A12962  12.834  17.401   6.924  0.3983 -0.3137 -0.1199
  916loPI   C3A12963  12.803  17.633   7.228 -0.0662 -0.0166  0.0976
  916loPI   C4A12964  12.907  17.721   7.557  0.0004  0.2403 -0.0997
  916loPI   C5A12965  12.937  17.683   7.953 -0.1288  0.2520 -0.2047
  916loPI   C6A12966  12.980  17.495   8.327  0.0130  0.0826 -0.0139
  916loPI   C1B12967  12.276  17.334   6.526  0.1557  0.2239  0.1218
  916loPI   C2B12968  12.356  17.436   6.992 -0.1488 -0.0963  0.0005
  916loPI   C3B12969  12.450  17.402   7.487  0.1035 -0.2991  0.1534
  916loPI   C4B12970  12.508  17.439   7.880 -0.1961  0.0256  0.1760
  917loPI    C112971   7.724   5.374   5.409 -0.0789 -0.4264 -0.0700
  917loPI    C212972   8.036   5.137   5.329  0.2393 -0.0477  0.0121
  917loPI    C312973   7.965   5.458   5.101  0.0495  0.0011  0.1374
  917loPI   PO412974   7.754   5.481   5.672 -0.2228 -0.1870  0.1239
  917loPI   GL112975   8.148   5.500   5.969 -0.0858 -0.0712 -0.1613
  917loPI   GL212976   8.141   5.784   6.091 -0.1669  0.4226 -0.0998
  917loPI   C1A12977   8.238   5.375   6.363 -0.0790  0.0274  0.0619
  917loPI   C2A12978   8.072   5.197   6.805  0.0508  0.1875  0.2110
  917loPI   C3A12979   7.891   5.186   7.338 -0.0351  0.2107 -0.0178
  917loPI   C4A12980   7.932   4.978   7.711  0.0169  0.1119  0.1113
  917loPI   C5A12981   7.892   5.244   8.099  0.2839  0.0524 -0.1245
  917loPI   C6A12982   7.916   5.400   8.586  0.2248 -0.2022  0.1486
  917loPI   C1B12983   8.111   5.991   6.457  0.2604 -0.2367 -0.1872
  917loPI   C2B12984   8.170   6.064   6.905  0.2139  0.0611 -0.0831
  917loPI   C3B12985   8.452   6.293   7.205  0.1686 -0.3052 -0.2676
  917loPI   C4B12986   8.647   6.295   7.560 -0.0455  0.4455  0.0179
  918loPI    C112987   5.109   4.693   5.784  0.0048 -0.1245 -0.1223
  918loPI    C212988   4.959   4.925   5.495  0.2368  0.0850 -0.0782
  918loPI    C312989   4.725   4.657   5.678 -0.0118  0.2207 -0.1915
  918loPI   PO412990   5.244   4.857   5.951  0.2446  0.1787  0.2742
  918loPI   GL112991   5.146   5.142   6.277 -0.0783 -0.1853 -0.0536
  918loPI   GL212992   5.390   5.260   6.132 -0.1918 -0.0751  0.2491
  918loPI   C1A12993   5.059   4.934   6.728  0.0503 -0.1375 -0.3983
  918loPI   C2A12994   5.069   5.089   7.102  0.1978 -0.1271  0.1496
  918loPI   C3A12995   5.140   4.993   7.466 -0.0908  0.1875  0.0808
  918loPI   C4A12996   5.232   4.728   7.850  0.3552 -0.1263  0.0824
  918loPI   C5A12997   5.435   4.490   8.143  0.0610  0.3663 -0.0368
  918loPI   C6A12998   5.647   4.309   8.494 -0.0297 -0.0797 -0.0928
  918loPI   C1B12999   5.423   5.356   6.566  0.2365  0.0419 -0.2480
  918loPI   C2B13000   5.442   5.403   6.890 -0.2561 -0.0962  0.2323
  918loPI   C3B13001   5.471   5.378   7.287  0.1922 -0.0109 -0.1270
  918loPI   C4B13002   5.359   5.311   7.747  0.0131  0.2271  0.1043
  919loPI    C113003  14.866  11.549   5.624 -0.0832 -0.0580  0.0289
  919loPI    C213004  14.617  11.241   5.678 -0.0807 -0.0780 -0.0713
  919loPI    C313005  14.477  11.590   5.542 -0.0654 -0.0685 -0.0628
  919loPI   PO413006  15.031  11.474   5.818  0.0833 -0.0263 -0.2296
  919loPI   GL113007  15.221  11.473   6.139  0.1110  0.1368 -0.0083
  919loPI   GL213008  15.465  11.214   6.141 -0.2383  0.1644  0.1064
  919loPI   C1A13009  15.221  11.526   6.515  0.2228  0.3563  0.2681
  919loPI   C2A13010  15.259  11.522   6.965  0.0211  0.0944  0.0350
  919loPI   C3A13011  15.350  11.466   7.421  0.3044  0.0575  0.1308
  919loPI   C4A13012  15.350  11.544   7.795 -0.1105 -0.2985 -0.4505
  919loPI   C5A13013  15.384  11.532   8.280 -0.0052  0.3762  0.0309
  919loPI   C6A13014  15.613  11.192   8.255  0.0132 -0.1894  0.0098
  919loPI   C1B13015  15.650  11.077   6.464  0.0513  0.2578  0.0415
  919loPI   C2B13016  15.655  11.107   6.905 -0.0291  0.2172 -0.1631
  919loPI   C3B13017  15.606  11.029   7.353  0.0939 -0.4174  0.0308
  919loPI   C4B13018  15.507  11.064   7.796 -0.3026 -0.0292  0.2876
  920loPI    C113019   6.014   2.946   5.935 -0.0213  0.0309 -0.0176
  920loPI    C213020   5.797   3.282   5.928  0.0677  0.0878 -0.0798
  920loPI    C313021   5.643   2.941   5.786 -0.1503  0.0234  0.2974
  920loPI   PO413022   6.023   2.899   6.180 -0.0802  0.0266 -0.1330
  920loPI   GL113023   5.980   2.792   6.598  0.3496 -0.1500 -0.3495
  920loPI   GL213024   5.889   2.977   6.676 -0.0367 -0.1733  0.1062
  920loPI   C1A13025   6.219   2.651   7.005  0.0174 -0.0841  0.0514
  920loPI   C2A13026   6.186   2.761   7.437 -0.2868  0.1360 -0.0762
  920loPI   C3A13027   6.170   2.781   7.863  0.1885 -0.0274 -0.3055
  920loPI   C4A13028   6.237   2.790   8.343 -0.0014 -0.3428  0.0540
  920loPI   C5A13029   6.109   2.429   8.629 -0.0497 -0.2866 -0.2798
  920loPI   C6A13030   5.843   2.076   8.574 -0.1044  0.1156 -0.0191
  920loPI   C1B13031   5.986   3.051   7.071 -0.1196 -0.4113  0.0197
  920loPI   C2B13032   5.841   3.126   7.506 -0.1793 -0.0066  0.1145
  920loPI   C3B13033   5.729   3.113   7.900 -0.0909 -0.4142 -0.0994
  920loPI   C4B13034   5.517   3.144   8.304  0.2741 -0.1191 -0.2826
  921loPI    C113035   5.556  11.799   5.872 -0.3355  0.0403  0.1164
  921loPI    C213036   5.241  11.555   5.909 -0.2239 -0.0736  0.3319
  921loPI    C313037   5.311  11.740   5.561 -0.3691 -0.2659  0.1985
  921loPI   PO413038   5.547  11.972   6.078  0.3008  0.1885  0.3102
  921loPI   GL113039   5.406  12.067   6.480  0.2774  0.0310  0.1354
  921loPI   GL213040   5.651  12.272   6.628  0.0030  0.0231  0.2216
  921loPI   C1A13041   5.357  11.809   6.761 -0.1550  0.1338 -0.0606
  921loPI   C2A13042   5.334  11.802   7.201  0.0354  0.3001  0.0080
  921loPI   C3A13043   5.343  11.870   7.584  0.1864 -0.0345 -0.0902
  921loPI   C4A13044   5.387  11.796   8.013  0.0381  0.1314  0.3236
  921loPI   C5A13045   5.250  11.725   8.456  0.0059  0.1774  0.0972
  921loPI   C6A13046   5.144  11.483   8.816 -0.2548  0.0170 -0.1540
  921loPI   C1B13047   5.721  12.101   7.072  0.0652  0.1400  0.0232
  921loPI   C2B13048   5.813  11.823   7.263 -0.4517 -0.0410 -0.2144
  921loPI   C3B13049   5.802  11.753   7.698 -0.1183  0.0131  0.3004
  921loPI   C4B13050   5.841  11.529   7.928  0.1251  0.1508 -0.1062
  922loPI    C113051  14.743   1.372   5.393 -0.0003 -0.0455  0.1024
  922loPI    C213052  14.597   1.709   5.235 -0.1068 -0.1031  0.0769
  922loPI    C313053  14.604   1.373   5.018  0.3143 -0.0392 -0.0171
  922loPI   PO413054  14.642   1.362   5.602  0.1657  0.0153  0.1543
  922loPI   GL113055  14.551   1.422   5.993  0.0559 -0.1450 -0.0286
  922loPI   GL213056  14.574   1.047   6.184  0.0862 -0.1272  0.4340
  922loPI   C1A13057  14.545   1.489   6.393 -0.1336  0.2395  0.1345
  922loPI   C2A13058  14.504   1.460   6.835 -0.1876  0.1609  0.1679
  922loPI   C3A13059  14.543   1.469   7.211  0.2646  0.2863  0.0977
  922loPI   C4A13060  14.595   1.435   7.566 -0.2346 -0.1327 -0.0683
  922loPI   C5A13061  14.614   1.457   7.954  0.0940  0.0307 -0.0016
  922loPI   C6A13062  14.736   1.485   8.266 -0.0297 -0.1539  0.0031
  922loPI   C1B13063  14.704   0.966   6.638 -0.0196  0.3241 -0.2110
  922loPI   C2B13064  14.705   1.004   7.019  0.1039 -0.4673  0.0369
  922loPI   C3B13065  14.716   0.952   7.489  0.1263 -0.1823  0.2892
  922loPI   C4B13066  14.708   0.982   7.976  0.0943 -0.3073  0.1802
  923loPI    C113067   4.613   8.269   5.515 -0.0149 -0.1423  0.0434
  923loPI    C213068   4.521   8.419   5.156  0.1652 -0.1092  0.0100
  923loPI    C313069   4.891   8.463   5.302  0.0989 -0.1418  0.1904
  923loPI   PO413070   4.458   8.344   5.751  0.2079  0.0454 -0.4072
  923loPI   GL113071   4.203   8.395   6.115  0.4670  0.0827 -0.1153
  923loPI   GL213072   4.008   8.188   6.175  0.0316 -0.0034 -0.0940
  923loPI   C1A13073   4.212   8.629   6.497 -0.1314 -0.0028 -0.1983
  923loPI   C2A13074   4.264   8.637   6.970 -0.2818  0.1314  0.1010
  923loPI   C3A13075   4.299   8.686   7.401 -0.1902  0.3139 -0.3503
  923loPI   C4A13076   4.272   8.749   7.857 -0.0928 -0.1163 -0.0667
  923loPI   C5A13077   4.400   8.548   8.273 -0.1207 -0.0546 -0.0258
  923loPI   C6A13078   4.599   8.514   8.637 -0.3514  0.1602 -0.0425
  923loPI   C1B13079   3.858   8.228   6.603 -0.2750  0.1347  0.2356
  923loPI   C2B13080   3.848   8.348   7.020 -0.1513  0.2056 -0.2038
  923loPI   C3B13081   3.922   8.412   7.488 -0.3051  0.1399 -0.1246
  923loPI   C4B13082   4.007   8.334   7.957  0.1042 -0.2687  0.1927
  924loPI    C113083   0.989  10.877   5.992  0.1662 -0.0922  0.0406
  924loPI    C213084   0.759  11.203   6.018  0.1785 -0.0926  0.1613
  924loPI    C313085   1.044  11.180   5.738 -0.1089 -0.1814 -0.1296
  924loPI   PO413086   1.054  10.890   6.230  0.2423 -0.2514  0.3668
  924loPI   GL113087   1.185  10.644   6.570 -0.2321 -0.0331  0.1646
  924loPI   GL213088   1.488  10.505   6.549  0.2205 -0.2112  0.3884
  924loPI   C1A13089   1.073  10.945   6.840 -0.0782 -0.1166  0.0006
  924loPI   C2A13090   1.116  10.955   7.221  0.1142  0.4065  0.2710
  924loPI   C3A13091   1.218  10.768   7.577  0.1089 -0.2257  0.1870
  924loPI   C4A13092   1.073  10.439   7.781 -0.3168  0.1309  0.2562
  924loPI   C5A13093   1.070   9.983   7.941  0.0402  0.1301 -0.1079
  924loPI   C6A13094   1.316   9.971   8.333 -0.2428 -0.2003  0.1404
  924loPI   C1B13095   1.357  10.488   6.963 -0.1549 -0.1042  0.1450
  924loPI   C2B13096   1.278  10.322   7.312  0.1514  0.1654  0.1029
  924loPI   C3B13097   1.277   9.949   7.500  0.2351 -0.2597 -0.0184
  924loPI   C4B13098   1.267   9.509   7.666 -0.2319  0.1080 -0.2785
  925loPI    C113099  14.323  13.390   6.001 -0.0241  0.1504 -0.0168
  925loPI    C213100  14.017  13.468   5.756  0.0859  0.1817 -0.1456
  925loPI    C313101  14.389  13.566   5.648  0.1676 -0.0566 -0.0863
  925loPI   PO413102  14.230  13.126   6.135  0.1361  0.0918 -0.0687
  925loPI   GL113103  14.517  12.976   6.340  0.0956 -0.1430  0.2038
  925loPI   GL213104  14.485  13.377   6.484 -0.2211  0.0674  0.1675
  925loPI   C1A13105  14.485  12.925   6.767 -0.2389 -0.0800  0.1848
  925loPI   C2A13106  14.275  12.893   7.171  0.0126  0.2543  0.3376
  925loPI   C3A13107  14.251  12.798   7.580  0.2649  0.0105  0.1309
  925loPI   C4A13108  14.385  12.724   7.921  0.0054 -0.0590 -0.0611
  925loPI   C5A13109  14.755  12.646   8.155  0.5660  0.0404 -0.1637
  925loPI   C6A13110  15.172  12.509   8.084  0.2400 -0.2907  0.2770
  925loPI   C1B13111  14.115  13.437   6.802  0.0110  0.0582  0.1614
  925loPI   C2B13112  13.788  13.567   6.800 -0.2567  0.2917 -0.1833
  925loPI   C3B13113  13.713  13.529   7.227 -0.1179 -0.3068  0.0836
  925loPI   C4B13114  13.890  13.604   7.590  0.0683  0.1907 -0.5044
  926loPI    C113115  10.955   4.021   5.495 -0.1454  0.0422 -0.0491
  926loPI    C213116  10.839   3.661   5.363 -0.0951  0.0091 -0.0034
  926loPI    C313117  11.206   3.796   5.278 -0.1336  0.0737 -0.0681
  926loPI   PO413118  10.908   4.059   5.747 -0.2208 -0.0762 -0.0933
  926loPI   GL113119  11.075   4.434   6.021  0.1569  0.1533  0.1000
  926loPI   GL213120  10.724   4.458   6.122 -0.0778  0.1895 -0.0666
  926loPI   C1A13121  11.088   4.343   6.441 -0.1329  0.1561 -0.2746
  926loPI   C2A13122  11.366   4.315   6.836  0.2879 -0.0826 -0.0646
  926loPI   C3A13123  11.367   4.310   7.304  0.1374 -0.0588 -0.0863
  926loPI   C4A13124  11.593   4.405   7.793  0.0156  0.0315  0.0977
  926loPI   C5A13125  11.489   4.693   8.147 -0.2770 -0.0388 -0.2288
  926loPI   C6A13126  11.681   5.040   8.495  0.1210  0.0544  0.0710
  926loPI   C1B13127  10.694   4.651   6.538 -0.0700 -0.1683 -0.0880
  926loPI   C2B13128  10.857   4.668   6.914  0.3358  0.2084 -0.1772
  926loPI   C3B13129  10.941   4.590   7.247  0.1111 -0.0271 -0.0118
  926loPI   C4B13130  11.039   4.547   7.725  0.2286 -0.3678  0.0907
  927loPI    C113131   2.714   7.228   5.576 -0.1233  0.0837  0.0329
  927loPI    C213132   2.816   7.588   5.434 -0.0142  0.0825  0.1071
  927loPI    C313133   3.091   7.299   5.463 -0.0832  0.0183  0.1243
  927loPI   PO413134   2.593   7.250   5.809  0.2054 -0.1009  0.3101
  927loPI   GL113135   2.471   7.076   6.310 -0.1237 -0.0135 -0.2795
  927loPI   GL213136   2.731   7.215   6.275 -0.1355 -0.1021  0.1690
  927loPI   C1A13137   2.317   7.102   6.741  0.0691 -0.0530 -0.0159
  927loPI   C2A13138   2.412   7.143   7.193 -0.3146  0.0607  0.3590
  927loPI   C3A13139   2.758   7.259   7.553 -0.2147  0.1095  0.1396
  927loPI   C4A13140   2.773   7.282   7.989 -0.0373 -0.3276  0.1542
  927loPI   C5A13141   2.703   7.133   8.331  0.2091 -0.0121 -0.2376
  927loPI   C6A13142   2.655   6.670   8.499  0.1186 -0.3563  0.0022
  927loPI   C1B13143   2.860   7.328   6.648 -0.0417  0.0919 -0.0480
  927loPI   C2B13144   2.905   7.284   7.061  0.3474  0.1043 -0.0189
  927loPI   C3B13145   3.191   7.354   7.356  0.2655  0.0348 -0.0546
  927loPI   C4B13146   3.419   7.601   7.524 -0.0108 -0.0735 -0.1212
  928loPI    C113147   1.981  11.178   5.905 -0.0406 -0.0687 -0.0740
  928loPI    C213148   2.026  11.175   5.507  0.0919 -0.1363 -0.0590
  928loPI    C313149   1.827  10.879   5.688 -0.0114 -0.0798 -0.0796
  928loPI   PO413150   1.895  11.377   5.940 -0.1246  0.0233 -0.0705
  928loPI   GL113151   2.001  11.716   6.136  0.0893  0.2229 -0.1855
  928loPI   GL213152   2.188  11.929   6.124 -0.0397 -0.0029  0.0380
  928loPI   C1A13153   2.241  11.658   6.539 -0.0625  0.1529  0.0526
  928loPI   C2A13154   2.503  11.573   6.876  0.1083  0.5442 -0.0880
  928loPI   C3A13155   2.569  11.819   7.233 -0.1043 -0.2511 -0.1584
  928loPI   C4A13156   2.348  11.841   7.619 -0.1127  0.0813  0.0387
  928loPI   C5A13157   2.177  11.941   7.989 -0.0479 -0.1649 -0.1068
  928loPI   C6A13158   2.108  11.562   8.303 -0.0679 -0.1058  0.4363
  928loPI   C1B13159   1.982  12.094   6.546  0.2301  0.2097  0.1406
  928loPI   C2B13160   1.677  12.166   6.867 -0.0921 -0.1532 -0.0606
  928loPI   C3B13161   1.415  12.235   7.203  0.1300  0.1255 -0.0060
  928loPI   C4B13162   1.354  12.476   7.504  0.1147  0.1032  0.3583
  929loPI    C113163   0.353  14.495   5.476  0.0725 -0.1224 -0.0196
  929loPI    C213164   0.738  14.386   5.471  0.1868  0.2534  0.1525
  929loPI    C313165   0.582  14.584   5.160  0.0620 -0.1121 -0.0243
  929loPI   PO413166   0.246  14.281   5.704  0.1329 -0.3124 -0.1961
  929loPI   GL113167   0.198  14.208   6.208  0.0222  0.2283 -0.0614
  929loPI   GL213168  -0.172  14.047   6.225  0.1236 -0.0211 -0.0624
  929loPI   C1A13169   0.322  14.089   6.595  0.1695  0.0013  0.0686
  929loPI   C2A13170   0.067  14.206   6.949  0.0082 -0.2293  0.1481
  929loPI   C3A13171   0.056  14.165   7.365  0.0654 -0.0283 -0.3618
  929loPI   C4A13172  -0.127  14.112   7.731 -0.1104 -0.1401 -0.0895
  929loPI   C5A13173  -0.419  14.162   8.046  0.0261  0.1604  0.2354
  929loPI   C6A13174  -0.624  14.407   8.302  0.0872 -0.1533 -0.2637
  929loPI   C1B13175  -0.222  13.921   6.591 -0.0067  0.3168 -0.1828
  929loPI   C2B13176  -0.572  13.947   6.898  0.0564  0.0244 -0.0190
  929loPI   C3B13177  -0.892  13.712   7.174 -0.1610 -0.0152 -0.3271
  929loPI   C4B13178  -1.226  13.520   7.305  0.1745 -0.1072  0.0960
  930loPI    C113179   2.576  15.701   5.584 -0.2516  0.1310  0.0250
  930loPI    C213180   2.212  15.726   5.422 -0.2241 -0.2131 -0.0980
  930loPI    C313181   2.528  15.872   5.226 -0.2899  0.0689  0.0004
  930loPI   PO413182   2.491  15.510   5.777 -0.2459  0.0491  0.0086
  930loPI   GL113183   2.437  15.531   6.237  0.1666 -0.1596  0.0754
  930loPI   GL213184   2.333  15.832   6.244 -0.1715 -0.1123 -0.0126
  930loPI   C1A13185   2.492  15.266   6.555  0.0083 -0.1179 -0.1381
  930loPI   C2A13186   2.379  15.415   6.937 -0.0413 -0.1203 -0.2922
  930loPI   C3A13187   2.628  15.560   7.337  0.0626 -0.4742  0.1175
  930loPI   C4A13188   2.629  15.554   7.873  0.1475  0.0902 -0.2298
  930loPI   C5A13189   2.806  15.402   8.182 -0.1454  0.0228  0.0720
  930loPI   C6A13190   3.216  15.294   8.270  0.1191 -0.2255  0.0169
  930loPI   C1B13191   2.610  15.800   6.619  0.1780 -0.0017 -0.4285
  930loPI   C2B13192   2.719  15.942   7.078  0.1128  0.0104  0.1685
  930loPI   C3B13193   2.472  16.037   7.507  0.1881  0.2080 -0.0902
  930loPI   C4B13194   2.189  15.781   7.831  0.2107 -0.0792 -0.1706
  931loPI    C113195  15.170  12.463   5.537 -0.0881  0.2579 -0.0557
  931loPI    C213196  14.930  12.354   5.236  0.0558 -0.2040 -0.0119
  931loPI    C313197  15.176  12.667   5.193 -0.1941 -0.0336 -0.2343
  931loPI   PO413198  14.970  12.518   5.715 -0.2683 -0.1200 -0.2463
  931loPI   GL113199  14.853  12.373   6.124  0.1275  0.0244 -0.1699
  931loPI   GL213200  14.942  12.638   6.251  0.3338 -0.0550  0.3687
  931loPI   C1A13201  14.837  12.131   6.416  0.0389  0.3180  0.3041
  931loPI   C2A13202  14.932  11.978   6.868 -0.0272 -0.1417  0.1198
  931loPI   C3A13203  14.920  11.780   7.269 -0.1243  0.3467  0.1171
  931loPI   C4A13204  14.875  11.825   7.702 -0.1856  0.1851 -0.1407
  931loPI   C5A13205  15.140  11.934   8.084 -0.0890 -0.1773  0.1397
  931loPI   C6A13206  15.313  12.115   8.472  0.0031 -0.0639 -0.1728
  931loPI   C1B13207  14.867  12.590   6.610  0.2815 -0.1469 -0.4326
  931loPI   C2B13208  15.067  12.421   6.925  0.1918 -0.2475 -0.0240
  931loPI   C3B13209  15.013  12.274   7.326 -0.1416 -0.0739 -0.2846
  931loPI   C4B13210  15.265  12.222   7.687  0.1984 -0.0650  0.1718
  932loPI    C113211   6.453   5.762   5.782  0.0935  0.0632 -0.1451
  932loPI    C213212   6.213   5.617   6.067 -0.0769  0.2784 -0.1768
  932loPI    C313213   6.107   5.588   5.683  0.0940  0.1000 -0.2118
  932loPI   PO413214   6.482   6.003   5.879 -0.0517 -0.2252 -0.1310
  932loPI   GL113215   6.485   5.942   6.343 -0.3686 -0.1460  0.2673
  932loPI   GL213216   6.263   6.137   6.452  0.0701 -0.3791 -0.0941
  932loPI   C1A13217   6.733   5.793   6.770 -0.0281 -0.1371  0.1535
  932loPI   C2A13218   6.723   5.950   7.138 -0.1031  0.1113 -0.1685
  932loPI   C3A13219   6.677   5.919   7.558  0.3119  0.1188  0.2583
  932loPI   C4A13220   6.641   5.922   7.959 -0.3364  0.3160 -0.0219
  932loPI   C5A13221   6.623   6.103   8.310 -0.3141  0.2091 -0.0795
  932loPI   C6A13222   6.722   6.334   8.660 -0.1205  0.0324  0.1715
  932loPI   C1B13223   6.284   6.061   6.896  0.1400 -0.0672 -0.2845
  932loPI   C2B13224   6.256   6.155   7.249 -0.2004  0.1878  0.3086
  932loPI   C3B13225   6.111   6.028   7.647  0.1896 -0.1440 -0.1632
  932loPI   C4B13226   6.141   6.123   8.016  0.1679  0.2032 -0.0339
  933loPI    C113227   5.422  10.531   5.893 -0.1072  0.0156 -0.1893
  933loPI    C213228   5.036  10.484   5.986 -0.0553  0.0620  0.0556
  933loPI    C313229   5.168  10.378   5.624 -0.3000  0.0601 -0.0352
  933loPI   PO413230   5.521  10.384   6.086  0.2549  0.1123 -0.3272
  933loPI   GL113231   5.652  10.117   6.265 -0.1188  0.2376  0.1569
  933loPI   GL213232   5.943  10.200   6.427 -0.0384 -0.1709  0.0885
  933loPI   C1A13233   5.520   9.949   6.668 -0.2114  0.0355 -0.0399
  933loPI   C2A13234   5.481   9.966   7.071 -0.1758  0.1964  0.0858
  933loPI   C3A13235   5.514  10.050   7.473 -0.0715  0.3620  0.2436
  933loPI   C4A13236   5.530  10.119   7.920  0.2386  0.1495 -0.1979
  933loPI   C5A13237   5.481  10.308   8.252 -0.1125  0.1538  0.4625
  933loPI   C6A13238   5.695  10.633   8.486  0.0742  0.0243  0.0300
  933loPI   C1B13239   5.965  10.129   6.805 -0.0362 -0.0788  0.1712
  933loPI   C2B13240   6.020  10.049   7.304  0.1691  0.2272  0.0860
  933loPI   C3B13241   5.999   9.950   7.794  0.2550 -0.0346 -0.1414
  933loPI   C4B13242   5.974   9.946   8.199  0.0777 -0.1146 -0.0248
  934loPI    C113243  14.851  16.977   5.544 -0.2161  0.2007  0.0019
  934loPI    C213244  14.572  17.147   5.312 -0.0893  0.0095 -0.2978
  934loPI    C313245  14.936  17.311   5.340 -0.1538  0.1226 -0.1017
  934loPI   PO413246  14.843  16.979   5.790  0.0448 -0.0841  0.0323
  934loPI   GL113247  14.685  16.722   6.145 -0.3244  0.0670  0.0479
  934loPI   GL213248  15.010  16.719   6.233 -0.1213 -0.1968 -0.0724
  934loPI   C1A13249  14.521  16.469   6.323  0.0691 -0.1711 -0.3119
  934loPI   C2A13250  14.492  16.555   6.718  0.0409 -0.2974  0.0902
  934loPI   C3A13251  14.443  16.502   7.189 -0.0838  0.0383  0.1527
  934loPI   C4A13252  14.336  16.798   7.591  0.0649 -0.0660 -0.0141
  934loPI   C5A13253  14.194  16.787   7.994 -0.4295 -0.1100 -0.0736
  934loPI   C6A13254  14.159  16.897   8.390  0.3592 -0.0667  0.2557
  934loPI   C1B13255  14.990  16.680   6.778  0.3042 -0.5492 -0.2439
  934loPI   C2B13256  15.104  16.717   7.171 -0.1484  0.1855 -0.1733
  934loPI   C3B13257  14.908  16.519   7.391  0.0173 -0.0001 -0.2383
  934loPI   C4B13258  14.772  16.518   7.796  0.0199  0.0777 -0.0091
  935loPI    C113259  10.666   6.665   5.764  0.1823 -0.0710  0.0223
  935loPI    C213260  10.752   6.329   5.564 -0.0460 -0.0883 -0.0496
  935loPI    C313261  10.475   6.581   5.422 -0.2106 -0.1008  0.2425
  935loPI   PO413262  10.560   6.588   6.023 -0.4011  0.0995 -0.1221
  935loPI   GL113263  10.828   6.670   6.309 -0.1515 -0.2982  0.1861
  935loPI   GL213264  11.131   6.609   6.358 -0.0439 -0.1817 -0.0099
  935loPI   C1A13265  10.662   6.462   6.636 -0.1210 -0.0344  0.1738
  935loPI   C2A13266  10.581   6.441   6.985  0.0392 -0.2607  0.2028
  935loPI   C3A13267  10.428   6.370   7.421 -0.0007  0.0980 -0.1276
  935loPI   C4A13268  10.602   6.382   7.855  0.1952 -0.3100 -0.2648
  935loPI   C5A13269  10.548   6.453   8.316  0.2279 -0.3474  0.1385
  935loPI   C6A13270  10.495   6.505   8.774  0.1280 -0.1751  0.0683
  935loPI   C1B13271  11.152   6.524   6.824  0.0198 -0.2300 -0.0067
  935loPI   C2B13272  11.105   6.595   7.258  0.1289  0.2824 -0.5071
  935loPI   C3B13273  10.866   6.650   7.540 -0.1474 -0.2020  0.0093
  935loPI   C4B13274  10.741   6.886   7.957 -0.1190  0.0815  0.1398
  936loPI    C113275  15.188  13.029   5.577 -0.2006 -0.1052 -0.2995
  936loPI    C213276  14.881  13.027   5.835  0.1759  0.2461  0.1705
  936loPI    C313277  14.885  13.286   5.530 -0.0644  0.1312  0.0672
  936loPI   PO413278  15.339  12.924   5.785  0.0967  0.2106 -0.0080
  936loPI   GL113279  15.422  13.042   6.183 -0.4156 -0.4924  0.2634
  936loPI   GL213280  15.155  13.160   6.207 -0.2020  0.2523 -0.3256
  936loPI   C1A13281  15.653  13.066   6.585 -0.0305 -0.0220 -0.2468
  936loPI   C2A13282  15.704  13.094   6.974 -0.2017 -0.1428  0.0382
  936loPI   C3A13283  15.580  13.166   7.360 -0.0859 -0.1712  0.0618
  936loPI   C4A13284  15.559  13.167   7.829  0.0886  0.3887  0.0896
  936loPI   C5A13285  15.644  12.770   8.106 -0.0057  0.0656  0.1699
  936loPI   C6A13286  15.598  12.309   8.102  0.1694  0.3539  0.1623
  936loPI   C1B13287  14.952  13.132   6.566  0.1203 -0.1748  0.3190
  936loPI   C2B13288  14.884  12.968   7.005  0.1157  0.0268 -0.0658
  936loPI   C3B13289  14.774  12.757   7.348  0.1749 -0.0410  0.0226
  936loPI   C4B13290  14.881  12.719   7.663 -0.0130 -0.3019  0.3394
  937loPI    C113291   6.653   3.362   6.294  0.1251 -0.0497 -0.1193
  937loPI    C213292   6.312   3.207   6.435 -0.0179  0.2444 -0.1342
  937loPI    C313293   6.313   3.403   6.086  0.2377 -0.0553 -0.3072
  937loPI   PO413294   6.730   3.506   6.476  0.2136 -0.1263  0.1456
  937loPI   GL113295   7.080   3.606   6.687  0.0602  0.0914 -0.3727
  937loPI   GL213296   6.972   3.248   6.803 -0.0620 -0.0617 -0.2155
  937loPI   C1A13297   7.241   3.919   7.028  0.0168 -0.2011  0.0822
  937loPI   C2A13298   7.484   4.131   7.337 -0.0375  0.1091  0.0200
  937loPI   C3A13299   7.557   3.965   7.672  0.1220 -0.1911  0.0750
  937loPI   C4A13300   7.855   4.139   8.018  0.0266  0.2323 -0.0040
  937loPI   C5A13301   8.132   4.186   8.256 -0.1842  0.0297 -0.0519
  937loPI   C6A13302   8.439   3.956   8.534  0.0827 -0.0105 -0.0531
  937loPI   C1B13303   6.887   3.418   7.154  0.3366 -0.3165 -0.2085
  937loPI   C2B13304   6.829   3.447   7.618  0.0709 -0.2185 -0.0024
  937loPI   C3B13305   6.839   3.688   7.957  0.0505  0.0830  0.2499
  937loPI   C4B13306   7.025   3.880   8.439 -0.4479  0.2634 -0.0674
  938loPI    C113307   9.879   4.737   5.886 -0.1123  0.3914  0.1857
  938loPI    C213308   9.681   4.741   5.538  0.2211  0.1936 -0.0126
  938loPI    C313309   9.916   5.049   5.638  0.0368  0.3021  0.0941
  938loPI   PO413310   9.742   4.640   6.104 -0.1901  0.1684  0.1674
  938loPI   GL113311   9.395   4.846   6.398  0.0027  0.1026  0.0169
  938loPI   GL213312   9.295   5.150   6.335  0.1169  0.2287  0.0767
  938loPI   C1A13313   9.499   4.918   6.821 -0.0670  0.2345 -0.0727
  938loPI   C2A13314   9.224   5.105   7.070  0.0421 -0.0329 -0.1042
  938loPI   C3A13315   9.167   5.539   7.369  0.0040 -0.2031 -0.0819
  938loPI   C4A13316   9.397   5.585   7.838 -0.2199  0.1286 -0.0888
  938loPI   C5A13317   9.686   5.363   8.074  0.1699 -0.2996 -0.3029
  938loPI   C6A13318  10.227   5.362   8.085 -0.0851  0.1168 -0.0286
  938loPI   C1B13319   9.356   5.432   6.733 -0.1770  0.0666  0.1716
  938loPI   C2B13320   9.626   5.383   7.055 -0.0909  0.1114  0.1050
  938loPI   C3B13321   9.768   5.522   7.426 -0.0363 -0.0561 -0.1477
  938loPI   C4B13322  10.109   5.647   7.676  0.1800  0.0763  0.0539
  939loPI    C113323  12.022  10.661   5.551  0.0086 -0.1466  0.0699
  939loPI    C213324  11.623  10.688   5.534  0.0071 -0.1122  0.1562
  939loPI    C313325  11.850  10.981   5.384  0.0024 -0.2170 -0.0603
  939loPI   PO413326  12.045  10.619   5.817 -0.0591 -0.0285 -0.1443
  939loPI   GL113327  12.141  10.593   6.258  0.1698  0.3560 -0.1912
  939loPI   GL213328  11.823  10.632   6.217 -0.0587 -0.2014  0.0051
  939loPI   C1A13329  12.178  10.404   6.717 -0.0403  0.1121 -0.1470
  939loPI   C2A13330  11.996  10.276   7.041 -0.1553 -0.2368 -0.0249
  939loPI   C3A13331  11.821  10.360   7.496  0.0226 -0.1779  0.1941
  939loPI   C4A13332  12.055  10.588   7.743  0.0836  0.3312 -0.1955
  939loPI   C5A13333  12.395  10.800   7.929 -0.0907 -0.2452 -0.1001
  939loPI   C6A13334  12.866  10.825   7.923  0.1492 -0.1019 -0.4158
  939loPI   C1B13335  11.673  10.586   6.619 -0.1676 -0.1930 -0.4588
  939loPI   C2B13336  11.567  10.621   7.138 -0.0926  0.0393  0.1572
  939loPI   C3B13337  11.217  10.573   7.415  0.0023  0.0369 -0.0848
  939loPI   C4B13338  10.933  10.355   7.641 -0.3299 -0.2980  0.0626
  940loPI    C113339  17.039  12.978   5.952 -0.0091  0.2529  0.0395
  940loPI    C213340  16.828  13.072   5.626 -0.0752 -0.0207  0.0009
  940loPI    C313341  16.769  12.720   5.808  0.1479  0.0198  0.1549
  940loPI   PO413342  17.272  13.115   5.877 -0.1779  0.0368  0.1795
  940loPI   GL113343  17.432  13.177   6.299  0.0706  0.0801  0.0507
  940loPI   GL213344  17.441  12.809   6.335 -0.0152  0.1196  0.0107
  940loPI   C1A13345  17.389  13.425   6.652 -0.0860  0.2667  0.1002
  940loPI   C2A13346  17.198  13.405   7.040  0.1111  0.0784 -0.0602
  940loPI   C3A13347  17.394  13.355   7.492  0.3952  0.3105  0.2543
  940loPI   C4A13348  17.701  13.262   7.835  0.3825  0.1450  0.1849
  940loPI   C5A13349  17.777  13.272   8.148 -0.1946  0.1155 -0.0457
  940loPI   C6A13350  18.035  12.918   8.342  0.1350 -0.3783  0.0649
  940loPI   C1B13351  17.329  12.847   6.792  0.0610  0.2932 -0.0364
  940loPI   C2B13352  17.294  12.865   7.256 -0.0856 -0.0059  0.2644
  940loPI   C3B13353  17.294  12.899   7.696  0.2702  0.2058  0.0348
  940loPI   C4B13354  17.352  13.056   8.131 -0.1530  0.0221  0.0959
  941loPI    C113355   4.395  10.558   5.899  0.0694  0.0259 -0.1221
  941loPI    C213356   4.396  10.882   5.666  0.0543  0.1143 -0.0005
  941loPI    C313357   4.202  10.553   5.549 -0.1722  0.2439  0.0047
  941loPI   PO413358   4.294  10.603   6.085 -0.2031 -0.0077 -0.0760
  941loPI   GL113359   4.092  10.499   6.489 -0.1484 -0.2946 -0.1381
  941loPI   GL213360   3.739  10.348   6.470 -0.0473 -0.1030  0.1191
  941loPI   C1A13361   4.116  10.238   6.817 -0.1587 -0.0730 -0.2244
  941loPI   C2A13362   4.129  10.257   7.253 -0.1229  0.1469  0.1816
  941loPI   C3A13363   4.085  10.274   7.717 -0.0573 -0.1996  0.0261
  941loPI   C4A13364   3.898  10.321   8.138 -0.0269  0.1374  0.0387
  941loPI   C5A13365   3.666  10.133   8.553  0.0013  0.0884  0.0269
  941loPI   C6A13366   3.477   9.929   8.275  0.1157  0.0707 -0.0692
  941loPI   C1B13367   3.737  10.628   6.830 -0.0875  0.2110 -0.2811
  941loPI   C2B13368   3.790  10.637   7.261  0.1443  0.1777  0.0378
  941loPI   C3B13369   3.712  10.558   7.628 -0.0642 -0.3081  0.1096
  941loPI   C4B13370   3.446  10.469   7.929  0.0044 -0.2820  0.1956
  942loPI    C113371  15.673   6.709   6.059  0.3373  0.3357  0.0004
  942loPI    C213372  15.636   6.603   5.675  0.0422  0.0282  0.1091
  942loPI    C313373  15.494   6.955   5.800 -0.1883 -0.0264  0.0051
  942loPI   PO413374  15.616   6.520   6.206 -0.1377  0.0088 -0.1477
  942loPI   GL113375  15.804   6.575   6.614 -0.1785 -0.0525  0.0362
  942loPI   GL213376  15.920   6.249   6.618  0.0196 -0.2565 -0.2287
  942loPI   C1A13377  16.217   6.626   6.902  0.0720  0.0159  0.0990
  942loPI   C2A13378  16.372   6.761   7.288  0.2256 -0.1187 -0.0327
  942loPI   C3A13379  16.400   6.745   7.752  0.0077  0.1895 -0.0349
  942loPI   C4A13380  16.662   6.705   8.088  0.0903 -0.1730  0.1597
  942loPI   C5A13381  16.766   6.503   8.418 -0.0372 -0.0469 -0.0331
  942loPI   C6A13382  17.096   6.399   8.603  0.1501  0.2851  0.0630
  942loPI   C1B13383  16.118   5.931   6.935 -0.1533 -0.0212  0.0263
  942loPI   C2B13384  16.090   5.846   7.406 -0.1290 -0.0204  0.0109
  942loPI   C3B13385  15.857   5.905   7.922  0.0311 -0.0571  0.1468
  942loPI   C4B13386  15.975   6.127   8.327  0.0837  0.0431 -0.0290
  943loPI    C113387   2.687   0.691   5.854 -0.0190  0.0107  0.0140
  943loPI    C213388   3.045   0.738   5.682  0.0228  0.1846  0.1455
  943loPI    C313389   2.720   0.680   5.456  0.1277  0.0637  0.0242
  943loPI   PO413390   2.727   0.913   6.115 -0.0713  0.1266 -0.0352
  943loPI   GL113391   2.992   0.867   6.438 -0.2365 -0.1216 -0.1253
  943loPI   GL213392   2.829   1.085   6.603  0.1111 -0.1622 -0.2366
  943loPI   C1A13393   3.381   0.781   6.691 -0.2320 -0.1340 -0.0926
  943loPI   C2A13394   3.511   0.816   7.212  0.0792 -0.0248 -0.0242
  943loPI   C3A13395   3.625   0.701   7.562  0.1680 -0.2246 -0.1995
  943loPI   C4A13396   3.532   0.642   8.069  0.0042 -0.1580  0.4428
  943loPI   C5A13397   3.733   0.415   8.380 -0.0020 -0.2219 -0.0610
  943loPI   C6A13398   3.863   0.001   8.518  0.4125  0.0640  0.1461
  943loPI   C1B13399   2.702   1.234   7.024  0.1351  0.0434  0.2802
  943loPI   C2B13400   2.786   1.211   7.408  0.1032 -0.2449  0.2843
  943loPI   C3B13401   2.891   1.272   7.856 -0.1338  0.2113 -0.1738
  943loPI   C4B13402   2.669   1.292   8.247  0.3285 -0.1933 -0.1916
  944loPI    C113403   7.376   0.913   5.803  0.0840  0.2660  0.0240
  944loPI    C213404   7.643   1.210   5.831  0.1235  0.2441 -0.1108
  944loPI    C313405   7.720   0.893   5.600  0.1383  0.0671  0.1325
  944loPI   PO413406   7.310   0.915   6.064 -0.3891 -0.0726  0.2051
  944loPI   GL113407   7.499   1.129   6.421  0.2861 -0.0193  0.1035
  944loPI   GL213408   7.535   1.086   6.677  0.0816 -0.2309 -0.2657
  944loPI   C1A13409   7.387   1.573   6.715  0.2471  0.1051 -0.4779
  944loPI   C2A13410   7.499   1.517   7.167 -0.0176 -0.2192 -0.2731
  944loPI   C3A13411   7.587   1.563   7.578  0.0871  0.2213 -0.2620
  944loPI   C4A13412   7.413   1.726   7.985 -0.0874  0.0874  0.2640
  944loPI   C5A13413   7.410   2.119   8.162 -0.0143  0.1897 -0.0751
  944loPI   C6A13414   7.334   2.210   8.622 -0.2967  0.0269 -0.1599
  944loPI   C1B13415   7.717   1.077   7.085  0.0600  0.0813  0.0692
  944loPI   C2B13416   7.916   1.167   7.547 -0.0698  0.1874 -0.2647
  944loPI   C3B13417   7.947   1.098   7.979  0.1352  0.0146 -0.0247
  944loPI   C4B13418   8.089   1.375   8.313  0.0153  0.3995 -0.0313
  945loPI    C113419   8.148  13.497   5.873  0.1228 -0.2760 -0.0847
  945loPI    C213420   7.822  13.669   6.029  0.2846  0.0619 -0.1123
  945loPI    C313421   8.129  13.895   5.905  0.5688 -0.2556 -0.0033
  945loPI   PO413422   8.233  13.385   6.168 -0.0673  0.0291 -0.1730
  945loPI   GL113423   8.457  13.390   6.492 -0.3173  0.0880  0.1289
  945loPI   GL213424   8.837  13.310   6.574 -0.1557  0.2090 -0.2359
  945loPI   C1A13425   8.246  13.497   6.878  0.1372 -0.0200 -0.1518
  945loPI   C2A13426   8.191  13.471   7.252 -0.1522 -0.1199  0.0445
  945loPI   C3A13427   8.208  13.460   7.612 -0.0581  0.1624 -0.0121
  945loPI   C4A13428   8.303  13.501   8.074 -0.1072 -0.0443  0.1264
  945loPI   C5A13429   8.644  13.332   8.297 -0.1174 -0.0185  0.1925
  945loPI   C6A13430   8.746  12.886   8.246 -0.0419  0.1689  0.0593
  945loPI   C1B13431   8.708  13.376   6.967 -0.0189  0.3627  0.0860
  945loPI   C2B13432   8.664  13.320   7.377 -0.0024  0.2852 -0.1689
  945loPI   C3B13433   8.860  13.250   7.825  0.0984  0.2789  0.1215
  945loPI   C4B13434   9.129  13.224   8.172 -0.1931 -0.1708 -0.0817
  946loPI    C113435   5.781   8.412   5.598  0.2381  0.0563  0.2180
  946loPI    C213436   5.686   8.109   5.355 -0.0702  0.2461  0.0968
  946loPI    C313437   6.058   8.255   5.356 -0.0359  0.1664 -0.1766
  946loPI   PO413438   5.660   8.366   5.853 -0.2974 -0.4031  0.1481
  946loPI   GL113439   5.577   8.160   6.249  0.1908 -0.1691  0.1918
  946loPI   GL213440   5.442   7.893   6.441  0.0904  0.3319 -0.0932
  946loPI   C1A13441   5.719   8.205   6.623 -0.1424  0.0167  0.1927
  946loPI   C2A13442   5.735   8.148   7.015 -0.0417  0.1018  0.0785
  946loPI   C3A13443   5.758   8.088   7.399  0.2849  0.2393 -0.1291
  946loPI   C4A13444   5.649   8.013   7.777 -0.1166  0.1221 -0.0826
  946loPI   C5A13445   5.665   8.049   8.274  0.1160  0.0241 -0.0215
  946loPI   C6A13446   5.553   7.880   8.708 -0.1439 -0.2013 -0.1997
  946loPI   C1B13447   5.334   7.711   6.806 -0.1759  0.0348  0.1418
  946loPI   C2B13448   5.382   7.793   7.261 -0.1058  0.0963 -0.1058
  946loPI   C3B13449   5.247   7.675   7.690  0.3284 -0.1742 -0.1445
  946loPI   C4B13450   5.288   7.803   8.148  0.0662 -0.3536  0.1405
  947loPI    C113451   6.132   2.208   6.015 -0.1869  0.3053  0.0182
  947loPI    C213452   6.522   2.211   5.929 -0.1056 -0.0233  0.3501
  947loPI    C313453   6.254   2.143   5.640  0.1017 -0.1321  0.1805
  947loPI   PO413454   6.096   2.121   6.266 -0.0134  0.3512  0.4492
  947loPI   GL113455   6.208   1.860   6.518  0.1191 -0.0512 -0.1036
  947loPI   GL213456   6.368   1.561   6.579  0.0356  0.0433  0.0526
  947loPI   C1A13457   5.867   1.696   6.780 -0.1678  0.1454 -0.1750
  947loPI   C2A13458   5.796   1.798   7.132 -0.2540 -0.0993 -0.1074
  947loPI   C3A13459   5.756   1.702   7.591  0.0550  0.1641 -0.0690
  947loPI   C4A13460   5.714   1.779   8.108  0.1480  0.1134  0.1199
  947loPI   C5A13461   5.350   1.848   8.421  0.2189 -0.1098 -0.0950
  947loPI   C6A13462   4.870   1.920   8.398  0.0835  0.1408  0.1427
  947loPI   C1B13463   6.290   1.780   7.003 -0.0149  0.0428 -0.0462
  947loPI   C2B13464   6.276   1.705   7.453 -0.0315 -0.0691 -0.2925
  947loPI   C3B13465   6.210   1.777   7.848  0.1007  0.0586  0.0227
  947loPI   C4B13466   6.334   1.940   8.208  0.0259 -0.2683 -0.1568
  948loPI    C113467  15.034   5.781   5.925  0.0012  0.2337  0.1812
  948loPI    C213468  15.293   5.799   5.621  0.1075  0.3162  0.2760
  948loPI    C313469  14.985   6.054   5.637 -0.2142 -0.0397 -0.0475
  948loPI   PO413470  15.203   5.758   6.107 -0.0538  0.2576 -0.1938
  948loPI   GL113471  15.007   5.668   6.455  0.0074  0.0185 -0.1840
  948loPI   GL213472  15.135   5.873   6.677 -0.1976 -0.0492 -0.3659
  948loPI   C1A13473  15.216   5.352   6.776  0.1276  0.2976 -0.0855
  948loPI   C2A13474  15.118   5.347   7.102  0.3797  0.0036  0.3191
  948loPI   C3A13475  14.896   5.535   7.482 -0.0356 -0.0330 -0.1021
  948loPI   C4A13476  14.938   5.860   7.708 -0.1540  0.0040  0.2740
  948loPI   C5A13477  14.921   6.043   8.169  0.1600  0.0855 -0.0531
  948loPI   C6A13478  15.288   6.035   8.392 -0.0078  0.0209  0.2171
  948loPI   C1B13479  15.153   5.963   7.152 -0.1637 -0.1312  0.1802
  948loPI   C2B13480  15.169   6.253   7.561 -0.1766 -0.0239 -0.2449
  948loPI   C3B13481  15.154   6.524   7.913  0.0613 -0.0050 -0.0379
  948loPI   C4B13482  15.142   6.731   8.275  0.0834  0.1216  0.3329
  949loPI    C113483  13.937  11.485   5.515  0.0136  0.1619  0.0319
  949loPI    C213484  14.152  11.669   5.232 -0.1632  0.1525 -0.1110
  949loPI    C313485  13.864  11.413   5.128 -0.0974 -0.0026  0.0825
  949loPI   PO413486  14.063  11.357   5.661 -0.1395  0.0365 -0.1562
  949loPI   GL113487  14.154  11.169   6.039 -0.3577 -0.1623  0.1699
  949loPI   GL213488  13.862  11.224   6.191 -0.0685 -0.2988 -0.1854
  949loPI   C1A13489  14.285  11.352   6.446 -0.0758 -0.3538  0.0978
  949loPI   C2A13490  14.223  11.362   6.909 -0.0116  0.0964 -0.3949
  949loPI   C3A13491  14.249  11.385   7.300  0.0976  0.1722  0.0297
  949loPI   C4A13492  14.075  11.406   7.669  0.2471  0.3210  0.0560
  949loPI   C5A13493  14.334  11.389   8.106 -0.0502  0.0568  0.0736
  949loPI   C6A13494  14.415  11.508   8.558  0.0847  0.3882 -0.0550
  949loPI   C1B13495  13.822  10.992   6.581  0.0533 -0.0216  0.1717
  949loPI   C2B13496  13.815  11.015   6.971 -0.0107 -0.1170  0.1322
  949loPI   C3B13497  13.809  11.036   7.434  0.0241  0.2652  0.0423
  949loPI   C4B13498  13.680  11.120   7.953 -0.4314  0.1323  0.2816
  950loPI    C113499  12.540   8.558   5.900  0.1478 -0.0433  0.1030
  950loPI    C213500  12.642   8.803   6.199 -0.2640  0.1881  0.0611
  950loPI    C313501  12.693   8.919   5.819  0.1335 -0.0520  0.0357
  950loPI   PO413502  12.617   8.329   5.997 -0.0248 -0.1933  0.0752
  950loPI   GL113503  12.902   8.095   6.329  0.2176  0.0492 -0.0406
  950loPI   GL213504  12.682   8.385   6.459  0.0833 -0.0902 -0.0347
  950loPI   C1A13505  12.984   8.059   6.764 -0.1324  0.1745  0.4510
  950loPI   C2A13506  12.920   8.094   7.164  0.1497  0.1172 -0.0937
  950loPI   C3A13507  13.088   8.057   7.540  0.1124  0.3625 -0.2175
  950loPI   C4A13508  12.915   7.851   7.842 -0.0126 -0.0447 -0.0891
  950loPI   C5A13509  12.753   7.535   8.072 -0.0588  0.0982  0.0651
  950loPI   C6A13510  12.365   7.472   8.228  0.3994  0.1050 -0.1777
  950loPI   C1B13511  12.546   8.200   6.837  0.1901  0.0365 -0.4046
  950loPI   C2B13512  12.351   8.256   7.275 -0.0549  0.0449 -0.1121
  950loPI   C3B13513  12.658   8.205   7.656  0.3029 -0.1379 -0.1155
  950loPI   C4B13514  12.600   8.146   8.183  0.1920  0.1732 -0.0413
  951loPI    C113515  11.154  15.979   5.536 -0.0443 -0.0194 -0.0282
  951loPI    C213516  10.853  15.735   5.436  0.0368 -0.0466 -0.2088
  951loPI    C313517  10.949  16.042   5.199  0.3984 -0.2641 -0.3529
  951loPI   PO413518  11.097  16.021   5.794  0.0056  0.0697 -0.2411
  951loPI   GL113519  11.245  16.131   6.145 -0.0907  0.0599 -0.1744
  951loPI   GL213520  11.540  16.201   6.246 -0.1339 -0.0157  0.0064
  951loPI   C1A13521  10.992  16.358   6.504  0.1642  0.0517 -0.1781
  951loPI   C2A13522  11.095  16.466   6.934  0.2130 -0.0431  0.1029
  951loPI   C3A13523  10.942  16.675   7.280  0.2500  0.1713  0.1922
  951loPI   C4A13524  11.151  16.709   7.660  0.1648  0.1455  0.2254
  951loPI   C5A13525  11.327  16.854   8.174 -0.0550  0.0923  0.2963
  951loPI   C6A13526  11.391  16.950   8.547  0.1108  0.3100  0.1371
  951loPI   C1B13527  11.464  16.222   6.704  0.1304 -0.1659 -0.1836
  951loPI   C2B13528  11.508  16.238   7.141  0.4704  0.1739  0.3218
  951loPI   C3B13529  11.453  16.364   7.553  0.1907  0.0746 -0.2470
  951loPI   C4B13530  11.652  16.510   7.912 -0.0688  0.2000 -0.0225
  952loPI    C113531  10.741   2.971   5.797 -0.2177  0.0315 -0.1723
  952loPI    C213532  10.669   3.175   5.461 -0.1625 -0.1046 -0.2673
  952loPI    C313533  10.833   2.811   5.443  0.0686 -0.0119 -0.0810
  952loPI   PO413534  10.904   3.186   5.925 -0.2295  0.1917  0.1313
  952loPI   GL113535  10.959   3.498   6.226  0.0497 -0.2070  0.0413
  952loPI   GL213536  11.150   3.853   6.193  0.4473  0.0783 -0.1678
  952loPI   C1A13537  11.065   3.291   6.666 -0.0522 -0.0335  0.1038
  952loPI   C2A13538  11.333   3.323   7.004 -0.0399  0.1242  0.3752
  952loPI   C3A13539  11.536   3.357   7.331 -0.0054 -0.1555 -0.1012
  952loPI   C4A13540  11.630   3.328   7.705  0.0820 -0.0635  0.0226
  952loPI   C5A13541  11.489   3.194   8.101 -0.1292 -0.1805  0.1008
  952loPI   C6A13542  11.464   2.866   8.385 -0.1399  0.3835  0.0977
  952loPI   C1B13543  11.255   3.887   6.633  0.0361 -0.0647  0.1761
  952loPI   C2B13544  11.294   3.852   7.053 -0.2973 -0.1129 -0.0054
  952loPI   C3B13545  11.580   3.815   7.397 -0.0560 -0.0585  0.0158
  952loPI   C4B13546  11.599   3.919   7.794 -0.1781 -0.2190  0.2172
  953loPI    C113547  16.447   3.284   5.588  0.1293 -0.0575 -0.2095
  953loPI    C213548  16.106   3.100   5.485  0.1298 -0.1508 -0.0476
  953loPI    C313549  16.456   2.968   5.343  0.1096 -0.1301 -0.1170
  953loPI   PO413550  16.490   3.328   5.876  0.1457 -0.1395  0.0011
  953loPI   GL113551  16.340   3.434   6.181  0.0624  0.1013 -0.3484
  953loPI   GL213552  16.492   3.779   6.194  0.2553  0.2062 -0.3031
  953loPI   C1A13553  16.316   3.478   6.597 -0.4442 -0.0424  0.0039
  953loPI   C2A13554  16.242   3.488   6.995 -0.0044  0.2381  0.3420
  953loPI   C3A13555  16.115   3.488   7.373  0.2337 -0.1587  0.1104
  953loPI   C4A13556  16.053   3.234   7.849 -0.0399 -0.0014  0.0279
  953loPI   C5A13557  16.349   3.181   8.301 -0.2506 -0.1002  0.1443
  953loPI   C6A13558  16.661   2.854   8.498  0.0604 -0.1799 -0.0480
  953loPI   C1B13559  16.537   4.084   6.649 -0.1939 -0.0227 -0.1586
  953loPI   C2B13560  16.438   3.986   7.096  0.0555  0.1977  0.1553
  953loPI   C3B13561  16.365   4.056   7.401 -0.4403 -0.1692 -0.2841
  953loPI   C4B13562  16.304   3.738   7.745 -0.1987  0.0320 -0.3614
  954loPI    C113563  10.065   3.240   5.881 -0.1326 -0.0986 -0.0395
  954loPI    C213564   9.820   3.454   5.648  0.0507  0.0463 -0.1021
  954loPI    C313565   9.738   3.409   6.037 -0.2745 -0.2234 -0.1965
  954loPI   PO413566  10.335   3.260   5.888 -0.2101  0.3436 -0.0789
  954loPI   GL113567  10.485   3.100   6.222 -0.0137  0.0489  0.1711
  954loPI   GL213568  10.202   2.999   6.401 -0.3146  0.1104  0.2816
  954loPI   C1A13569  10.672   3.012   6.598 -0.0405 -0.3205  0.0842
  954loPI   C2A13570  10.772   2.995   7.004  0.2711  0.0445  0.1971
  954loPI   C3A13571  10.936   3.001   7.344  0.1009 -0.0615  0.1582
  954loPI   C4A13572  11.166   3.044   7.728 -0.0027 -0.1036  0.0862
  954loPI   C5A13573  11.183   2.684   8.018  0.1109  0.0857 -0.2968
  954loPI   C6A13574  11.498   2.359   7.987  0.0748 -0.0474  0.0318
  954loPI   C1B13575  10.171   3.234   6.713  0.3309  0.1931 -0.1912
  954loPI   C2B13576  10.381   3.342   7.034 -0.0782 -0.1560 -0.1551
  954loPI   C3B13577  10.519   3.247   7.470  0.2665  0.1680 -0.2451
  954loPI   C4B13578  10.675   3.427   8.001  0.0894 -0.0319  0.1925
  955loPI    C113579  14.171  14.007   5.599  0.0631 -0.1742  0.0644
  955loPI    C213580  13.904  13.850   5.346 -0.1841 -0.1226  0.2885
  955loPI    C313581  14.290  13.868   5.244 -0.2804 -0.0984 -0.0845
  955loPI   PO413582  14.088  13.950   5.815 -0.1743  0.5337  0.1046
  955loPI   GL113583  14.246  13.956   6.202  0.1645 -0.4203  0.0917
  955loPI   GL213584  14.549  13.861   6.136  0.2272  0.1137  0.0828
  955loPI   C1A13585  14.184  13.904   6.608 -0.0318  0.1839  0.1549
  955loPI   C2A13586  14.294  13.816   7.017 -0.1624 -0.0505  0.2247
  955loPI   C3A13587  14.285  13.846   7.386  0.0699  0.0701  0.4592
  955loPI   C4A13588  14.424  13.846   7.761  0.2786  0.0009 -0.0426
  955loPI   C5A13589  14.649  13.714   8.122 -0.0235 -0.0000  0.0451
  955loPI   C6A13590  14.966  13.919   8.381 -0.0391  0.1054 -0.1832
  955loPI   C1B13591  14.700  14.007   6.557 -0.1682  0.0155  0.0684
  955loPI   C2B13592  14.798  14.005   6.994  0.1043  0.0462  0.1667
  955loPI   C3B13593  14.752  13.663   7.338  0.0809  0.1207  0.0980
  955loPI   C4B13594  14.956  13.578   7.721  0.3855  0.0218 -0.2167
  956loPI    C113595   3.593   6.012   5.828  0.1123  0.2636 -0.0162
  956loPI    C213596   3.524   5.852   5.468  0.2579 -0.0237  0.0800
  956loPI    C313597   3.469   6.244   5.527  0.1607  0.0127 -0.2333
  956loPI   PO413598   3.920   5.982   5.896  0.2510 -0.4044  0.0629
  956loPI   GL113599   4.040   5.665   6.235 -0.1362 -0.0496 -0.0050
  956loPI   GL213600   3.989   5.990   6.381  0.2197  0.1299 -0.2386
  956loPI   C1A13601   4.148   5.359   6.628  0.1257  0.0734  0.0404
  956loPI   C2A13602   4.073   5.255   7.029 -0.0324 -0.1288  0.1149
  956loPI   C3A13603   3.984   5.283   7.411  0.0393 -0.1941  0.0321
  956loPI   C4A13604   3.846   5.387   7.852 -0.1577 -0.0056 -0.1019
  956loPI   C5A13605   3.776   5.411   8.265 -0.3308  0.1956 -0.1115
  956loPI   C6A13606   3.617   5.824   8.416 -0.1168  0.2407 -0.2416
  956loPI   C1B13607   4.007   5.815   6.830 -0.0242 -0.0566 -0.2617
  956loPI   C2B13608   3.880   6.064   7.185 -0.1166 -0.0739  0.1175
  956loPI   C3B13609   3.828   6.268   7.589 -0.0925  0.3926 -0.0828
  956loPI   C4B13610   3.751   6.249   8.048  0.1905 -0.0248  0.3289
  957loPI    C113611   6.898  11.956   6.006 -0.2808  0.2374 -0.0051
  957loPI    C213612   7.229  12.154   5.902 -0.1354  0.0226  0.0422
  957loPI    C313613   6.935  12.102   5.635 -0.0610  0.0720 -0.0503
  957loPI   PO413614   6.958  11.786   6.078 -0.1109  0.2220  0.1660
  957loPI   GL113615   6.980  11.598   6.431 -0.0487 -0.3165 -0.1571
  957loPI   GL213616   6.764  11.393   6.389  0.0292  0.1899 -0.2111
  957loPI   C1A13617   7.173  11.552   6.932  0.1902 -0.0985  0.0744
  957loPI   C2A13618   7.186  11.406   7.388  0.1677  0.0647 -0.1792
  957loPI   C3A13619   7.094  11.496   7.805 -0.0196 -0.1775  0.2499
  957loPI   C4A13620   7.025  11.350   8.307  0.0177  0.0429  0.0096
  957loPI   C5A13621   6.642  11.178   8.445 -0.0112 -0.0319 -0.3819
  957loPI   C6A13622   6.134  11.089   8.520  0.1677 -0.0283 -0.3391
  957loPI   C1B13623   6.798  11.268   6.768  0.1696 -0.0641 -0.0956
  957loPI   C2B13624   6.757  11.219   7.174 -0.3085 -0.2497  0.2586
  957loPI   C3B13625   6.720  11.218   7.527 -0.0351  0.1654  0.0491
  957loPI   C4B13626   6.764  11.053   7.936  0.0167  0.1216  0.2729
  958loPI    C113627   8.224   1.246   5.500 -0.1320  0.0774 -0.0148
  958loPI    C213628   8.572   1.080   5.396 -0.1781 -0.1808  0.2314
  958loPI    C313629   8.260   1.063   5.147 -0.0427 -0.0276  0.0482
  958loPI   PO413630   8.116   1.184   5.809 -0.2196  0.0058 -0.2395
  958loPI   GL113631   8.000   1.297   6.194 -0.0374  0.1978 -0.0129
  958loPI   GL213632   7.844   1.520   6.332 -0.2539  0.0270  0.0365
  958loPI   C1A13633   8.028   1.038   6.703  0.2687  0.2622  0.3638
  958loPI   C2A13634   8.258   1.021   7.107  0.0114  0.1675  0.4083
  958loPI   C3A13635   8.375   0.851   7.504 -0.2084 -0.0153  0.1011
  958loPI   C4A13636   8.348   0.698   7.906 -0.1035 -0.0741  0.1378
  958loPI   C5A13637   8.068   0.365   7.988  0.1178 -0.2225  0.0753
  958loPI   C6A13638   7.860   0.150   8.263  0.1218 -0.4791 -0.0676
  958loPI   C1B13639   7.899   1.540   6.733  0.0283  0.1935 -0.2974
  958loPI   C2B13640   8.014   1.559   7.169 -0.1616  0.3256  0.0533
  958loPI   C3B13641   8.052   1.695   7.608 -0.0819 -0.1131 -0.3096
  958loPI   C4B13642   8.187   1.712   7.983 -0.1411  0.4590  0.0995
  959loPI    C113643  10.869   9.047   5.516  0.1860  0.0377  0.0103
  959loPI    C213644  11.095   9.349   5.386  0.0067  0.1788  0.0224
  959loPI    C313645  11.018   9.039   5.145  0.1247  0.1804 -0.0180
  959loPI   PO413646  10.963   8.916   5.743  0.1908  0.2646  0.2696
  959loPI   GL113647  10.694   8.740   6.116  0.1442 -0.1117  0.0853
  959loPI   GL213648  10.633   9.023   6.326  0.0429 -0.0592  0.2845
  959loPI   C1A13649  10.974   8.706   6.486 -0.1493  0.3289  0.0006
  959loPI   C2A13650  10.977   8.749   6.961  0.2531  0.0901 -0.3266
  959loPI   C3A13651  11.083   8.793   7.225  0.2009 -0.2694 -0.3181
  959loPI   C4A13652  11.320   8.563   7.481  0.0282 -0.1643  0.0437
  959loPI   C5A13653  11.581   8.410   7.675 -0.5212  0.0281  0.0497
  959loPI   C6A13654  11.611   8.295   8.084  0.0565 -0.0639 -0.0408
  959loPI   C1B13655  10.647   9.090   6.703  0.0614 -0.4160 -0.1756
  959loPI   C2B13656  10.600   9.063   7.168  0.0110  0.2279 -0.1260
  959loPI   C3B13657  10.391   9.140   7.601  0.2793 -0.1002 -0.1175
  959loPI   C4B13658  10.194   9.189   8.030 -0.3337 -0.0818 -0.1820
  960loPI    C113659   2.449  13.881   5.488  0.0667 -0.0586  0.0633
  960loPI    C213660   2.353  13.679   5.156 -0.2139 -0.0588  0.1419
  960loPI    C313661   2.724  13.821   5.204 -0.0316 -0.4908  0.0523
  960loPI   PO413662   2.403  13.726   5.688  0.1512 -0.1481 -0.2354
  960loPI   GL113663   2.845  13.842   5.954 -0.2572 -0.1205 -0.2293
  960loPI   GL213664   2.661  14.115   5.948  0.2512  0.1284 -0.3776
  960loPI   C1A13665   2.899  13.492   6.413 -0.1148 -0.4681  0.1446
  960loPI   C2A13666   2.811  13.434   6.952  0.0353  0.0219  0.1743
  960loPI   C3A13667   2.869  13.439   7.398 -0.0958 -0.1848 -0.0747
  960loPI   C4A13668   2.841  13.563   7.841 -0.1953  0.1647  0.3125
  960loPI   C5A13669   2.697  13.514   8.182  0.0650  0.2913 -0.2034
  960loPI   C6A13670   2.375  13.186   8.232  0.1340 -0.2289  0.0877
  960loPI   C1B13671   2.617  14.359   6.360  0.1857 -0.2102 -0.3075
  960loPI   C2B13672   2.695  14.372   6.781  0.2206  0.1366 -0.0463
  960loPI   C3B13673   2.368  14.168   7.237 -0.2093 -0.1260 -0.0341
  960loPI   C4B13674   1.975  13.879   7.146  0.2438  0.3491  0.0805
  961loPI    C113675  14.631   5.121   5.665 -0.1022 -0.0821  0.0709
  961loPI    C213676  14.675   4.778   5.464 -0.1647 -0.0935  0.0764
  961loPI    C313677  14.449   5.070   5.312  0.0039  0.0001  0.0038
  961loPI   PO413678  14.744   4.980   5.983  0.1945  0.1583  0.2046
  961loPI   GL113679  14.666   4.870   6.422 -0.0435  0.3252 -0.1682
  961loPI   GL213680  14.847   5.150   6.497  0.1641  0.0148 -0.1657
  961loPI   C1A13681  14.353   4.822   6.772  0.2814 -0.1038  0.2322
  961loPI   C2A13682  14.054   4.848   7.040  0.1750 -0.2425 -0.2781
  961loPI   C3A13683  14.132   4.958   7.447  0.0702 -0.3118  0.1727
  961loPI   C4A13684  14.226   5.004   7.942 -0.2296 -0.2830  0.1355
  961loPI   C5A13685  14.050   4.919   8.274  0.2723  0.0564  0.1760
  961loPI   C6A13686  13.752   4.614   8.227  0.0780  0.1428 -0.0356
  961loPI   C1B13687  14.739   5.148   6.911  0.2553 -0.1465 -0.1036
  961loPI   C2B13688  14.560   4.916   7.169  0.0321  0.2609  0.0450
  961loPI   C3B13689  14.515   4.647   7.460  0.2885  0.1175 -0.2430
  961loPI   C4B13690  14.587   4.369   7.790  0.1808  0.1511 -0.3558
  962loPI    C113691   5.925   6.545   5.533 -0.1711 -0.0423 -0.0193
  962loPI    C213692   5.932   6.933   5.434  0.1655 -0.0443 -0.0154
  962loPI    C313693   6.036   6.656   5.165  0.0807 -0.1217  0.0307
  962loPI   PO413694   5.995   6.523   5.778 -0.0234  0.0988  0.1337
  962loPI   GL113695   6.308   6.547   5.966 -0.1638  0.3484  0.1215
  962loPI   GL213696   6.585   6.533   5.993 -0.0711  0.3406  0.0464
  962loPI   C1A13697   6.223   6.735   6.395 -0.0456  0.1135 -0.1620
  962loPI   C2A13698   6.104   6.620   6.759 -0.1868  0.2813 -0.1154
  962loPI   C3A13699   6.024   6.562   7.134  0.0333 -0.1490  0.1925
  962loPI   C4A13700   6.036   6.539   7.542  0.0142 -0.1483 -0.1993
  962loPI   C5A13701   5.879   6.572   7.924  0.1538 -0.0367 -0.0213
  962loPI   C6A13702   5.867   6.542   8.379 -0.0001  0.2173 -0.0544
  962loPI   C1B13703   6.691   6.487   6.436  0.0590  0.0870 -0.0212
  962loPI   C2B13704   6.638   6.463   6.929  0.3412  0.1502  0.3433
  962loPI   C3B13705   6.629   6.502   7.374 -0.2086  0.0077  0.1165
  962loPI   C4B13706   6.461   6.375   7.774 -0.2010 -0.2234 -0.0952
  963loPI    C113707  15.021   2.383   5.616  0.0860  0.1962 -0.0142
  963loPI    C213708  15.277   2.081   5.561  0.1338  0.2204  0.0731
  963loPI    C313709  14.994   2.156   5.288  0.2351  0.2088 -0.0355
  963loPI   PO413710  14.905   2.277   5.896 -0.1356 -0.0046 -0.2570
  963loPI   GL113711  14.628   2.344   6.211 -0.0672 -0.1808  0.0101
  963loPI   GL213712  14.731   2.684   6.465  0.3357 -0.0927 -0.0694
  963loPI   C1A13713  14.721   2.221   6.673 -0.0305 -0.0376  0.0795
  963loPI   C2A13714  14.798   2.315   7.151  0.1819  0.0000 -0.1857
  963loPI   C3A13715  14.825   2.287   7.518 -0.3518  0.1353  0.0143
  963loPI   C4A13716  14.905   2.355   7.947 -0.0747 -0.0304 -0.0696
  963loPI   C5A13717  14.905   2.070   8.328  0.2736  0.2257  0.0487
  963loPI   C6A13718  14.799   1.867   8.619  0.1614  0.2443 -0.0354
  963loPI   C1B13719  14.836   2.879   6.916  0.1476 -0.1955 -0.0552
  963loPI   C2B13720  14.851   2.939   7.325  0.0889 -0.4589  0.0186
  963loPI   C3B13721  14.731   2.786   7.681  0.0606  0.1409  0.0447
  963loPI   C4B13722  14.730   2.984   8.132  0.0013 -0.1278  0.2071
  964loPI    C113723   9.263   1.843   6.210  0.0252  0.0279  0.0943
  964loPI    C213724   9.226   2.094   5.900  0.0994 -0.1337 -0.0473
  964loPI    C313725   9.202   1.699   5.841  0.2422 -0.1707  0.1336
  964loPI   PO413726   9.462   1.866   6.336  0.1431  0.0810 -0.1412
  964loPI   GL113727   9.736   2.088   6.595 -0.1821  0.2674 -0.0696
  964loPI   GL213728   9.615   2.369   6.680 -0.1478 -0.1528  0.2927
  964loPI   C1A13729   9.850   1.937   6.911  0.1169  0.2056 -0.0595
  964loPI   C2A13730   9.836   2.013   7.366 -0.2335  0.2982  0.0288
  964loPI   C3A13731  10.115   2.123   7.713  0.0054  0.1891  0.0813
  964loPI   C4A13732  10.168   2.135   8.144 -0.1048 -0.1326  0.0616
  964loPI   C5A13733  10.342   2.038   8.515  0.0256 -0.1721  0.2001
  964loPI   C6A13734  10.154   2.171   8.937 -0.2028  0.0086 -0.0010
  964loPI   C1B13735   9.826   2.454   7.039 -0.1435 -0.2212 -0.2434
  964loPI   C2B13736   9.962   2.558   7.447  0.3606  0.1320 -0.3144
  964loPI   C3B13737  10.073   2.632   7.855  0.0414 -0.1806  0.1763
  964loPI   C4B13738  10.373   2.694   8.104 -0.0682  0.1059  0.1181
  965loPI    C113739  12.977   9.432   5.883 -0.1012 -0.0108  0.0122
  965loPI    C213740  12.623   9.401   5.698 -0.0934  0.2052 -0.0412
  965loPI    C313741  12.929   9.584   5.516  0.0995 -0.1362 -0.0679
  965loPI   PO413742  12.920   9.351   6.112 -0.1492 -0.0910 -0.0660
  965loPI   GL113743  13.056   9.233   6.412 -0.1268 -0.0017 -0.1256
  965loPI   GL213744  13.104   8.923   6.452 -0.0747 -0.1299  0.1615
  965loPI   C1A13745  12.987   9.570   6.691 -0.0813 -0.2414  0.1828
  965loPI   C2A13746  12.866   9.510   7.159 -0.0545 -0.0864 -0.0623
  965loPI   C3A13747  12.850   9.505   7.641  0.1461  0.2944 -0.0826
  965loPI   C4A13748  12.724   9.449   7.997  0.0418 -0.0018  0.0116
  965loPI   C5A13749  12.560   9.222   8.204 -0.2323  0.0044  0.1430
  965loPI   C6A13750  12.555   8.790   8.338 -0.1984  0.1611 -0.1520
  965loPI   C1B13751  13.075   9.057   6.839 -0.0946  0.0130  0.0634
  965loPI   C2B13752  12.952   8.979   7.155  0.0607  0.0272  0.2019
  965loPI   C3B13753  13.014   9.077   7.538  0.2791  0.1169  0.1923
  965loPI   C4B13754  12.837   8.908   7.908 -0.0509 -0.1181 -0.1318
  966loPI    C113755   9.241   0.302   6.142 -0.0758 -0.0115 -0.1397
  966loPI    C213756   8.928   0.346   5.898  0.0988  0.6536 -0.2628
  966loPI    C313757   9.297   0.316   5.747  0.1197 -0.0068 -0.1128
  966loPI   PO413758   9.073   0.414   6.398  0.0314  0.2594 -0.1444
  966loPI   GL113759   9.043   0.680   6.695  0.0125 -0.2580 -0.4515
  966loPI   GL213760   9.355   0.751   6.727 -0.1727  0.2762  0.2315
  966loPI   C1A13761   9.250   0.767   7.170  0.2036  0.0820 -0.1427
  966loPI   C2A13762   9.381   0.741   7.492 -0.1936 -0.0225  0.1006
  966loPI   C3A13763   9.301   0.908   7.809  0.0991 -0.2821 -0.0895
  966loPI   C4A13764   9.307   0.912   8.332 -0.0146 -0.1642  0.0480
  966loPI   C5A13765   9.223   0.594   8.623  0.3042 -0.0228 -0.1043
  966loPI   C6A13766   8.964   0.540   8.950  0.1829  0.0296 -0.0430
  966loPI   C1B13767   9.659   0.923   6.974 -0.1336 -0.0210 -0.1377
  966loPI   C2B13768   9.879   0.999   7.434 -0.1047 -0.1933 -0.2009
  966loPI   C3B13769   9.928   1.213   7.876  0.2836 -0.0181 -0.0617
  966loPI   C4B13770   9.650   1.288   8.307 -0.1399  0.0549 -0.1451
  967loPI    C113771  13.290  17.110   5.516 -0.5210 -0.2114 -0.2340
  967loPI    C213772  13.428  16.803   5.300  0.0658 -0.0166 -0.1542
  967loPI    C313773  13.369  17.159   5.127 -0.0486 -0.0193 -0.1216
  967loPI   PO413774  13.066  17.089   5.657 -0.2149 -0.0923 -0.0989
  967loPI   GL113775  12.961  17.178   6.084  0.2626  0.0072 -0.1194
  967loPI   GL213776  13.070  16.857   6.095  0.3310  0.1732 -0.0407
  967loPI   C1A13777  13.116  17.269   6.514 -0.1731 -0.0036 -0.0998
  967loPI   C2A13778  13.292  17.266   6.830 -0.0742  0.0871  0.3506
  967loPI   C3A13779  13.285  17.282   7.281  0.1460  0.0674  0.2223
  967loPI   C4A13780  13.414  17.315   7.663 -0.3841 -0.1460 -0.2215
  967loPI   C5A13781  13.426  17.425   8.137  0.0315 -0.0594 -0.2659
  967loPI   C6A13782  13.625  17.673   8.431  0.1815 -0.2660 -0.2131
  967loPI   C1B13783  13.046  16.763   6.483  0.2171  0.0973 -0.0834
  967loPI   C2B13784  13.050  16.838   6.982 -0.3060 -0.3823  0.1734
  967loPI   C3B13785  12.853  17.121   7.340  0.0920  0.0934  0.1696
  967loPI   C4B13786  12.972  17.230   7.783  0.1682  0.1514 -0.0209
  968loPI    C113787   4.324   0.430   6.083 -0.0652  0.1099  0.0603
  968loPI    C213788   3.999   0.661   6.044  0.0962  0.3294 -0.0047
  968loPI    C313789   4.286   0.669   5.764  0.2084  0.2183  0.1058
  968loPI   PO413790   4.424   0.500   6.308  0.2137  0.1326 -0.1157
  968loPI   GL113791   4.155   0.795   6.595  0.1900  0.0005  0.1276
  968loPI   GL213792   3.936   0.554   6.538  0.1564  0.4097  0.1792
  968loPI   C1A13793   4.143   0.957   7.064  0.2726  0.1133  0.1059
  968loPI   C2A13794   4.088   0.780   7.314 -0.3385 -0.0846  0.1389
  968loPI   C3A13795   4.112   0.806   7.733  0.0311 -0.1550 -0.1225
  968loPI   C4A13796   4.075   0.799   8.198  0.0234 -0.3590 -0.0054
  968loPI   C5A13797   4.206   1.065   8.541 -0.0783  0.2706  0.3614
  968loPI   C6A13798   4.428   1.355   8.787  0.1892 -0.3983 -0.0136
  968loPI   C1B13799   3.796   0.505   6.898 -0.1614 -0.2614 -0.0626
  968loPI   C2B13800   3.705   0.276   7.348 -0.0029  0.1188  0.0108
  968loPI   C3B13801   3.381   0.284   7.709  0.1567 -0.3966  0.0852
  968loPI   C4B13802   3.001   0.317   7.976  0.1440  0.0002  0.0588
  969loPI    C113803  10.980   0.078   5.439 -0.1987 -0.2139 -0.2377
  969loPI    C213804  11.286   0.193   5.209 -0.0758 -0.1077 -0.0249
  969loPI    C313805  11.230  -0.195   5.288 -0.0041 -0.1287 -0.0748
  969loPI   PO413806  10.920   0.242   5.633  0.0196  0.2684 -0.1049
  969loPI   GL113807  10.958   0.014   5.946 -0.2253 -0.3284 -0.1739
  969loPI   GL213808  10.784  -0.251   6.122  0.1340 -0.2302 -0.1510
  969loPI   C1A13809  11.329   0.068   6.199  0.0151  0.0833  0.0755
  969loPI   C2A13810  11.455   0.166   6.610 -0.0686  0.1183 -0.0234
  969loPI   C3A13811  11.516   0.206   7.046  0.4625 -0.0567 -0.2164
  969loPI   C4A13812  11.614   0.223   7.441  0.0868 -0.0265 -0.2017
  969loPI   C5A13813  11.614   0.316   7.842  0.1292  0.1938 -0.0308
  969loPI   C6A13814  11.721   0.214   8.311 -0.2023  0.0802 -0.0516
  969loPI   C1B13815  10.912  -0.070   6.647  0.0708  0.2766 -0.0485
  969loPI   C2B13816  11.020  -0.013   6.998  0.0794 -0.1013 -0.1488
  969loPI   C3B13817  11.062   0.137   7.361  0.0547 -0.0095  0.1247
  969loPI   C4B13818  11.200  -0.026   7.777  0.0064  0.0888 -0.2008
  970loPI    C113819   1.504   3.021   5.863 -0.2442 -0.2677  0.1163
  970loPI    C213820   1.398   3.047   5.478  0.0646 -0.0971  0.0392
  970loPI    C313821   1.528   2.699   5.627  0.1568 -0.1089 -0.0678
  970loPI   PO413822   1.315   3.053   6.051  0.0284  0.1117  0.0217
  970loPI   GL113823   1.215   3.413   6.337  0.0379  0.0179  0.2120
  970loPI   GL213824   1.065   3.676   6.417 -0.1147  0.1027  0.2003
  970loPI   C1A13825   1.363   3.290   6.680  0.0185 -0.1503 -0.2198
  970loPI   C2A13826   1.271   3.252   7.082 -0.0540 -0.1025 -0.0265
  970loPI   C3A13827   1.209   3.113   7.488  0.1999 -0.2663 -0.2986
  970loPI   C4A13828   1.143   3.024   7.941 -0.0894 -0.0130 -0.1793
  970loPI   C5A13829   1.044   3.037   8.464 -0.0498  0.0222 -0.2222
  970loPI   C6A13830   1.185   3.184   8.790 -0.0455 -0.0577  0.1828
  970loPI   C1B13831   0.939   3.939   6.766  0.2091  0.0274 -0.4096
  970loPI   C2B13832   1.131   4.071   7.150 -0.3276  0.0794  0.3994
  970loPI   C3B13833   1.265   4.091   7.575  0.0655 -0.1371 -0.0084
  970loPI   C4B13834   1.454   3.818   7.994 -0.1234  0.4359 -0.0383
  971loPI    C113835  10.003  11.017   5.679  0.1023  0.1153 -0.1398
  971loPI    C213836   9.652  11.095   5.505  0.0152 -0.1886 -0.1067
  971loPI    C313837   9.982  11.058   5.282 -0.0175 -0.1460 -0.1627
  971loPI   PO413838   9.953  10.752   5.901 -0.2152 -0.0111  0.2099
  971loPI   GL113839  10.143  10.710   6.374 -0.4179 -0.4137  0.4315
  971loPI   GL213840  10.412  10.461   6.444  0.4580 -0.1628 -0.0566
  971loPI   C1A13841  10.414  11.051   6.720 -0.0195  0.5378  0.0726
  971loPI   C2A13842  10.511  11.189   7.081 -0.0938  0.1313 -0.2990
  971loPI   C3A13843  10.576  11.240   7.512 -0.0146  0.1440  0.0408
  971loPI   C4A13844  10.784  11.216   7.987  0.1165 -0.0536  0.3469
  971loPI   C5A13845  10.890  10.849   8.223  0.0171  0.0559  0.0615
  971loPI   C6A13846  11.129  10.393   8.178 -0.0199  0.0822 -0.0434
  971loPI   C1B13847  10.260  10.542   6.894 -0.1429  0.1327  0.0904
  971loPI   C2B13848  10.116  10.490   7.322  0.0360 -0.2370 -0.1160
  971loPI   C3B13849   9.991  10.411   7.782  0.0059  0.2274  0.1725
  971loPI   C4B13850  10.223  10.473   8.230 -0.0660  0.3576 -0.2387
  972loPI    C113851  12.100   1.979   5.238 -0.0453  0.2072  0.0316
  972loPI    C213852  12.396   1.858   4.999 -0.1114 -0.0810  0.0927
  972loPI    C313853  12.026   1.897   4.853 -0.0943  0.0301  0.0781
  972loPI   PO413854  12.033   1.823   5.486 -0.3505 -0.0629 -0.1272
  972loPI   GL113855  11.869   1.860   5.925 -0.0498  0.3264  0.1769
  972loPI   GL213856  11.530   1.803   6.084 -0.0287 -0.0801 -0.3292
  972loPI   C1A13857  12.017   1.551   6.195 -0.2453  0.1865 -0.0467
  972loPI   C2A13858  12.067   1.463   6.640  0.0267 -0.2115  0.0380
  972loPI   C3A13859  12.033   1.484   7.098  0.1909  0.1061 -0.1439
  972loPI   C4A13860  12.064   1.586   7.670 -0.1033 -0.0213  0.3490
  972loPI   C5A13861  12.157   1.688   8.026 -0.2244 -0.1954  0.1580
  972loPI   C6A13862  12.024   1.601   8.450  0.1413  0.1317  0.1013
  972loPI   C1B13863  11.581   1.720   6.477  0.0221 -0.1078 -0.0772
  972loPI   C2B13864  11.628   1.646   6.919 -0.0150 -0.0344 -0.0335
  972loPI   C3B13865  11.671   1.772   7.359 -0.2271  0.2676  0.4549
  972loPI   C4B13866  11.566   1.887   7.811  0.0436  0.3515 -0.2935
  973loPI    C113867  17.596  12.216   5.683  0.2320 -0.1360 -0.1386
  973loPI    C213868  17.395  12.201   5.338  0.0549  0.0275 -0.0443
  973loPI    C313869  17.725  12.424   5.367  0.1424 -0.0880 -0.1440
  973loPI   PO413870  17.587  11.918   5.709  0.1699 -0.2409  0.1417
  973loPI   GL113871  17.396  11.870   6.107 -0.1030 -0.1207  0.1188
  973loPI   GL213872  17.669  11.793   6.189  0.0876  0.3892  0.1963
  973loPI   C1A13873  17.260  11.759   6.596 -0.2044 -0.0069  0.0305
  973loPI   C2A13874  17.389  11.689   6.982  0.3084  0.0243  0.0921
  973loPI   C3A13875  17.173  11.907   7.418 -0.1621 -0.0731  0.0659
  973loPI   C4A13876  17.013  11.949   7.821  0.1006 -0.0498 -0.0463
  973loPI   C5A13877  16.655  12.071   8.174  0.1102 -0.1765 -0.0206
  973loPI   C6A13878  16.495  12.378   8.248 -0.2323 -0.1512  0.1224
  973loPI   C1B13879  17.724  11.598   6.575  0.2132  0.0867  0.2789
  973loPI   C2B13880  17.843  11.530   7.082 -0.1949 -0.2264  0.1863
  973loPI   C3B13881  17.739  11.201   7.299 -0.1318  0.3341 -0.3106
  973loPI   C4B13882  17.605  11.195   7.808  0.1937  0.2180  0.2578
  974loPI    C113883   9.428   9.673   5.800  0.0339  0.0186  0.0653
  974loPI    C213884   9.584   9.469   5.493 -0.2225 -0.2911  0.1358
  974loPI    C313885   9.197   9.570   5.490 -0.1260  0.0943  0.1580
  974loPI   PO413886   9.689   9.741   5.875  0.2152 -0.0693  0.2419
  974loPI   GL113887   9.890   9.854   6.219 -0.0196  0.1145 -0.3865
  974loPI   GL213888  10.215  10.003   6.295 -0.0803  0.4137  0.0863
  974loPI   C1A13889   9.820   9.673   6.526 -0.0850 -0.1635  0.0405
  974loPI   C2A13890   9.716   9.705   6.984  0.0605  0.2897  0.2196
  974loPI   C3A13891   9.549   9.651   7.349  0.2775 -0.1856 -0.1490
  974loPI   C4A13892   9.477   9.536   7.812  0.3841  0.0616 -0.3283
  974loPI   C5A13893   9.146   9.516   8.075  0.0688 -0.0922 -0.3106
  974loPI   C6A13894   8.797   9.744   8.172  0.0839 -0.0245 -0.0097
  974loPI   C1B13895  10.150  10.030   6.818 -0.0619 -0.1498  0.0093
  974loPI   C2B13896  10.103   9.943   7.256  0.0760 -0.0060  0.1485
  974loPI   C3B13897   9.932   9.935   7.612  0.1117  0.1638  0.1538
  974loPI   C4B13898  10.030   9.648   8.069 -0.4226  0.1496 -0.3107
  975loPI    C113899   0.694   7.756   5.922  0.1804 -0.0783  0.0171
  975loPI    C213900   0.786   7.425   6.126 -0.0048 -0.2283 -0.1392
  975loPI    C313901   0.555   7.402   5.801 -0.0895  0.0657 -0.1028
  975loPI   PO413902   0.765   8.015   6.090 -0.0339  0.1699 -0.1033
  975loPI   GL113903   0.540   8.255   6.451 -0.1966 -0.0637  0.2439
  975loPI   GL213904   0.183   8.177   6.406  0.0829  0.2544 -0.2641
  975loPI   C1A13905   0.677   8.618   6.660  0.1459 -0.0288  0.1327
  975loPI   C2A13906   0.806   8.870   6.980  0.0606  0.1706  0.1584
  975loPI   C3A13907   0.766   8.825   7.398  0.3406 -0.1475  0.0728
  975loPI   C4A13908   0.613   8.579   7.713  0.0892 -0.2470 -0.0915
  975loPI   C5A13909   0.523   8.468   8.086  0.0150  0.1237 -0.0807
  975loPI   C6A13910   0.162   8.448   8.297 -0.3258  0.3216 -0.2122
  975loPI   C1B13911  -0.077   7.979   6.675 -0.4125  0.0925 -0.1713
  975loPI   C2B13912  -0.366   7.919   7.075 -0.2083 -0.2307  0.4286
  975loPI   C3B13913  -0.671   7.827   7.477 -0.0885  0.1422  0.0704
  975loPI   C4B13914  -0.934   8.102   7.604  0.1602 -0.1580 -0.0113
  976loPI    C113915   7.024   1.815   5.818  0.0784  0.0947 -0.2244
  976loPI    C213916   6.704   1.865   5.583 -0.1191 -0.2862 -0.0456
  976loPI    C313917   7.019   1.658   5.450 -0.0986 -0.2268 -0.0896
  976loPI   PO413918   6.904   1.732   6.040 -0.2243 -0.2735  0.0172
  976loPI   GL113919   6.766   1.834   6.361 -0.0249  0.2245  0.1162
  976loPI   GL213920   6.629   2.063   6.373 -0.2730 -0.0663 -0.1006
  976loPI   C1A13921   6.838   1.706   6.771  0.1071  0.0629  0.0874
  976loPI   C2A13922   7.093   1.790   7.125 -0.0420 -0.0364  0.3039
  976loPI   C3A13923   7.103   1.699   7.533 -0.0052  0.1954 -0.0202
  976loPI   C4A13924   7.039   1.359   7.862  0.0409 -0.2493 -0.2474
  976loPI   C5A13925   7.048   1.462   8.297  0.0215  0.1187  0.2415
  976loPI   C6A13926   7.307   1.726   8.541  0.0985 -0.1171  0.3074
  976loPI   C1B13927   6.477   2.228   6.817 -0.1461 -0.1136 -0.3526
  976loPI   C2B13928   6.662   1.984   7.200 -0.1819  0.0815  0.4291
  976loPI   C3B13929   6.688   1.912   7.727  0.0744 -0.1650 -0.2339
  976loPI   C4B13930   6.951   1.924   8.058  0.0276 -0.0635 -0.2135
  977loPI    C113931   5.739  15.560   6.197 -0.1785 -0.0643 -0.1400
  977loPI    C213932   5.812  15.428   5.827  0.0395 -0.3079 -0.0138
  977loPI    C313933   6.110  15.451   6.093 -0.0018  0.3845 -0.0079
  977loPI   PO413934   5.655  15.797   6.292  0.1886  0.1541 -0.0319
  977loPI   GL113935   5.635  15.963   6.710 -0.1133 -0.0408  0.1854
  977loPI   GL213936   5.450  16.157   6.795  0.2533 -0.4483 -0.1629
  977loPI   C1A13937   5.910  15.972   7.002 -0.1925 -0.1765 -0.0207
  977loPI   C2A13938   6.273  15.805   6.989 -0.0628 -0.0029 -0.1531
  977loPI   C3A13939   6.625  15.526   6.959 -0.0366  0.2236  0.2072
  977loPI   C4A13940   6.856  15.173   7.008 -0.0639  0.2599 -0.1812
  977loPI   C5A13941   6.687  14.863   7.206  0.0143  0.3288  0.0740
  977loPI   C6A13942   6.704  14.869   7.643 -0.2235 -0.2218 -0.1496
  977loPI   C1B13943   5.214  16.212   7.097 -0.1408  0.1970  0.1760
  977loPI   C2B13944   5.324  16.289   7.499  0.1947  0.2466 -0.1970
  977loPI   C3B13945   5.278  16.279   8.027 -0.2317 -0.2233 -0.0620
  977loPI   C4B13946   5.225  16.404   8.407 -0.1429  0.2450  0.2751
  978loPI    C113947  10.497   8.649   5.666  0.1625  0.0569 -0.0735
  978loPI    C213948  10.201   8.558   5.413  0.0689  0.2818 -0.0473
  978loPI    C313949  10.501   8.299   5.471 -0.0744  0.0912 -0.1430
  978loPI   PO413950  10.250   8.678   5.908  0.3187  0.0211 -0.3572
  978loPI   GL113951  10.003   8.934   6.229 -0.3205  0.0544 -0.2722
  978loPI   GL213952  10.240   8.710   6.389 -0.0934  0.2641  0.1471
  978loPI   C1A13953   9.746   9.178   6.650 -0.0431  0.2624  0.0130
  978loPI   C2A13954   9.684   9.173   7.000  0.1099 -0.3233 -0.1416
  978loPI   C3A13955   9.564   9.142   7.375 -0.0472  0.0465  0.3800
  978loPI   C4A13956   9.470   9.019   7.624 -0.0670  0.0026 -0.1503
  978loPI   C5A13957   9.134   9.039   8.009 -0.1317 -0.2671 -0.2384
  978loPI   C6A13958   8.765   8.772   8.055 -0.1510  0.0665  0.1336
  978loPI   C1B13959  10.199   8.865   6.785 -0.1386  0.2265 -0.1270
  978loPI   C2B13960  10.127   8.910   7.182 -0.2619  0.1213 -0.0909
  978loPI   C3B13961   9.930   8.863   7.525 -0.0023 -0.1004 -0.2234
  978loPI   C4B13962   9.860   8.814   7.933 -0.5242 -0.1379  0.1030
  979loPI    C113963   6.700  17.174   5.941  0.1605  0.0946  0.0318
  979loPI    C213964   6.321  17.231   5.828  0.1634 -0.0001 -0.0270
  979loPI    C313965   6.548  17.544   5.929  0.0656  0.0556  0.0228
  979loPI   PO413966   6.681  17.006   6.145  0.1460  0.1267  0.0946
  979loPI   GL113967   6.604  17.111   6.538 -0.0366  0.0894 -0.2436
  979loPI   GL213968   6.465  17.478   6.443 -0.1782  0.0860  0.0198
  979loPI   C1A13969   6.527  17.082   6.930 -0.0123 -0.2296 -0.0721
  979loPI   C2A13970   6.561  17.102   7.367 -0.0121 -0.2123 -0.1116
  979loPI   C3A13971   6.481  17.150   7.790  0.3798  0.2103  0.2321
  979loPI   C4A13972   6.464  17.339   8.158  0.0943  0.0268  0.1119
  979loPI   C5A13973   6.789  17.563   8.327 -0.3108  0.2832  0.0294
  979loPI   C6A13974   7.114  17.282   8.519 -0.0068 -0.4420 -0.0667
  979loPI   C1B13975   6.195  17.402   6.736  0.2411 -0.2244 -0.3668
  979loPI   C2B13976   6.227  17.469   7.184  0.0155  0.1571 -0.1665
  979loPI   C3B13977   6.194  17.647   7.579  0.0630  0.1483 -0.0068
  979loPI   C4B13978   6.051  17.517   7.979 -0.2366 -0.0834 -0.2766
  980loPI    C113979  17.296   1.645   6.020  0.0716  0.0378 -0.0266
  980loPI    C213980  17.518   1.500   5.721  0.1758  0.0973  0.0214
  980loPI    C313981  17.136   1.598   5.657  0.1610 -0.0123 -0.0597
  980loPI   PO413982  17.386   1.577   6.194 -0.2581 -0.0054 -0.1654
  980loPI   GL113983  17.322   1.509   6.634  0.0600 -0.1523  0.1753
  980loPI   GL213984  17.248   1.189   6.544 -0.2524  0.0482 -0.0443
  980loPI   C1A13985  17.118   1.756   6.991  0.0531 -0.1856  0.1033
  980loPI   C2A13986  16.982   1.692   7.345  0.0294 -0.2332 -0.2772
  980loPI   C3A13987  17.167   1.597   7.699 -0.2401 -0.0124 -0.2707
  980loPI   C4A13988  17.062   1.471   8.132 -0.0856 -0.0500  0.1528
  980loPI   C5A13989  17.193   1.844   8.448 -0.0361  0.3241  0.1785
  980loPI   C6A13990  16.969   2.200   8.431  0.2050 -0.2678 -0.1761
  980loPI   C1B13991  17.311   1.252   7.013 -0.0076 -0.0851  0.1759
  980loPI   C2B13992  17.291   1.143   7.512  0.1572 -0.0214 -0.0048
  980loPI   C3B13993  17.224   1.024   7.962  0.1496  0.1444  0.1526
  980loPI   C4B13994  17.501   1.188   8.329 -0.2604  0.1938 -0.2611
  981loPI    C113995  13.016   5.244   6.138 -0.2406 -0.3825 -0.0904
  981loPI    C213996  13.159   5.258   5.764  0.3482  0.0691  0.1366
  981loPI    C313997  13.237   4.942   5.996  0.1746 -0.1083 -0.0422
  981loPI   PO413998  12.732   5.298   6.107 -0.0747  0.1481  0.0114
  981loPI   GL113999  12.324   5.183   6.344  0.0235 -0.0752  0.3620
  981loPI   GL214000  12.416   5.264   6.648 -0.1352  0.2259  0.1288
  981loPI   C1A14001  12.043   5.002   6.641  0.2736  0.0451  0.1768
  981loPI   C2A14002  12.157   4.939   7.061  0.1184  0.1172 -0.3005
  981loPI   C3A14003  12.255   5.053   7.496 -0.0551  0.1863  0.1131
  981loPI   C4A14004  12.399   4.923   7.867 -0.0720 -0.0014 -0.0813
  981loPI   C5A14005  12.313   5.020   8.272  0.4754 -0.0348  0.1259
  981loPI   C6A14006  12.145   5.123   8.635  0.0702  0.0218  0.1171
  981loPI   C1B14007  12.593   5.205   7.097  0.1859  0.1145 -0.3865
  981loPI   C2B14008  12.711   5.216   7.481 -0.3194 -0.1563 -0.0370
  981loPI   C3B14009  12.766   5.216   7.886 -0.0431  0.3747  0.0093
  981loPI   C4B14010  12.745   5.286   8.305  0.0309  0.0198 -0.1574
  982loPI    C114011   4.445  11.348   5.822  0.0022  0.0911 -0.1646
  982loPI    C214012   4.829  11.359   5.712  0.0480 -0.0601 -0.0221
  982loPI    C314013   4.544  11.300   5.438  0.1200  0.1303 -0.1393
  982loPI   PO414014   4.526  11.452   6.118 -0.2304 -0.0383  0.2292
  982loPI   GL114015   4.452  11.293   6.458 -0.1362  0.3190 -0.0446
  982loPI   GL214016   4.440  10.914   6.529 -0.0166 -0.1744  0.0804
  982loPI   C1A14017   4.420  11.294   6.919  0.2432  0.0896 -0.1968
  982loPI   C2A14018   4.382  11.197   7.336  0.1803 -0.0348 -0.1666
  982loPI   C3A14019   4.520  11.105   7.727 -0.2437  0.2075  0.0165
  982loPI   C4A14020   4.624  11.007   8.082 -0.3186  0.1968  0.4023
  982loPI   C5A14021   4.994  10.743   8.187  0.0501 -0.1625  0.1112
  982loPI   C6A14022   5.371  10.819   8.128 -0.0317  0.1167 -0.0130
  982loPI   C1B14023   4.236  10.780   6.966  0.1110  0.1109  0.2142
  982loPI   C2B14024   4.257  10.705   7.372 -0.4644 -0.3349  0.1869
  982loPI   C3B14025   4.115  10.773   7.810 -0.0338  0.1012  0.2469
  982loPI   C4B14026   3.923  10.834   8.154 -0.2716  0.2074 -0.2318
  983loPI    C114027   1.027   3.784   5.772  0.2455  0.3443 -0.1233
  983loPI    C214028   1.341   3.792   6.020  0.1183 -0.1370  0.0666
  983loPI    C314029   1.277   3.472   5.790 -0.1226  0.0424 -0.1217
  983loPI   PO414030   0.792   3.869   5.937  0.2084 -0.1190  0.0866
  983loPI   GL114031   0.884   4.176   6.344  0.2486  0.0384 -0.1582
  983loPI   GL214032   1.237   4.162   6.388 -0.1211 -0.2639  0.0400
  983loPI   C1A14033   0.607   4.357   6.722  0.0532  0.0295 -0.0807
  983loPI   C2A14034   0.706   4.330   7.028  0.1159 -0.0985 -0.0378
  983loPI   C3A14035   0.770   4.297   7.415 -0.0110  0.0298 -0.1083
  983loPI   C4A14036   0.821   4.195   7.804 -0.1791  0.0115  0.1806
  983loPI   C5A14037   1.042   4.108   8.013  0.2090  0.1320 -0.3209
  983loPI   C6A14038   1.072   4.370   8.386  0.2674 -0.2673  0.0568
  983loPI   C1B14039   1.213   4.406   6.688  0.0861 -0.2876 -0.3349
  983loPI   C2B14040   1.184   4.520   7.248 -0.3598  0.3374 -0.0245
  983loPI   C3B14041   1.161   4.573   7.668 -0.2035  0.1358 -0.0901
  983loPI   C4B14042   1.448   4.504   8.006  0.3487 -0.2011 -0.0319
  984loPI    C114043  10.200   9.787   5.830 -0.4372 -0.1917  0.2318
  984loPI    C214044  10.084   9.444   5.659 -0.2497 -0.1144 -0.0573
  984loPI    C314045   9.989   9.794   5.491 -0.1299 -0.0340  0.0396
  984loPI   PO414046  10.497   9.781   5.889  0.2161 -0.1365  0.0111
  984loPI   GL114047  10.721  10.055   6.292  0.1187 -0.0238  0.1621
  984loPI   GL214048  11.004   9.920   6.107 -0.3046 -0.1361  0.5107
  984loPI   C1A14049  10.645  10.201   6.783 -0.0557 -0.0748 -0.0417
  984loPI   C2A14050  10.531  10.248   7.224  0.1285  0.0464 -0.1965
  984loPI   C3A14051  10.493  10.118   7.642  0.0514 -0.0581  0.0273
  984loPI   C4A14052  10.647  10.164   8.026  0.0377  0.0688 -0.0575
  984loPI   C5A14053  10.683  10.085   8.488 -0.0537  0.4236  0.0212
  984loPI   C6A14054  10.673  10.046   8.960  0.1385 -0.2245  0.0553
  984loPI   C1B14055  11.194   9.830   6.458  0.0973 -0.1625 -0.0799
  984loPI   C2B14056  11.245   9.660   6.800  0.2457 -0.1090  0.0681
  984loPI   C3B14057  11.312   9.642   7.323  0.0877 -0.0426 -0.0565
  984loPI   C4B14058  11.289   9.546   7.768  0.0031 -0.1246  0.0508
  985loPI    C114059   8.777   8.527   5.412  0.0267  0.0398 -0.0171
  985loPI    C214060   8.782   8.208   5.171 -0.1818 -0.0648  0.1141
  985loPI    C314061   8.804   8.576   5.016 -0.0138 -0.1396 -0.0430
  985loPI   PO414062   8.790   8.443   5.725  0.1417  0.0507 -0.1572
  985loPI   GL114063   8.753   8.178   6.089  0.2605 -0.1204 -0.0774
  985loPI   GL214064   8.356   8.166   6.085  0.0976  0.0735 -0.0273
  985loPI   C1A14065   8.622   8.108   6.455  0.1586  0.0653 -0.0525
  985loPI   C2A14066   8.554   8.115   6.901  0.0138  0.0398  0.1182
  985loPI   C3A14067   8.568   8.097   7.303  0.2363  0.0147  0.1001
  985loPI   C4A14068   8.479   8.047   7.717  0.1392  0.1855  0.1193
  985loPI   C5A14069   8.653   7.852   8.128 -0.1444 -0.1530  0.0513
  985loPI   C6A14070   8.843   8.036   8.451 -0.0809  0.3936  0.1119
  985loPI   C1B14071   8.108   8.283   6.370 -0.0080  0.0844  0.0851
  985loPI   C2B14072   8.100   8.380   6.755  0.3247 -0.1515  0.1628
  985loPI   C3B14073   8.129   8.299   7.149 -0.1485 -0.0142  0.1100
  985loPI   C4B14074   8.030   8.342   7.634 -0.2308  0.1132  0.0148
  986loPI    C114075   9.915  13.043   5.800 -0.0951  0.2394 -0.0698
  986loPI    C214076   9.874  13.411   5.647 -0.0248  0.2202 -0.1356
  986loPI    C314077   9.842  13.091   5.409 -0.0453  0.1851 -0.0859
  986loPI   PO414078   9.735  13.093   6.101 -0.1983  0.3353  0.3124
  986loPI   GL114079   9.499  12.939   6.457  0.3828  0.0756  0.1409
  986loPI   GL214080   9.724  12.842   6.543  0.1876 -0.3694 -0.0930
  986loPI   C1A14081   9.358  12.849   6.912  0.3556  0.0791 -0.2255
  986loPI   C2A14082   9.422  12.751   7.256  0.0620 -0.1523  0.3276
  986loPI   C3A14083   9.667  12.754   7.671 -0.0386 -0.1573  0.1189
  986loPI   C4A14084   9.974  12.583   8.006  0.1579  0.0519 -0.1362
  986loPI   C5A14085  10.269  12.350   8.181 -0.1525 -0.0268 -0.1269
  986loPI   C6A14086  10.402  12.031   8.514 -0.4960 -0.0178 -0.1296
  986loPI   C1B14087   9.899  12.686   6.981  0.3333 -0.4287  0.0858
  986loPI   C2B14088   9.980  12.627   7.268 -0.2448  0.1468  0.1198
  986loPI   C3B14089  10.284  12.630   7.606 -0.1641 -0.0513 -0.0774
  986loPI   C4B14090  10.576  12.634   7.966  0.1930 -0.2023  0.3567
  987loPI    C114091  17.033  11.930   5.745  0.2458  0.0873 -0.2290
  987loPI    C214092  17.075  11.817   5.364  0.2145 -0.3741 -0.1026
  987loPI    C314093  17.231  11.594   5.657  0.2242 -0.0328  0.1593
  987loPI   PO414094  17.018  12.178   5.697 -0.0112  0.0466  0.0284
  987loPI   GL114095  17.220  12.429   5.990 -0.0122 -0.0289  0.2167
  987loPI   GL214096  17.442  12.359   6.130  0.0124  0.1207  0.0472
  987loPI   C1A14097  16.990  12.542   6.329 -0.3834 -0.1161  0.2259
  987loPI   C2A14098  16.973  12.540   6.678  0.0878 -0.3091  0.1328
  987loPI   C3A14099  16.873  12.597   7.140 -0.2389 -0.0483  0.0860
  987loPI   C4A14100  16.746  12.683   7.626  0.0309  0.1323 -0.1356
  987loPI   C5A14101  16.967  12.758   8.088  0.1695  0.0828 -0.0028
  987loPI   C6A14102  17.223  12.669   8.412  0.0078  0.3904  0.0061
  987loPI   C1B14103  17.437  12.344   6.551  0.1230 -0.3490 -0.0238
  987loPI   C2B14104  17.282  12.340   7.014 -0.1053  0.0458 -0.0811
  987loPI   C3B14105  17.210  12.386   7.487 -0.3718 -0.2819  0.3046
  987loPI   C4B14106  17.293  12.414   7.936  0.0025 -0.1460  0.1295
  988loPI    C114107  11.244   7.724   5.621 -0.0174  0.3041 -0.0935
  988loPI    C214108  11.400   7.924   5.311 -0.0045  0.1142 -0.2110
  988loPI    C314109  11.161   7.610   5.247 -0.0086  0.0785 -0.0278
  988loPI   PO414110  11.134   7.873   5.783 -0.2752  0.3971  0.1541
  988loPI   GL114111  11.135   7.977   6.194  0.2910  0.0483 -0.0494
  988loPI   GL214112  11.284   8.229   6.240 -0.1029 -0.0364 -0.0055
  988loPI   C1A14113  11.054   7.953   6.616 -0.0655 -0.0216  0.1077
  988loPI   C2A14114  10.965   8.296   6.900  0.1921  0.1012 -0.1098
  988loPI   C3A14115  10.862   8.369   7.337  0.0945  0.0553  0.0996
  988loPI   C4A14116  10.892   8.546   7.742 -0.1578  0.0937 -0.1098
  988loPI   C5A14117  11.258   8.682   8.030  0.0470  0.1745  0.2229
  988loPI   C6A14118  11.662   8.809   8.116 -0.0198 -0.2878  0.3773
  988loPI   C1B14119  11.423   8.466   6.547  0.1669 -0.3468 -0.2084
  988loPI   C2B14120  11.487   8.400   7.068  0.0240 -0.0687  0.0490
  988loPI   C3B14121  11.853   8.531   7.287  0.2262 -0.0620 -0.1785
  988loPI   C4B14122  11.900   8.787   7.610  0.0067 -0.0541 -0.1329
  989loPI    C114123   0.141  10.647   5.463  0.2070  0.0167  0.0260
  989loPI    C214124  -0.132  10.360   5.411  0.2114  0.0019  0.0850
  989loPI    C314125   0.016  10.554   5.094  0.1864 -0.0403  0.0473
  989loPI   PO414126   0.025  10.813   5.720  0.0716 -0.0203  0.0706
  989loPI   GL114127  -0.092  10.816   6.205 -0.1753  0.0785  0.0925
  989loPI   GL214128   0.168  10.603   6.449 -0.3491 -0.2664 -0.1090
  989loPI   C1A14129  -0.482  10.745   6.365 -0.4052  0.2382 -0.0999
  989loPI   C2A14130  -0.706  10.635   6.787  0.0094  0.3591 -0.0832
  989loPI   C3A14131  -0.731  10.550   7.146 -0.2576  0.0180 -0.1915
  989loPI   C4A14132  -0.856  10.753   7.566  0.1332 -0.2289  0.0647
  989loPI   C5A14133  -0.739  11.041   7.881 -0.1285  0.1042 -0.1596
  989loPI   C6A14134  -0.902  11.041   8.248 -0.0884  0.1702  0.1021
  989loPI   C1B14135  -0.180  10.560   6.681 -0.0235  0.1664 -0.0644
  989loPI   C2B14136  -0.230  10.567   7.149  0.1167 -0.2354 -0.2511
  989loPI   C3B14137  -0.396  10.903   7.367  0.1086  0.1266  0.2379
  989loPI   C4B14138  -0.448  11.359   7.329  0.1213  0.0597 -0.2565
  990loPI    C114139  11.501  13.665   6.008  0.0456  0.0192 -0.1897
  990loPI    C214140  11.535  13.360   5.751  0.0981 -0.0752 -0.0715
  990loPI    C314141  11.211  13.594   5.742  0.0573 -0.1347 -0.1625
  990loPI   PO414142  11.498  13.598   6.221  0.1237 -0.0348  0.1018
  990loPI   GL114143  11.508  13.861   6.660 -0.0836 -0.2069 -0.0373
  990loPI   GL214144  11.844  13.831   6.799  0.0954  0.0014  0.1612
  990loPI   C1A14145  11.459  14.065   7.081  0.3476  0.2161  0.3345
  990loPI   C2A14146  11.568  14.173   7.483  0.0346  0.1342 -0.2706
  990loPI   C3A14147  11.625  14.387   7.739  0.0797  0.0160 -0.1157
  990loPI   C4A14148  11.397  14.562   8.057  0.0912 -0.1404 -0.4398
  990loPI   C5A14149  11.217  14.864   8.283 -0.0309  0.0448 -0.0025
  990loPI   C6A14150  10.854  14.776   8.418 -0.0945  0.0846  0.0686
  990loPI   C1B14151  11.822  13.738   7.084 -0.1205  0.0458 -0.1644
  990loPI   C2B14152  11.905  13.732   7.536 -0.1329 -0.1041 -0.1072
  990loPI   C3B14153  12.027  14.014   7.843 -0.1845 -0.0836 -0.2675
  990loPI   C4B14154  12.309  14.232   8.065  0.1679  0.0595 -0.1413
  991loPI    C114155   0.847   5.379   5.676 -0.0789 -0.0041 -0.0181
  991loPI    C214156   0.563   5.127   5.801  0.0136 -0.1395 -0.0794
  991loPI    C314157   0.603   5.206   5.411  0.0015 -0.0499 -0.0626
  991loPI   PO414158   0.885   5.591   5.929  0.2444  0.3829  0.0912
  991loPI   GL114159   0.795   5.548   6.326  0.2954  0.0228  0.1538
  991loPI   GL214160   1.033   5.549   6.578 -0.1763  0.5051 -0.0608
  991loPI   C1A14161   0.486   5.720   6.658 -0.2602  0.2077 -0.0668
  991loPI   C2A14162   0.274   5.793   7.038 -0.0587 -0.3128 -0.1633
  991loPI   C3A14163   0.218   5.987   7.319  0.3428 -0.0444 -0.2033
  991loPI   C4A14164   0.155   5.800   7.712  0.1532 -0.1284 -0.0252
  991loPI   C5A14165   0.107   5.607   8.153 -0.1223  0.2268 -0.0074
  991loPI   C6A14166   0.001   5.548   8.570 -0.1397 -0.2469  0.4237
  991loPI   C1B14167   1.048   5.305   6.958 -0.0096 -0.0371 -0.0137
  991loPI   C2B14168   1.068   5.055   7.384 -0.0936  0.2951  0.1183
  991loPI   C3B14169   1.207   4.993   7.868  0.2681 -0.2176 -0.0039
  991loPI   C4B14170   1.248   4.919   8.316  0.0161 -0.1402 -0.0061
  992loPI    C114171  14.477   0.501   5.623  0.0757  0.0457  0.2385
  992loPI    C214172  14.211   0.598   5.905 -0.3599 -0.2417 -0.0590
  992loPI    C314173  14.104   0.602   5.520  0.1482 -0.1172 -0.2071
  992loPI   PO414174  14.595   0.312   5.739 -0.1507  0.2763 -0.2278
  992loPI   GL114175  14.431   0.233   6.134 -0.3782 -0.0789 -0.2760
  992loPI   GL214176  14.210   0.167   6.290  0.3090  0.0378 -0.0502
  992loPI   C1A14177  14.578   0.402   6.516  0.2400 -0.2831 -0.3516
  992loPI   C2A14178  14.697   0.495   6.945 -0.0527  0.1366  0.0842
  992loPI   C3A14179  14.756   0.488   7.317  0.0420  0.0922 -0.1183
  992loPI   C4A14180  14.852   0.537   7.750 -0.1504 -0.0968 -0.1352
  992loPI   C5A14181  14.660   0.357   8.114 -0.1459  0.1387 -0.1318
  992loPI   C6A14182  14.624   0.082   8.397  0.1818  0.1274 -0.1258
  992loPI   C1B14183  14.223   0.133   6.679  0.4066 -0.0060 -0.1685
  992loPI   C2B14184  14.224   0.154   7.106  0.1451  0.2007 -0.0818
  992loPI   C3B14185  14.290   0.114   7.579 -0.1904 -0.0224 -0.3818
  992loPI   C4B14186  14.364  -0.008   8.008 -0.2144  0.0042 -0.1302
  993loPI    C114187  10.222   3.930   5.853 -0.1506 -0.0445 -0.0738
  993loPI    C214188  10.110   4.187   6.139 -0.0757 -0.0950  0.0016
  993loPI    C314189  10.347   4.310   5.840  0.0341 -0.0980  0.0868
  993loPI   PO414190  10.127   3.718   5.950 -0.2169 -0.0009  0.1641
  993loPI   GL114191  10.202   3.511   6.290  0.2816  0.0525  0.0497
  993loPI   GL214192  10.174   3.793   6.509 -0.0283  0.2573  0.0774
  993loPI   C1A14193  10.572   3.516   6.556  0.3401  0.2821  0.1618
  993loPI   C2A14194  10.842   3.571   6.935 -0.1229  0.1461  0.0565
  993loPI   C3A14195  11.042   3.506   7.348 -0.0766  0.3143 -0.0116
  993loPI   C4A14196  11.109   3.579   7.818 -0.0481  0.1930 -0.0813
  993loPI   C5A14197  11.347   3.677   8.223  0.3320 -0.2128  0.1615
  993loPI   C6A14198  11.595   3.529   8.545 -0.0207  0.1345 -0.0851
  993loPI   C1B14199  10.377   3.858   6.909 -0.2822 -0.0516 -0.0575
  993loPI   C2B14200  10.488   3.795   7.264  0.1832 -0.2289  0.0505
  993loPI   C3B14201  10.636   3.734   7.582  0.0506 -0.1205  0.0669
  993loPI   C4B14202  10.816   3.936   8.007 -0.1769  0.0104  0.0857
  994loPI    C114203   7.596   2.995   6.214 -0.1296 -0.1024  0.0275
  994loPI    C214204   7.883   2.776   6.387  0.0164  0.0112 -0.0692
  994loPI    C314205   7.822   2.751   5.993 -0.1163 -0.0227 -0.0471
  994loPI   PO414206   7.642   3.225   6.307 -0.3618  0.1119 -0.1951
  994loPI   GL114207   7.546   3.358   6.635 -0.0694 -0.2861  0.0795
  994loPI   GL214208   7.425   2.982   6.703  0.0814 -0.1378  0.2325
  994loPI   C1A14209   7.433   3.406   7.013 -0.0374 -0.2967  0.2075
  994loPI   C2A14210   7.324   3.577   7.419  0.0499 -0.1135  0.2756
  994loPI   C3A14211   7.353   3.536   7.872  0.1063  0.0649 -0.1297
  994loPI   C4A14212   7.416   3.565   8.290 -0.0088  0.0537 -0.1385
  994loPI   C5A14213   7.298   3.467   8.670  0.2781  0.0828  0.0313
  994loPI   C6A14214   6.871   3.421   8.779  0.2703  0.1379  0.2402
  994loPI   C1B14215   7.260   2.937   7.042 -0.0142 -0.2049  0.2103
  994loPI   C2B14216   7.176   3.061   7.367  0.0444 -0.0804 -0.3293
  994loPI   C3B14217   7.161   3.106   7.860  0.2490  0.1008 -0.0083
  994loPI   C4B14218   7.009   3.282   8.173  0.1790 -0.1260  0.2138
  995loPI    C114219  15.654  10.172   5.435  0.0835 -0.0715  0.0076
  995loPI    C214220  15.935  10.084   5.706 -0.0098 -0.1345  0.0848
  995loPI    C314221  16.040  10.230   5.348  0.1055  0.1116  0.2160
  995loPI   PO414222  15.484   9.951   5.423 -0.1982  0.0328  0.2989
  995loPI   GL114223  15.732   9.610   5.756 -0.1074 -0.0636  0.0855
  995loPI   GL214224  15.996   9.551   6.021 -0.0762 -0.1987  0.2794
  995loPI   C1A14225  15.646   9.900   6.208 -0.3363 -0.0590 -0.1974
  995loPI   C2A14226  15.629  10.032   6.541  0.0825  0.1891  0.1771
  995loPI   C3A14227  15.506  10.147   6.939 -0.0253 -0.0399 -0.1725
  995loPI   C4A14228  15.645  10.180   7.356  0.1292  0.1393  0.1510
  995loPI   C5A14229  15.939  10.287   7.799 -0.0938  0.1413  0.0312
  995loPI   C6A14230  16.169  10.421   8.221 -0.1667  0.2544 -0.2634
  995loPI   C1B14231  15.902   9.571   6.476 -0.1327  0.1080 -0.2550
  995loPI   C2B14232  15.779   9.643   6.910  0.3690 -0.1051  0.2344
  995loPI   C3B14233  15.799   9.733   7.314 -0.0577  0.3275  0.0861
  995loPI   C4B14234  15.684   9.737   7.841 -0.2821 -0.2524 -0.1031
  996loPI    C114235  10.456   5.776   5.579  0.0350  0.0138 -0.0743
  996loPI    C214236  10.620   5.480   5.365  0.0608 -0.0439  0.0244
  996loPI    C314237  10.294   5.410   5.586 -0.0512  0.0512 -0.1093
  996loPI   PO414238  10.694   5.880   5.744  0.0123  0.1714 -0.0259
  996loPI   GL114239  10.741   6.148   6.116 -0.0567  0.1770 -0.0380
  996loPI   GL214240  10.425   6.107   6.264  0.1825 -0.1248  0.2767
  996loPI   C1A14241  10.970   6.146   6.497 -0.0699  0.2708  0.0122
  996loPI   C2A14242  10.978   6.096   6.919  0.2548 -0.0983  0.0708
  996loPI   C3A14243  10.882   6.182   7.324 -0.1507 -0.1134  0.1488
  996loPI   C4A14244  11.026   6.114   7.793  0.3936  0.3143 -0.3285
  996loPI   C5A14245  10.924   6.058   8.228  0.0387  0.0114  0.0047
  996loPI   C6A14246  10.558   5.984   8.604  0.1582  0.1502  0.2849
  996loPI   C1B14247  10.113   6.072   6.720 -0.2960  0.4579 -0.2040
  996loPI   C2B14248  10.022   6.018   7.232  0.0694  0.2494  0.0961
  996loPI   C3B14249  10.043   6.135   7.618 -0.1044 -0.1144  0.0701
  996loPI   C4B14250  10.142   6.232   8.021  0.1896  0.1993  0.0411
  997loPI    C114251  11.872   1.285   5.615 -0.1639  0.1696  0.2864
  997loPI    C214252  11.801   1.466   5.266  0.3976  0.0977  0.1251
  997loPI    C314253  11.585   1.562   5.588 -0.3221 -0.0358 -0.2953
  997loPI   PO414254  12.028   1.013   5.580 -0.1501 -0.3297 -0.2147
  997loPI   GL114255  12.329   1.008   5.936  0.1433  0.0314  0.0319
  997loPI   GL214256  12.442   0.660   6.196 -0.1566  0.0456  0.0505
  997loPI   C1A14257  12.390   1.167   6.382 -0.2711  0.2470  0.1349
  997loPI   C2A14258  12.492   1.135   6.784  0.0036 -0.1740  0.1176
  997loPI   C3A14259  12.489   1.313   7.221 -0.0544 -0.0198  0.1894
  997loPI   C4A14260  12.568   1.352   7.657 -0.0348  0.1008  0.0629
  997loPI   C5A14261  12.449   1.302   8.132  0.2648 -0.1011  0.1259
  997loPI   C6A14262  12.444   1.405   8.633 -0.1354 -0.1951  0.0500
  997loPI   C1B14263  12.407   0.647   6.676 -0.2993  0.0960 -0.2570
  997loPI   C2B14264  12.474   0.808   7.105  0.1052  0.0320  0.1298
  997loPI   C3B14265  12.532   0.783   7.514 -0.2858 -0.0155 -0.4946
  997loPI   C4B14266  12.502   0.809   7.957  0.0706  0.0612 -0.1317
  998loPI    C114267   0.967  16.830   5.980 -0.0534  0.1091  0.0303
  998loPI    C214268   0.825  17.134   6.198 -0.1282  0.0116  0.1185
  998loPI    C314269   0.897  17.184   5.808  0.0236  0.1923  0.1687
  998loPI   PO414270   1.196  16.698   6.080 -0.0873  0.0290  0.2159
  998loPI   GL114271   1.221  16.847   6.466  0.0183 -0.0584 -0.1965
  998loPI   GL214272   0.921  16.855   6.515  0.2582 -0.1592 -0.1796
  998loPI   C1A14273   1.294  16.590   6.836 -0.2939 -0.1331  0.1505
  998loPI   C2A14274   1.393  16.603   7.216  0.1291 -0.2834 -0.1025
  998loPI   C3A14275   1.562  16.647   7.657  0.1181  0.2583  0.1653
  998loPI   C4A14276   1.783  16.493   7.971 -0.3155 -0.2053  0.2926
  998loPI   C5A14277   1.847  16.064   8.165  0.0414  0.1258  0.0173
  998loPI   C6A14278   1.874  15.688   8.399 -0.1379 -0.1451  0.1648
  998loPI   C1B14279   0.942  16.925   6.987 -0.2804  0.0033  0.0746
  998loPI   C2B14280   1.041  16.995   7.431  0.3125  0.0141 -0.0096
  998loPI   C3B14281   1.298  17.020   7.771 -0.1951  0.1247 -0.3937
  998loPI   C4B14282   1.431  16.987   8.215 -0.1744  0.0515 -0.0574
  999loPI    C114283   1.138   6.019   5.803  0.0127 -0.2208  0.0711
  999loPI    C214284   0.749   6.097   5.749  0.0512  0.1204  0.2616
  999loPI    C314285   1.021   6.263   5.508  0.0621 -0.4004 -0.0985
  999loPI   PO414286   1.088   5.967   6.144 -0.1015  0.0742  0.1114
  999loPI   GL114287   1.243   6.363   6.500  0.3189  0.2819 -0.0922
  999loPI   GL214288   0.926   6.662   6.457 -0.0300 -0.0513  0.2375
  999loPI   C1A14289   1.480   6.483   6.841 -0.0385 -0.1063  0.0670
  999loPI   C2A14290   1.585   6.464   7.286  0.1199  0.0090  0.0938
  999loPI   C3A14291   1.488   6.431   7.680 -0.1104 -0.1251 -0.0562
  999loPI   C4A14292   1.413   6.265   8.084 -0.0723 -0.1875 -0.1647
  999loPI   C5A14293   1.369   6.002   8.432 -0.2572 -0.0666  0.2839
  999loPI   C6A14294   1.473   5.533   8.394 -0.1638 -0.2880  0.1583
  999loPI   C1B14295   0.908   6.522   6.880 -0.0691  0.1053 -0.0191
  999loPI   C2B14296   1.111   6.331   7.153 -0.1432  0.0198 -0.2639
  999loPI   C3B14297   0.994   6.250   7.606  0.2012 -0.0237 -0.1408
  999loPI   C4B14298   1.011   5.903   7.677 -0.2830 -0.1151 -0.2272
 1000loPI    C114299   8.381  15.236   6.131 -0.1323 -0.0079  0.0836
 1000loPI    C214300   8.392  15.620   6.020 -0.0356  0.0249  0.2045
 1000loPI    C314301   8.409  15.332   5.743 -0.0653  0.1070  0.1165
 1000loPI   PO414302   8.511  15.226   6.336 -0.1525  0.1244 -0.1023
 1000loPI   GL114303   8.555  15.186   6.680 -0.2656 -0.0626 -0.3434
 1000loPI   GL214304   8.259  14.915   6.632  0.1076  0.2270 -0.1307
 1000loPI   C1A14305   8.891  15.271   7.026 -0.3477  0.0255  0.1718
 1000loPI   C2A14306   8.879  15.159   7.445 -0.0406 -0.0600 -0.0199
 1000loPI   C3A14307   8.766  14.839   7.648 -0.1059 -0.0360  0.1674
 1000loPI   C4A14308   8.620  14.656   8.023 -0.0808  0.2353 -0.1263
 1000loPI   C5A14309   8.537  14.835   8.456 -0.2108 -0.0608 -0.1762
 1000loPI   C6A14310   8.657  14.796   8.889 -0.0445  0.0490  0.1608
 1000loPI   C1B14311   8.336  14.823   7.093 -0.0343  0.3490  0.0232
 1000loPI   C2B14312   8.545  14.466   7.295  0.3295 -0.0005  0.3684
 1000loPI   C3B14313   8.771  14.278   7.682  0.1473 -0.2053 -0.1205
 1000loPI   C4B14314   8.890  14.253   8.157  0.1873 -0.2259 -0.1649
 1001loPI    C114315   8.306   1.692   5.950  0.1002  0.2364  0.0117
 1001loPI    C214316   7.907   1.712   5.918  0.0742 -0.2142 -0.0223
 1001loPI    C314317   8.137   1.742   5.591  0.0765  0.1276  0.0071
 1001loPI   PO414318   8.284   1.729   6.208  0.2610 -0.0769  0.4205
 1001loPI   GL114319   8.364   1.758   6.522  0.0153  0.1888 -0.2283
 1001loPI   GL214320   8.610   1.953   6.720 -0.0657  0.3333 -0.1977
 1001loPI   C1A14321   8.413   1.444   6.903 -0.1056  0.3341  0.0318
 1001loPI   C2A14322   8.425   1.371   7.429  0.1097 -0.2549 -0.0569
 1001loPI   C3A14323   8.403   1.276   7.860  0.0474  0.0455  0.1203
 1001loPI   C4A14324   8.612   1.416   8.329 -0.1325 -0.0641  0.4413
 1001loPI   C5A14325   8.474   1.347   8.743  0.2159  0.0999  0.0256
 1001loPI   C6A14326   8.551   1.518   9.139 -0.0215  0.2371  0.1141
 1001loPI   C1B14327   8.898   2.090   7.110  0.0691 -0.3665  0.0578
 1001loPI   C2B14328   8.975   2.160   7.459  0.1585 -0.2399  0.0674
 1001loPI   C3B14329   8.919   2.293   7.935 -0.1040  0.2986  0.1903
 1001loPI   C4B14330   9.076   2.328   8.289 -0.2789  0.2146  0.5098
 1002loPI    C114331  13.522  10.265   5.390 -0.1533  0.1472 -0.4101
 1002loPI    C214332  13.583  10.643   5.274 -0.2704  0.2241 -0.2253
 1002loPI    C314333  13.248  10.452   5.166 -0.2783  0.2220 -0.1970
 1002loPI   PO414334  13.589  10.256   5.613 -0.2243  0.0813 -0.1319
 1002loPI   GL114335  13.630  10.045   6.039 -0.0566  0.0767  0.2781
 1002loPI   GL214336  13.450  10.356   6.082 -0.1212 -0.1710  0.5756
 1002loPI   C1A14337  13.976  10.196   6.353 -0.0371 -0.3259  0.1994
 1002loPI   C2A14338  14.035  10.004   6.691 -0.0286 -0.1346 -0.0670
 1002loPI   C3A14339  14.157   9.992   7.121  0.2441 -0.0044  0.0613
 1002loPI   C4A14340  14.169   9.870   7.649 -0.3215 -0.1370 -0.1270
 1002loPI   C5A14341  14.378   9.996   7.966 -0.0144 -0.1022  0.0491
 1002loPI   C6A14342  14.771   9.929   8.214 -0.1749  0.2482 -0.2260
 1002loPI   C1B14343  13.134  10.217   6.382 -0.1690  0.0676 -0.1376
 1002loPI   C2B14344  13.047  10.118   6.704 -0.0396  0.3032 -0.1276
 1002loPI   C3B14345  12.927   9.993   7.122  0.1602 -0.1585 -0.1123
 1002loPI   C4B14346  12.732  10.039   7.568 -0.2058  0.0262 -0.0272
 1003loPI    C114347   1.645   7.489   6.043 -0.1060  0.0415  0.0211
 1003loPI    C214348   1.681   7.863   6.179 -0.1307  0.0420  0.0261
 1003loPI    C314349   1.651   7.795   5.786 -0.2226  0.0526  0.0310
 1003loPI   PO414350   1.423   7.341   6.249 -0.1112  0.1789 -0.1380
 1003loPI   GL114351   1.465   7.353   6.711 -0.0110 -0.0480 -0.1375
 1003loPI   GL214352   1.680   7.581   6.578  0.2060 -0.0364 -0.1102
 1003loPI   C1A14353   1.454   7.548   7.131 -0.0833 -0.0652  0.2978
 1003loPI   C2A14354   1.591   7.587   7.506  0.2119  0.0752 -0.0178
 1003loPI   C3A14355   1.626   7.668   7.981 -0.2704 -0.2985 -0.2577
 1003loPI   C4A14356   1.703   7.893   8.357 -0.0397 -0.0273 -0.1205
 1003loPI   C5A14357   1.922   8.283   8.569 -0.0219  0.1017 -0.2011
 1003loPI   C6A14358   1.930   8.446   9.003 -0.1076 -0.0353  0.0528
 1003loPI   C1B14359   1.921   7.406   6.931  0.1021  0.2150  0.0653
 1003loPI   C2B14360   1.985   7.349   7.377 -0.0796  0.4336  0.0426
 1003loPI   C3B14361   1.913   7.282   7.803 -0.1649 -0.0251 -0.1404
 1003loPI   C4B14362   2.107   7.465   8.180 -0.1072  0.0905  0.2306
 1004loPI    C114363  15.900  12.090   5.248 -0.1762 -0.0359  0.0936
 1004loPI    C214364  15.705  11.746   5.307 -0.0118 -0.1405  0.0340
 1004loPI    C314365  15.742  11.894   4.937  0.0710 -0.1509  0.0380
 1004loPI   PO414366  16.115  12.013   5.554  0.1752  0.3169 -0.0851
 1004loPI   GL114367  16.132  12.121   5.927  0.1301  0.0229 -0.2794
 1004loPI   GL214368  15.881  11.957   6.051  0.1664 -0.0049 -0.1641
 1004loPI   C1A14369  16.305  12.168   6.268 -0.1712  0.1802  0.2316
 1004loPI   C2A14370  16.359  12.321   6.629 -0.0077 -0.0700 -0.1232
 1004loPI   C3A14371  16.388  12.406   7.053  0.1299  0.0375  0.0534
 1004loPI   C4A14372  16.284  12.468   7.505 -0.1036 -0.0523  0.0127
 1004loPI   C5A14373  16.314  12.612   7.901 -0.1358 -0.0449  0.0071
 1004loPI   C6A14374  16.095  12.665   8.365 -0.4509 -0.0949 -0.0376
 1004loPI   C1B14375  15.892  12.067   6.442  0.0808  0.0777 -0.0281
 1004loPI   C2B14376  15.922  12.154   6.895 -0.2897 -0.1563 -0.3470
 1004loPI   C3B14377  15.838  12.203   7.249 -0.0521 -0.0054 -0.1092
 1004loPI   C4B14378  15.771  12.406   7.574  0.1849 -0.1992 -0.2212
 1005loPI    C114379  17.290   9.160   6.143  0.2476 -0.0711  0.0101
 1005loPI    C214380  17.175   9.438   5.880  0.1276  0.0552  0.1930
 1005loPI    C314381  16.925   9.321   6.169  0.2878 -0.0207  0.3025
 1005loPI   PO414382  17.511   9.048   6.013  0.0442 -0.4373  0.0170
 1005loPI   GL114383  17.745   9.211   6.340 -0.0839 -0.0761  0.0619
 1005loPI   GL214384  17.980   9.403   6.349  0.1193 -0.0556 -0.1503
 1005loPI   C1A14385  17.622   9.172   6.761 -0.0985  0.3022 -0.1817
 1005loPI   C2A14386  17.589   9.145   7.184 -0.1327  0.4070  0.0870
 1005loPI   C3A14387  17.879   9.293   7.526 -0.1308  0.0393 -0.2263
 1005loPI   C4A14388  18.126   9.435   7.865  0.3724  0.1901  0.0421
 1005loPI   C5A14389  18.220   9.736   8.179 -0.0192 -0.0352  0.0957
 1005loPI   C6A14390  18.523   9.916   8.436 -0.1951  0.1540  0.1895
 1005loPI   C1B14391  17.960   9.592   6.646 -0.2525  0.2899 -0.1310
 1005loPI   C2B14392  17.884   9.577   7.055  0.0307 -0.0292  0.0245
 1005loPI   C3B14393  18.056   9.750   7.390 -0.0960 -0.1984  0.1287
 1005loPI   C4B14394  18.424   9.767   7.669  0.1325  0.0201  0.0378
 1006loPI    C114395   9.117  15.730   6.299 -0.0313 -0.2242 -0.0134
 1006loPI    C214396   8.970  15.407   6.484  0.0372 -0.3508 -0.1774
 1006loPI    C314397   8.853  15.495   6.112 -0.2637  0.0233 -0.0012
 1006loPI   PO414398   9.113  15.879   6.519  0.1395  0.1747 -0.1217
 1006loPI   GL114399   8.990  15.747   6.856 -0.3479  0.2556  0.2940
 1006loPI   GL214400   8.635  15.724   6.920 -0.0385 -0.3024  0.0537
 1006loPI   C1A14401   8.963  15.810   7.326  0.1743 -0.0438 -0.3330
 1006loPI   C2A14402   8.996  15.957   7.794  0.0024  0.0022 -0.0892
 1006loPI   C3A14403   9.282  15.993   8.153 -0.0951 -0.3477  0.0462
 1006loPI   C4A14404   9.439  15.580   8.279 -0.0200  0.0601 -0.0081
 1006loPI   C5A14405   9.777  15.271   8.445  0.1684 -0.0306 -0.1821
 1006loPI   C6A14406   9.839  14.861   8.737  0.1359  0.2759  0.0295
 1006loPI   C1B14407   8.532  15.572   7.354 -0.0235 -0.0252  0.0235
 1006loPI   C2B14408   8.684  15.601   7.689  0.2584  0.2398  0.0976
 1006loPI   C3B14409   8.799  15.618   8.117  0.0082  0.0924 -0.0549
 1006loPI   C4B14410   8.681  15.670   8.546  0.1426 -0.3731  0.3337
 1007loPI    C114411  15.047  16.462   5.824 -0.0007  0.1136 -0.0573
 1007loPI    C214412  15.153  16.480   5.439  0.1732  0.1385 -0.0089
 1007loPI    C314413  15.410  16.340   5.711  0.0751  0.1835  0.1078
 1007loPI   PO414414  14.879  16.225   5.842 -0.0605 -0.1269  0.0776
 1007loPI   GL114415  14.941  15.801   6.240 -0.2692  0.0414 -0.0922
 1007loPI   GL214416  14.985  16.119   6.314  0.0477 -0.1591  0.0767
 1007loPI   C1A14417  15.028  15.767   6.634  0.0479  0.0407 -0.2488
 1007loPI   C2A14418  15.006  15.724   7.102 -0.1964 -0.0933 -0.2973
 1007loPI   C3A14419  15.010  15.707   7.572 -0.1887 -0.2102  0.1040
 1007loPI   C4A14420  14.983  15.843   8.025 -0.0814  0.3436  0.1727
 1007loPI   C5A14421  15.005  16.286   8.195  0.0181 -0.3086  0.0169
 1007loPI   C6A14422  14.951  16.716   8.215  0.2308  0.0643 -0.0115
 1007loPI   C1B14423  15.210  16.261   6.679  0.0056  0.2835  0.2681
 1007loPI   C2B14424  15.154  16.235   7.116 -0.0458 -0.0304  0.0489
 1007loPI   C3B14425  15.140  16.151   7.596  0.4307  0.1316  0.0928
 1007loPI   C4B14426  15.388  16.213   7.859  0.0169 -0.1008 -0.0690
 1008loPI    C114427  11.446   9.049   5.618 -0.0060 -0.0106 -0.1448
 1008loPI    C214428  11.699   8.740   5.589  0.2212  0.1623 -0.0304
 1008loPI    C314429  11.564   8.920   5.258  0.0993 -0.0486 -0.0970
 1008loPI   PO414430  11.553   9.196   5.760  0.2747 -0.0760 -0.0457
 1008loPI   GL114431  11.295   9.371   6.084  0.1698 -0.1222  0.0469
 1008loPI   GL214432  11.116   9.145   6.206  0.2079 -0.3348  0.1491
 1008loPI   C1A14433  11.574   9.459   6.463  0.1942 -0.4332  0.0900
 1008loPI   C2A14434  11.629   9.463   6.966 -0.0703  0.0030  0.0260
 1008loPI   C3A14435  11.879   9.723   7.214  0.1100 -0.1482  0.2636
 1008loPI   C4A14436  11.792   9.895   7.658  0.1930 -0.1731 -0.0327
 1008loPI   C5A14437  11.761   9.813   8.028 -0.0627 -0.1269  0.0038
 1008loPI   C6A14438  11.491   9.672   8.320  0.3330  0.1015  0.1863
 1008loPI   C1B14439  11.169   9.127   6.580  0.0482  0.2370 -0.4051
 1008loPI   C2B14440  11.072   9.235   7.032  0.0152  0.5603  0.0976
 1008loPI   C3B14441  10.952   9.233   7.456  0.0046  0.0721 -0.0190
 1008loPI   C4B14442  10.863   8.988   7.831 -0.0226 -0.0115  0.0908
 1009loPI    C114443  17.473  17.391   6.120  0.1274  0.0108 -0.0743
 1009loPI    C214444  17.407  17.350   5.728  0.1560 -0.2616 -0.0528
 1009loPI    C314445  17.766  17.469   5.858  0.1030 -0.0297 -0.1139
 1009loPI   PO414446  17.201  17.528   6.236  0.0425  0.1747 -0.0738
 1009loPI   GL114447  16.843  17.419   6.295  0.1245 -0.3152  0.1837
 1009loPI   GL214448  16.586  17.661   6.454 -0.0435 -0.2644 -0.0269
 1009loPI   C1A14449  16.751  17.195   6.597 -0.0373  0.0720  0.1476
 1009loPI   C2A14450  16.780  17.034   6.987  0.3332  0.1983 -0.0951
 1009loPI   C3A14451  16.710  16.936   7.359 -0.0148 -0.0927 -0.0920
 1009loPI   C4A14452  16.981  16.802   7.668  0.0719  0.1045  0.0394
 1009loPI   C5A14453  17.198  16.664   8.013  0.1294  0.1102  0.0886
 1009loPI   C6A14454  17.237  16.463   8.447 -0.2585 -0.1972 -0.0663
 1009loPI   C1B14455  16.685  17.549   6.894  0.3717  0.0510  0.2812
 1009loPI   C2B14456  16.736  17.398   7.313  0.2930 -0.2172  0.0093
 1009loPI   C3B14457  16.854  17.407   7.773  0.1101 -0.4058 -0.0611
 1009loPI   C4B14458  16.913  17.474   8.254  0.0120  0.0282 -0.2142
 1010loPI    C114459   7.004   7.411   5.489  0.1708  0.2761  0.0933
 1010loPI    C214460   7.157   7.609   5.177  0.2439 -0.0533 -0.0846
 1010loPI    C314461   6.931   7.285   5.117  0.0519  0.0238  0.1998
 1010loPI   PO414462   6.864   7.561   5.686  0.2028 -0.2868  0.2376
 1010loPI   GL114463   6.692   7.434   6.012  0.0119  0.0466 -0.0399
 1010loPI   GL214464   6.790   7.073   5.853 -0.2724 -0.1822 -0.0785
 1010loPI   C1A14465   6.389   7.416   6.307 -0.1487 -0.4312 -0.0229
 1010loPI   C2A14466   6.474   7.518   6.596  0.0140  0.1307 -0.0678
 1010loPI   C3A14467   6.418   7.473   7.030 -0.1942 -0.3862 -0.0448
 1010loPI   C4A14468   6.344   7.353   7.408 -0.0659  0.4076 -0.0825
 1010loPI   C5A14469   6.345   7.405   7.842  0.0445  0.1773  0.0517
 1010loPI   C6A14470   6.377   7.057   8.213  0.4420 -0.0510  0.0498
 1010loPI   C1B14471   6.642   6.973   6.228 -0.2046 -0.0102 -0.1589
 1010loPI   C2B14472   6.546   7.012   6.718  0.1056 -0.0572  0.1409
 1010loPI   C3B14473   6.440   6.916   7.172  0.1766  0.3948 -0.1347
 1010loPI   C4B14474   6.489   6.866   7.682 -0.1211 -0.2202  0.2627
 1011loPI    C114475  13.833   8.728   5.752  0.0680 -0.1510 -0.0273
 1011loPI    C214476  13.524   8.484   5.681  0.0289 -0.1049 -0.0161
 1011loPI    C314477  13.880   8.332   5.780 -0.0180 -0.1543  0.0784
 1011loPI   PO414478  13.721   8.882   5.907  0.1768  0.0343 -0.0520
 1011loPI   GL114479  13.957   9.036   6.277 -0.1222  0.3186 -0.1949
 1011loPI   GL214480  13.613   9.015   6.394  0.1073  0.3182 -0.0984
 1011loPI   C1A14481  14.026   8.761   6.578  0.0785 -0.2642 -0.1343
 1011loPI   C2A14482  14.051   8.875   7.005 -0.3067 -0.3255  0.0124
 1011loPI   C3A14483  14.104   8.878   7.458  0.2017 -0.0491  0.2021
 1011loPI   C4A14484  14.040   8.687   7.964 -0.0713  0.2763  0.3132
 1011loPI   C5A14485  13.876   8.503   8.291  0.0293 -0.4405 -0.1198
 1011loPI   C6A14486  14.022   8.378   8.708  0.0098  0.1247 -0.1575
 1011loPI   C1B14487  13.602   9.017   6.867  0.0307  0.0726  0.2546
 1011loPI   C2B14488  13.505   8.970   7.302 -0.0078  0.2248 -0.2439
 1011loPI   C3B14489  13.483   8.814   7.702  0.5023  0.2139  0.0122
 1011loPI   C4B14490  13.656   8.999   8.087  0.2004  0.0949 -0.1945
 1012loPI    C114491  14.164   9.107   5.819  0.1617  0.0738  0.0207
 1012loPI    C214492  14.337   9.270   5.497  0.0469 -0.0231 -0.0910
 1012loPI    C314493  13.939   9.234   5.514  0.0549 -0.0522  0.0462
 1012loPI   PO414494  14.295   8.898   5.893  0.1311  0.2004  0.2803
 1012loPI   GL114495  14.530   8.932   6.220 -0.0922 -0.3600  0.1428
 1012loPI   GL214496  14.395   9.286   6.264 -0.0412 -0.1689 -0.2895
 1012loPI   C1A14497  14.613   8.789   6.597 -0.0479  0.0950  0.1661
 1012loPI   C2A14498  14.594   8.888   7.006 -0.0239  0.0270 -0.0644
 1012loPI   C3A14499  14.599   8.970   7.449 -0.0595  0.3200 -0.1238
 1012loPI   C4A14500  14.634   8.749   7.806  0.2121 -0.2222  0.1390
 1012loPI   C5A14501  14.735   8.554   8.185  0.1056  0.4636  0.0494
 1012loPI   C6A14502  14.671   8.366   8.582 -0.1071  0.2981  0.1474
 1012loPI   C1B14503  14.290   9.236   6.675 -0.1010 -0.1088 -0.0717
 1012loPI   C2B14504  14.329   9.348   7.156 -0.3569  0.0598 -0.1320
 1012loPI   C3B14505  14.509   9.433   7.553 -0.0171 -0.0736 -0.1695
 1012loPI   C4B14506  14.711   9.579   7.844  0.1760  0.1227  0.3099
 1013POPI    C114507   3.764   7.218   5.610 -0.3386  0.1221 -0.1906
 1013POPI    C214508   3.946   6.891   5.471  0.0301  0.1295  0.2526
 1013POPI    C314509   3.831   7.178   5.218  0.1153 -0.1340 -0.0931
 1013POPI   PO414510   3.589   7.121   5.831  0.0386  0.1164  0.1606
 1013POPI   GL114511   3.499   7.416   6.197  0.0131  0.2284 -0.2389
 1013POPI   GL214512   3.251   7.271   6.287 -0.1858  0.1654 -0.2870
 1013POPI   C1A14513   3.403   7.676   6.596 -0.0189  0.0764  0.1159
 1013POPI   D2A14514   3.523   7.586   7.039  0.0324  0.2332  0.0323
 1013POPI   C3A14515   3.583   7.132   7.124 -0.1601 -0.0981  0.0164
 1013POPI   C4A14516   3.943   6.943   7.143  0.0972 -0.2031  0.2446
 1013POPI   C1B14517   3.343   7.102   6.655  0.1653  0.1459  0.0960
 1013POPI   C2B14518   3.193   6.884   7.013  0.0949 -0.1071  0.1166
 1013POPI   C3B14519   3.129   6.926   7.523 -0.0360  0.0990  0.1408
 1013POPI   C4B14520   3.230   7.183   7.848  0.1931 -0.3240 -0.0607
 1014POPI    C114521   1.031   4.912   5.566  0.0701  0.0212  0.2043
 1014POPI    C214522   1.363   4.700   5.639  0.2803  0.2814  0.0245
 1014POPI    C314523   1.258   4.785   5.262 -0.2614 -0.2151  0.0495
 1014POPI   PO414524   0.865   4.706   5.931  0.0518  0.0527  0.2007
 1014POPI   GL114525   0.922   4.693   6.456 -0.0055 -0.0438  0.1023
 1014POPI   GL214526   0.992   5.013   6.527 -0.0960  0.2659 -0.0790
 1014POPI   C1A14527   0.841   4.770   6.935  0.3477 -0.2654  0.0408
 1014POPI   D2A14528   0.638   4.817   7.300 -0.2468  0.2535 -0.2501
 1014POPI   C3A14529   0.621   4.655   7.707  0.3532  0.3428 -0.0068
 1014POPI   C4A14530   0.721   4.850   8.150 -0.2739  0.0190  0.2322
 1014POPI   C1B14531   0.653   5.211   6.689 -0.0242  0.3422 -0.1973
 1014POPI   C2B14532   0.525   5.339   7.081 -0.0690 -0.2369  0.1647
 1014POPI   C3B14533   0.391   5.438   7.468  0.1982 -0.2385 -0.3137
 1014POPI   C4B14534   0.351   5.180   7.836 -0.2462 -0.4056 -0.1425
 1015POPI    C114535  17.122   0.758   6.143 -0.2534 -0.1001 -0.2334
 1015POPI    C214536  17.353   1.072   6.055 -0.0996 -0.0910  0.1824
 1015POPI    C314537  17.520   0.721   6.147 -0.2466 -0.0879  0.4743
 1015POPI   PO414538  16.952   0.817   6.302 -0.4017 -0.4545 -0.1490
 1015POPI   GL114539  16.833   0.648   6.633  0.1644 -0.4856 -0.1006
 1015POPI   GL214540  16.568   0.361   6.767  0.0325 -0.0507 -0.2556
 1015POPI   C1A14541  16.559   0.824   7.010  0.3097  0.0099  0.0029
 1015POPI   D2A14542  16.515   0.716   7.474 -0.3390 -0.1236 -0.0887
 1015POPI   C3A14543  16.260   0.408   7.555  0.0970  0.0070 -0.1514
 1015POPI   C4A14544  16.120   0.186   7.996 -0.2301  0.0472  0.1163
 1015POPI   C1B14545  16.761   0.313   7.101  0.0869  0.1498 -0.2761
 1015POPI   C2B14546  16.736   0.193   7.494 -0.3671  0.0526 -0.0279
 1015POPI   C3B14547  16.648   0.169   7.913  0.3428 -0.0355 -0.0885
 1015POPI   C4B14548  16.485   0.032   8.313 -0.0182 -0.0760 -0.0418
 1016POPI    C114549  15.291   7.685   6.077 -0.0466  0.1101  0.0397
 1016POPI    C214550  15.286   7.390   5.807  0.2645  0.0133  0.1359
 1016POPI    C314551  15.206   7.765   5.694 -0.0711 -0.0945  0.0013
 1016POPI   PO414552  15.454   7.674   6.284  0.4699 -0.2522  0.1278
 1016POPI   GL114553  15.471   7.867   6.661  0.0535 -0.0671 -0.1260
 1016POPI   GL214554  15.798   7.881   6.836  0.2257  0.1100 -0.0923
 1016POPI   C1A14555  15.208   7.919   6.939  0.0637  0.1707 -0.2333
 1016POPI   D2A14556  14.943   7.719   7.054  0.1010 -0.0496 -0.0586
 1016POPI   C3A14557  14.964   7.541   7.475 -0.0475  0.4455  0.3700
 1016POPI   C4A14558  14.749   7.476   7.875  0.0129 -0.1850  0.2199
 1016POPI   C1B14559  15.553   7.915   7.296 -0.1162 -0.3275 -0.1028
 1016POPI   C2B14560  15.701   7.853   7.743 -0.0738  0.1314  0.3169
 1016POPI   C3B14561  15.593   7.771   8.162  0.1813  0.2755  0.1032
 1016POPI   C4B14562  15.378   7.497   8.494 -0.0662  0.1715 -0.2157
 1017POPI    C114563  11.851   6.454   5.696 -0.0182  0.0207  0.0948
 1017POPI    C214564  11.713   6.151   5.917  0.1612 -0.0910  0.0554
 1017POPI    C314565  11.678   6.140   5.519  0.0926 -0.0208  0.0593
 1017POPI   PO414566  12.022   6.584   5.867 -0.0669 -0.0608  0.0561
 1017POPI   GL114567  12.015   6.465   6.294  0.2157 -0.3057  0.0517
 1017POPI   GL214568  12.054   6.750   6.422 -0.0231 -0.0634 -0.3019
 1017POPI   C1A14569  11.878   6.403   6.777 -0.0036  0.2886 -0.0927
 1017POPI   D2A14570  11.475   6.259   7.020 -0.0517 -0.0696  0.0757
 1017POPI   C3A14571  11.347   5.991   7.461 -0.1715 -0.5296  0.0088
 1017POPI   C4A14572  11.405   5.678   7.776  0.0532  0.0255  0.1146
 1017POPI   C1B14573  11.918   7.013   6.823 -0.1390 -0.2472  0.1374
 1017POPI   C2B14574  11.847   7.110   7.202  0.1521  0.0391  0.0309
 1017POPI   C3B14575  11.628   7.107   7.641  0.2109 -0.5090  0.0577
 1017POPI   C4B14576  11.519   6.917   8.125 -0.0448 -0.0705 -0.0665
 1018POPI    C114577   6.669   9.052   5.443  0.1185  0.0476  0.2543
 1018POPI    C214578   6.836   9.403   5.350  0.2846 -0.1471 -0.2139
 1018POPI    C314579   6.649   9.189   5.068 -0.1698 -0.2530  0.1538
 1018POPI   PO414580   6.512   9.108   5.646  0.1574  0.1502  0.2075
 1018POPI   GL114581   6.538   9.118   6.021  0.0578  0.3133  0.0370
 1018POPI   GL214582   6.368   9.355   6.145  0.1032  0.0548  0.1140
 1018POPI   C1A14583   6.414   8.919   6.463  0.1755 -0.0791 -0.1721
 1018POPI   D2A14584   6.263   8.814   6.862 -0.2059 -0.1405 -0.1699
 1018POPI   C3A14585   6.277   8.834   7.260 -0.0368 -0.3335 -0.0604
 1018POPI   C4A14586   6.058   8.886   7.599  0.2988 -0.0051  0.1174
 1018POPI   C1B14587   6.357   9.465   6.614 -0.3184  0.0136 -0.2134
 1018POPI   C2B14588   6.296   9.341   7.044 -0.1213  0.2447 -0.2428
 1018POPI   C3B14589   6.356   9.360   7.467 -0.0267 -0.2043  0.2330
 1018POPI   C4B14590   6.594   9.282   7.804 -0.0880  0.0586  0.0382
 1019POPI    C114591   1.843  16.956   5.831 -0.1411 -0.2321 -0.0009
 1019POPI    C214592   1.648  17.287   5.717 -0.0393 -0.1509  0.0590
 1019POPI    C314593   2.015  17.211   5.575  0.0069 -0.1510  0.1774
 1019POPI   PO414594   1.720  16.890   6.057  0.1114 -0.0619 -0.3906
 1019POPI   GL114595   1.733  16.844   6.605  0.1197 -0.0274  0.0502
 1019POPI   GL214596   1.685  16.499   6.360  0.1168 -0.0325  0.2297
 1019POPI   C1A14597   1.726  17.005   7.000 -0.0198  0.1784 -0.1329
 1019POPI   D2A14598   1.705  17.167   7.460  0.0541 -0.0678  0.1168
 1019POPI   C3A14599   1.768  17.112   7.871 -0.2983  0.0200  0.0106
 1019POPI   C4A14600   1.946  17.211   8.274 -0.1856  0.0815  0.0603
 1019POPI   C1B14601   1.762  16.418   6.801 -0.0883 -0.0668  0.0017
 1019POPI   C2B14602   1.879  16.398   7.213 -0.1505  0.1236  0.0612
 1019POPI   C3B14603   1.997  16.247   7.545 -0.1042  0.0562 -0.2118
 1019POPI   C4B14604   2.217  16.272   7.891 -0.1352 -0.3116  0.2238
 1020POPI    C114605   9.472  13.666   5.684  0.1384  0.1826 -0.0606
 1020POPI    C214606   9.126  13.744   5.498 -0.1685 -0.0039  0.4135
 1020POPI    C314607   9.351  14.045   5.634 -0.0599  0.1244 -0.0330
 1020POPI   PO414608   9.398  13.477   5.862 -0.3427  0.1905 -0.1953
 1020POPI   GL114609   9.391  13.406   6.391  0.1406  0.2539  0.0482
 1020POPI   GL214610   9.518  13.712   6.574  0.4731 -0.1742 -0.0513
 1020POPI   C1A14611   9.265  13.299   6.760  0.1370 -0.3329 -0.1660
 1020POPI   D2A14612   9.282  13.246   7.199 -0.0578 -0.3077 -0.1657
 1020POPI   C3A14613   9.372  13.199   7.633  0.1643 -0.3241 -0.2300
 1020POPI   C4A14614   9.618  13.167   8.039 -0.0847 -0.1821 -0.2946
 1020POPI   C1B14615   9.561  13.709   7.026 -0.2001  0.2221  0.0807
 1020POPI   C2B14616   9.597  13.663   7.458 -0.0754  0.1105 -0.1456
 1020POPI   C3B14617   9.487  13.667   7.969 -0.0151 -0.0742 -0.0965
 1020POPI   C4B14618   9.105  13.786   8.078 -0.0033  0.0962  0.1911
 1021POPI    C114619  17.694  11.405   5.825  0.3144 -0.0771  0.0760
 1021POPI    C214620  17.875  11.514   5.486 -0.0653  0.0721 -0.0840
 1021POPI    C314621  17.550  11.282   5.473 -0.0568  0.0423  0.1822
 1021POPI   PO414622  17.889  11.299   6.001 -0.0982 -0.1484 -0.1527
 1021POPI   GL114623  18.180  11.544   6.398 -0.0203 -0.1671 -0.0962
 1021POPI   GL214624  18.448  11.255   6.551 -0.3240  0.0234  0.2334
 1021POPI   C1A14625  18.203  11.745   6.809  0.1133 -0.1439  0.1726
 1021POPI   D2A14626  18.351  11.631   7.226 -0.1113 -0.0913 -0.1138
 1021POPI   C3A14627  18.053  11.545   7.531 -0.1980  0.0630 -0.0747
 1021POPI   C4A14628  17.647  11.618   7.581  0.1451 -0.1119  0.2222
 1021POPI   C1B14629  18.226  11.243   6.901  0.0641 -0.1781  0.0103
 1021POPI   C2B14630  18.326  11.137   7.318 -0.3188 -0.1793  0.0005
 1021POPI   C3B14631  18.114  11.038   7.641  0.0430  0.1634 -0.2029
 1021POPI   C4B14632  17.965  10.919   8.020  0.0791 -0.0768 -0.2207
 1022POPI    C114633   9.893  14.016   5.730 -0.1330 -0.1272  0.0583
 1022POPI    C214634   9.998  14.245   5.420 -0.1989  0.1262  0.2201
 1022POPI    C314635   9.790  13.909   5.358 -0.1367  0.1291 -0.0164
 1022POPI   PO414636   9.770  14.202   5.938 -0.1260  0.1682 -0.0728
 1022POPI   GL114637   9.714  14.139   6.403 -0.0013  0.0563  0.0504
 1022POPI   GL214638   9.946  13.944   6.510  0.1142 -0.0279 -0.2090
 1022POPI   C1A14639   9.841  14.447   6.744 -0.1317  0.2215 -0.0815
 1022POPI   D2A14640  10.072  14.413   7.147  0.0087  0.1876  0.0455
 1022POPI   C3A14641  10.194  14.372   7.535  0.0860 -0.1819 -0.0720
 1022POPI   C4A14642  10.247  14.244   7.928  0.1150  0.0435 -0.0657
 1022POPI   C1B14643   9.944  13.974   6.918  0.0272 -0.0432 -0.0765
 1022POPI   C2B14644   9.973  13.966   7.383  0.2801  0.1466 -0.1324
 1022POPI   C3B14645   9.753  14.050   7.806 -0.1405 -0.1590 -0.2815
 1022POPI   C4B14646   9.825  14.102   8.248  0.1522 -0.1337 -0.0293
 1023POPI    C114647  14.382   9.810   5.360 -0.1155 -0.1126 -0.1032
 1023POPI    C214648  14.239  10.102   5.127  0.0545  0.1949  0.1682
 1023POPI    C314649  14.616   9.978   5.082 -0.0396 -0.0401  0.0038
 1023POPI   PO414650  14.244   9.784   5.527  0.1076  0.0830 -0.1041
 1023POPI   GL114651  14.357   9.658   5.904  0.0382  0.2623 -0.0868
 1023POPI   GL214652  13.976   9.609   6.004  0.0411  0.0505  0.3529
 1023POPI   C1A14653  14.425   9.791   6.345 -0.1221 -0.0369 -0.0871
 1023POPI   D2A14654  14.752   9.761   6.601  0.4365 -0.0619  0.0332
 1023POPI   C3A14655  14.649   9.783   7.105  0.0802  0.0742 -0.1050
 1023POPI   C4A14656  14.762   9.847   7.397  0.0038 -0.2068  0.0582
 1023POPI   C1B14657  13.910   9.500   6.451  0.0594  0.1893 -0.3483
 1023POPI   C2B14658  13.878   9.500   6.907 -0.3225 -0.0368  0.5693
 1023POPI   C3B14659  13.834   9.380   7.345 -0.0900  0.0824  0.0012
 1023POPI   C4B14660  13.876   9.327   7.794  0.0920  0.0105  0.1983
 1024POPI    C114661   2.211   8.347   5.912  0.2727  0.0497 -0.1063
 1024POPI    C214662   2.029   8.162   5.607  0.1600 -0.0287  0.0075
 1024POPI    C314663   2.150   7.952   5.926  0.0726  0.0861  0.1172
 1024POPI   PO414664   2.394   8.436   5.847  0.1769  0.0201  0.0990
 1024POPI   GL114665   2.742   8.409   6.073 -0.0711  0.0370 -0.2103
 1024POPI   GL214666   2.547   8.115   6.200 -0.1449 -0.0661 -0.3127
 1024POPI   C1A14667   2.893   8.362   6.521 -0.3389  0.0943 -0.1665
 1024POPI   D2A14668   2.862   8.392   6.953  0.0653 -0.2305  0.2087
 1024POPI   C3A14669   2.995   8.263   7.387 -0.2215  0.2401  0.2192
 1024POPI   C4A14670   2.954   8.162   7.780 -0.0335  0.0540 -0.1612
 1024POPI   C1B14671   2.506   8.086   6.671  0.1857  0.1068  0.1452
 1024POPI   C2B14672   2.443   8.090   7.168 -0.2423 -0.2718 -0.0418
 1024POPI   C3B14673   2.453   8.140   7.600 -0.0153  0.1153 -0.0615
 1024POPI   C4B14674   2.543   8.462   7.766 -0.2894 -0.1258 -0.1689
 1025POPI    C114675  13.555   7.393   5.957  0.0964 -0.0545 -0.0616
 1025POPI    C214676  13.730   7.058   6.088  0.1957  0.0022 -0.0481
 1025POPI    C314677  13.927   7.303   5.841  0.0032 -0.1135 -0.3211
 1025POPI   PO414678  13.519   7.494   6.119 -0.4280 -0.2036  0.3018
 1025POPI   GL114679  13.170   7.570   6.440  0.0977 -0.1340  0.3072
 1025POPI   GL214680  12.914   7.576   6.209  0.3524 -0.0454 -0.0846
 1025POPI   C1A14681  13.002   7.533   6.888  0.0055 -0.4031  0.0292
 1025POPI   D2A14682  13.089   7.569   7.347 -0.0569 -0.2793 -0.0054
 1025POPI   C3A14683  12.851   7.306   7.629 -0.0932 -0.0283  0.1462
 1025POPI   C4A14684  12.442   7.350   7.745  0.1620 -0.1592 -0.0510
 1025POPI   C1B14685  12.622   7.719   6.541  0.0718 -0.0134 -0.2441
 1025POPI   C2B14686  12.567   7.724   6.994  0.0664  0.0076  0.0677
 1025POPI   C3B14687  12.635   7.738   7.417 -0.2086 -0.0841  0.0588
 1025POPI   C4B14688  12.307   7.872   7.712  0.0754  0.1095 -0.1267
 1026POPI    C114689  13.999   4.322   5.485  0.1786  0.1762 -0.0322
 1026POPI    C214690  14.359   4.148   5.479  0.1578  0.1346 -0.0764
 1026POPI    C314691  14.287   4.467   5.249  0.0917 -0.0067 -0.2533
 1026POPI   PO414692  13.983   4.354   5.718  0.0589 -0.0238  0.0834
 1026POPI   GL114693  13.891   4.582   5.995  0.4962 -0.0695 -0.0618
 1026POPI   GL214694  13.604   4.531   6.140 -0.0933  0.3125  0.3497
 1026POPI   C1A14695  13.893   4.778   6.445  0.2621  0.1494 -0.0762
 1026POPI   D2A14696  13.456   4.885   6.553  0.0487  0.1359  0.2340
 1026POPI   C3A14697  13.487   4.889   6.994  0.0387 -0.1977 -0.2539
 1026POPI   C4A14698  13.668   4.877   7.403  0.1281 -0.1992 -0.0066
 1026POPI   C1B14699  13.574   4.367   6.614  0.1913 -0.2273 -0.0935
 1026POPI   C2B14700  13.543   4.323   7.123 -0.4420  0.0816  0.3821
 1026POPI   C3B14701  13.820   4.450   7.373  0.0463  0.0693  0.1723
 1026POPI   C4B14702  13.857   4.613   7.765 -0.1316  0.0508 -0.2434
 1027POPI    C114703   6.026  15.052   6.483  0.1117 -0.0043  0.2266
 1027POPI    C214704   5.833  15.025   6.133  0.3444  0.2378  0.0756
 1027POPI    C314705   6.097  14.744   6.238  0.2888  0.1750  0.0481
 1027POPI   PO414706   5.874  15.103   6.668 -0.1817 -0.0215  0.0692
 1027POPI   GL114707   5.661  15.037   6.906 -0.0212  0.3077  0.1517
 1027POPI   GL214708   5.390  15.206   7.075  0.1446 -0.1012  0.1393
 1027POPI   C1A14709   5.822  14.981   7.285 -0.1711  0.2657 -0.1117
 1027POPI   D2A14710   5.882  15.047   7.665 -0.0578  0.1368 -0.2241
 1027POPI   C3A14711   5.781  14.862   7.940 -0.2285 -0.0448  0.1118
 1027POPI   C4A14712   5.506  14.731   8.286  0.0777  0.0403 -0.2151
 1027POPI   C1B14713   5.463  15.378   7.474 -0.1033  0.0391 -0.1835
 1027POPI   C2B14714   5.533  15.343   7.986 -0.3634 -0.1379  0.0151
 1027POPI   C3B14715   5.683  15.219   8.333  0.1964  0.4565  0.1906
 1027POPI   C4B14716   5.860  15.139   8.720  0.0300  0.0861  0.0585
 1028POPI    C114717  17.095   3.902   5.704 -0.0796  0.0368 -0.2231
 1028POPI    C214718  16.869   3.606   5.851 -0.1275  0.2016  0.0416
 1028POPI    C314719  16.997   3.591   5.472 -0.0662 -0.1940  0.0740
 1028POPI   PO414720  17.317   3.988   5.858 -0.1635 -0.1738 -0.0329
 1028POPI   GL114721  17.391   3.929   6.309 -0.1158  0.1187 -0.0424
 1028POPI   GL214722  17.209   3.685   6.190 -0.1980  0.0313  0.0953
 1028POPI   C1A14723  17.531   3.922   6.735  0.2573 -0.0793 -0.1879
 1028POPI   D2A14724  17.617   4.045   7.207 -0.2295  0.0129 -0.0839
 1028POPI   C3A14725  17.492   3.962   7.511 -0.2054  0.1357 -0.2104
 1028POPI   C4A14726  17.230   4.014   7.874  0.0541 -0.0673 -0.1935
 1028POPI   C1B14727  16.838   3.727   6.512  0.2591 -0.1239 -0.1390
 1028POPI   C2B14728  16.725   3.652   6.910 -0.0136 -0.1580  0.3100
 1028POPI   C3B14729  16.656   3.531   7.356  0.0681 -0.2240  0.0361
 1028POPI   C4B14730  16.867   3.658   7.758 -0.0121 -0.1473 -0.0727
 1029POPI    C114731   4.531  13.665   6.073 -0.0692 -0.1519  0.0242
 1029POPI    C214732   4.708  13.306   6.072  0.1442 -0.0489 -0.1060
 1029POPI    C314733   4.630  13.492   5.726  0.0481  0.0372 -0.0387
 1029POPI   PO414734   4.651  13.724   6.352  0.2764 -0.3085 -0.2069
 1029POPI   GL114735   4.672  13.824   6.777 -0.0813  0.0473  0.1705
 1029POPI   GL214736   4.757  13.509   6.860 -0.1824  0.1090  0.2861
 1029POPI   C1A14737   4.589  14.123   7.051 -0.0136 -0.1930  0.0966
 1029POPI   D2A14738   4.552  14.322   7.456  0.0541 -0.0869 -0.2104
 1029POPI   C3A14739   4.768  14.235   7.802  0.1100  0.0440  0.1026
 1029POPI   C4A14740   4.626  14.269   8.230 -0.1204  0.1023  0.2448
 1029POPI   C1B14741   4.569  13.653   7.283 -0.1400 -0.0355 -0.1157
 1029POPI   C2B14742   4.695  13.505   7.683 -0.0852 -0.1058 -0.1239
 1029POPI   C3B14743   4.711  13.713   8.087 -0.2176  0.0155  0.0931
 1029POPI   C4B14744   4.858  13.630   8.445 -0.1359 -0.0152 -0.0735
 1030POPI    C114745   7.247   5.738   5.610  0.1702 -0.1713  0.0559
 1030POPI    C214746   7.383   6.112   5.565 -0.3322  0.0045 -0.0603
 1030POPI    C314747   7.531   5.817   5.339  0.0529  0.1321  0.0173
 1030POPI   PO414748   7.299   5.664   5.887 -0.1253 -0.3946  0.1704
 1030POPI   GL114749   7.341   5.680   6.288 -0.1877 -0.0925 -0.2577
 1030POPI   GL214750   7.661   5.749   6.201  0.2061  0.0322 -0.0634
 1030POPI   C1A14751   7.408   5.904   6.631  0.0577  0.0235  0.1593
 1030POPI   D2A14752   7.218   5.713   7.002  0.2658 -0.0120 -0.0407
 1030POPI   C3A14753   7.179   5.740   7.376 -0.0696 -0.1574 -0.6701
 1030POPI   C4A14754   7.063   5.699   7.809  0.0639  0.2286 -0.3503
 1030POPI   C1B14755   7.827   5.626   6.617 -0.0811 -0.1145  0.0608
 1030POPI   C2B14756   7.735   5.635   6.959 -0.0289 -0.0285  0.2772
 1030POPI   C3B14757   7.647   5.643   7.287 -0.5179 -0.3520  0.0125
 1030POPI   C4B14758   7.600   5.467   7.733 -0.2309  0.0787 -0.0911
 1031POPI    C114759  12.654  10.006   5.634  0.0126  0.2322 -0.0881
 1031POPI    C214760  12.284  10.150   5.588 -0.1996 -0.2804 -0.0461
 1031POPI    C314761  12.423   9.872   5.336  0.1616 -0.0896 -0.0628
 1031POPI   PO414762  12.738   9.946   5.864 -0.0606  0.1677  0.0074
 1031POPI   GL114763  12.749   9.819   6.296  0.0025  0.0849  0.0072
 1031POPI   GL214764  12.468   9.642   6.303 -0.0704 -0.0612  0.0795
 1031POPI   C1A14765  12.530   9.961   6.683 -0.1807 -0.1094 -0.0549
 1031POPI   D2A14766  12.518  10.173   7.080  0.0410 -0.0477 -0.0565
 1031POPI   C3A14767  12.230  10.044   7.403  0.2377 -0.1520 -0.1060
 1031POPI   C4A14768  12.239  10.102   7.835  0.1828 -0.1408 -0.0919
 1031POPI   C1B14769  12.507   9.379   6.609  0.2777 -0.3450 -0.1480
 1031POPI   C2B14770  12.518   9.215   6.992 -0.2097 -0.0275 -0.1511
 1031POPI   C3B14771  12.505   9.182   7.411 -0.2490  0.2573 -0.3779
 1031POPI   C4B14772  12.171   9.175   7.762  0.1995  0.0413  0.1690
 1032POPI    C114773   2.929  12.046   5.575  0.2509 -0.1559 -0.1234
 1032POPI    C214774   2.747  12.293   5.318  0.0609 -0.0724  0.0886
 1032POPI    C314775   3.030  12.433   5.564  0.3448 -0.1816 -0.1712
 1032POPI   PO414776   2.776  11.762   5.662 -0.0395  0.1175 -0.1334
 1032POPI   GL114777   2.674  11.699   6.191 -0.1847  0.2293  0.0962
 1032POPI   GL214778   2.750  11.852   6.426  0.0218 -0.1185  0.1420
 1032POPI   C1A14779   2.814  11.378   6.549  0.2493  0.3101 -0.0384
 1032POPI   D2A14780   3.058  11.393   6.971 -0.2163  0.1730  0.0448
 1032POPI   C3A14781   2.953  11.535   7.370 -0.1440  0.1084  0.3620
 1032POPI   C4A14782   2.912  11.702   7.708 -0.2587 -0.1706 -0.0921
 1032POPI   C1B14783   3.000  11.838   6.738 -0.0463 -0.1781  0.0758
 1032POPI   C2B14784   3.075  11.964   7.149 -0.4376  0.0689  0.0583
 1032POPI   C3B14785   2.944  12.180   7.461  0.0142  0.0992  0.1613
 1032POPI   C4B14786   2.829  12.501   7.633  0.1621 -0.2001  0.0097
 1033POPI    C114787  17.694  13.230   5.715 -0.0546  0.0053  0.2130
 1033POPI    C214788  17.950  13.444   5.495 -0.0226 -0.2775 -0.0316
 1033POPI    C314789  17.561  13.536   5.494  0.0348 -0.0230  0.1189
 1033POPI   PO414790  17.873  13.231   5.942  0.0795  0.0051 -0.1079
 1033POPI   GL114791  17.907  12.930   6.317  0.1597  0.3356  0.1128
 1033POPI   GL214792  17.885  12.615   6.225 -0.0713 -0.2863  0.0841
 1033POPI   C1A14793  17.744  13.071   6.672  0.0778 -0.2754  0.1750
 1033POPI   D2A14794  17.678  13.202   7.087  0.1452 -0.1864 -0.0216
 1033POPI   C3A14795  17.888  12.958   7.367 -0.1042 -0.0573 -0.2470
 1033POPI   C4A14796  17.777  12.788   7.892 -0.0558 -0.0160 -0.0269
 1033POPI   C1B14797  17.851  12.598   6.705 -0.0718 -0.1866  0.2529
 1033POPI   C2B14798  17.734  12.623   7.027 -0.1318  0.1666 -0.1889
 1033POPI   C3B14799  17.745  12.468   7.486 -0.1795  0.1891  0.0237
 1033POPI   C4B14800  17.950  12.326   7.886 -0.1124 -0.2228  0.1893
 1034POPI    C114801   8.356   2.665   6.077 -0.1195  0.2251  0.3221
 1034POPI    C214802   8.681   2.833   5.915 -0.0496 -0.0679  0.1493
 1034POPI    C314803   8.318   2.976   5.829  0.0177  0.1014  0.1423
 1034POPI   PO414804   8.423   2.714   6.351 -0.1958 -0.0346  0.1641
 1034POPI   GL114805   8.258   2.574   6.741  0.1995  0.1548 -0.0245
 1034POPI   GL214806   8.435   2.364   6.979  0.1032 -0.1808 -0.0494
 1034POPI   C1A14807   8.233   2.754   7.163 -0.0129  0.0237 -0.0025
 1034POPI   D2A14808   8.213   2.910   7.517  0.0144  0.0870 -0.0028
 1034POPI   C3A14809   7.998   2.622   7.808  0.2843 -0.2231  0.1093
 1034POPI   C4A14810   7.837   2.556   8.155  0.0880 -0.1876  0.3012
 1034POPI   C1B14811   8.470   2.385   7.377 -0.0066  0.1044 -0.0963
 1034POPI   C2B14812   8.467   2.478   7.739 -0.0594  0.0158  0.0565
 1034POPI   C3B14813   8.574   2.861   7.959  0.1072  0.3299 -0.0454
 1034POPI   C4B14814   8.686   3.059   8.344  0.1063 -0.0993 -0.0606
 1035POPI    C114815  16.511  13.909   5.763 -0.3876  0.1317  0.0556
 1035POPI    C214816  16.540  13.544   5.601 -0.0399  0.1701  0.0240
 1035POPI    C314817  16.589  13.869   5.373  0.1081  0.2294  0.1391
 1035POPI   PO414818  16.755  13.881   5.983  0.0402 -0.1833  0.2489
 1035POPI   GL114819  17.067  13.803   6.364  0.0888 -0.0759  0.0423
 1035POPI   GL214820  16.713  13.990   6.481 -0.2340  0.0425  0.0453
 1035POPI   C1A14821  16.810  13.518   6.723 -0.0559  0.0616  0.3230
 1035POPI   D2A14822  16.310  13.446   6.866 -0.0393  0.1516  0.0247
 1035POPI   C3A14823  16.067  13.270   7.243  0.1851 -0.0216 -0.2680
 1035POPI   C4A14824  15.932  13.492   7.615 -0.1973  0.0346 -0.1800
 1035POPI   C1B14825  16.445  13.878   6.770  0.0304  0.1055 -0.0188
 1035POPI   C2B14826  16.374  13.983   7.196 -0.1117  0.2402 -0.0069
 1035POPI   C3B14827  16.555  13.946   7.618  0.1830  0.0695 -0.1010
 1035POPI   C4B14828  16.778  14.046   7.970 -0.0115  0.0179  0.0801
 1036POPI    C114829  11.756  11.761   5.678 -0.2690 -0.0497  0.3657
 1036POPI    C214830  11.851  11.453   5.441 -0.0558  0.0920  0.2640
 1036POPI    C314831  11.552  11.698   5.340  0.1334  0.2423  0.0588
 1036POPI   PO414832  11.848  11.561   5.895 -0.1857 -0.0612 -0.0819
 1036POPI   GL114833  11.772  11.434   6.249 -0.1413  0.2081 -0.0909
 1036POPI   GL214834  11.897  11.189   6.310 -0.0660 -0.3503  0.1380
 1036POPI   C1A14835  11.697  11.704   6.566  0.0377 -0.0753  0.2208
 1036POPI   D2A14836  11.692  11.731   6.972 -0.1943  0.0026  0.0001
 1036POPI   C3A14837  11.872  11.621   7.313 -0.3306 -0.1289  0.0147
 1036POPI   C4A14838  12.019  11.493   7.737 -0.0632  0.0230  0.0890
 1036POPI   C1B14839  11.861  11.113   6.698  0.1009  0.1822 -0.0618
 1036POPI   C2B14840  11.988  10.835   6.944 -0.0452  0.0675  0.2712
 1036POPI   C3B14841  12.283  10.708   7.287 -0.2448 -0.0419  0.0863
 1036POPI   C4B14842  12.535  10.478   7.579 -0.0279 -0.0907 -0.2492
 1037POPI    C114843   4.999  10.870   5.606  0.1223  0.1699  0.0722
 1037POPI    C214844   5.224  10.991   5.298  0.1699  0.1521  0.0999
 1037POPI    C314845   4.831  10.934   5.248  0.2519 -0.3038 -0.0814
 1037POPI   PO414846   5.105  10.946   5.824 -0.1388  0.2865  0.1435
 1037POPI   GL114847   5.193  10.849   6.281  0.2162 -0.0490  0.0491
 1037POPI   GL214848   4.966  10.798   6.438  0.1899 -0.0865 -0.1559
 1037POPI   C1A14849   5.346  11.161   6.631 -0.0843 -0.0938 -0.1762
 1037POPI   D2A14850   5.359  10.997   6.972  0.3424 -0.0099  0.0331
 1037POPI   C3A14851   5.410  10.833   7.414 -0.0064  0.2067  0.1752
 1037POPI   C4A14852   5.423  10.590   7.699 -0.1519 -0.0833  0.0442
 1037POPI   C1B14853   4.905  10.894   6.752 -0.1881 -0.2529  0.1170
 1037POPI   C2B14854   4.754  10.926   7.130  0.1817  0.2324 -0.0577
 1037POPI   C3B14855   4.881  10.907   7.416  0.2656  0.2578 -0.4387
 1037POPI   C4B14856   5.058  10.930   7.770  0.0514  0.1706 -0.0081
 1038POPI    C114857  11.815   4.739   5.568  0.0459 -0.2442  0.0307
 1038POPI    C214858  11.481   4.925   5.450  0.1470 -0.1365 -0.0885
 1038POPI    C314859  11.721   5.097   5.719  0.1740 -0.1534 -0.1017
 1038POPI   PO414860  11.764   4.469   5.716 -0.2089  0.0090  0.1771
 1038POPI   GL114861  11.867   4.285   6.184 -0.2220  0.0444  0.1027
 1038POPI   GL214862  11.558   4.384   6.290 -0.0275  0.0309 -0.1015
 1038POPI   C1A14863  12.184   4.273   6.557  0.2026 -0.1052 -0.6284
 1038POPI   D2A14864  12.289   4.396   7.031 -0.0812  0.1493  0.0260
 1038POPI   C3A14865  12.447   4.463   7.500  0.2009 -0.1217 -0.2054
 1038POPI   C4A14866  12.386   4.452   7.970  0.1642  0.2412  0.1978
 1038POPI   C1B14867  11.712   4.642   6.616 -0.1701 -0.1651  0.1577
 1038POPI   C2B14868  11.814   4.585   7.011  0.1790  0.1006  0.0052
 1038POPI   C3B14869  11.974   4.642   7.505  0.2126 -0.2609 -0.2138
 1038POPI   C4B14870  11.933   4.778   7.870  0.1626  0.2312 -0.0528
 1039POPI    C114871  17.338   3.441   5.768 -0.0759  0.0369  0.0817
 1039POPI    C214872  17.114   3.203   5.998 -0.3620  0.0340 -0.1935
 1039POPI    C314873  17.241   3.075   5.641 -0.0015  0.0734 -0.0837
 1039POPI   PO414874  17.601   3.557   5.942 -0.1611 -0.1471  0.0233
 1039POPI   GL114875  17.726   3.421   6.348  0.0269 -0.2016  0.0326
 1039POPI   GL214876  17.461   3.255   6.345  0.1831  0.2053  0.2570
 1039POPI   C1A14877  17.773   3.485   6.718  0.1144  0.1232  0.0079
 1039POPI   D2A14878  17.659   3.530   7.112 -0.1924 -0.2397  0.1646
 1039POPI   C3A14879  17.801   3.591   7.463  0.2837 -0.1505 -0.3393
 1039POPI   C4A14880  17.743   3.290   7.766  0.1963  0.1210  0.1243
 1039POPI   C1B14881  17.255   3.469   6.625  0.1108 -0.2800 -0.0957
 1039POPI   C2B14882  17.227   3.666   7.057  0.2144  0.3818  0.0358
 1039POPI   C3B14883  17.279   3.518   7.511 -0.0230 -0.2392  0.3640
 1039POPI   C4B14884  17.363   3.534   7.976 -0.1056  0.0512  0.2443
 1040POPI    C114885   6.777   8.610   5.682  0.3003  0.0148 -0.0042
 1040POPI    C214886   6.845   8.556   5.292  0.0075 -0.0189 -0.0531
 1040POPI    C314887   6.525   8.389   5.464 -0.1353  0.3950  0.0960
 1040POPI   PO414888   6.964   8.513   5.769  0.1721 -0.0035 -0.0464
 1040POPI   GL114889   6.928   8.137   5.989  0.2093  0.0570 -0.1989
 1040POPI   GL214890   6.959   7.833   6.125  0.0237 -0.2507  0.0589
 1040POPI   C1A14891   7.205   8.223   6.319  0.0724 -0.1679 -0.1034
 1040POPI   D2A14892   7.181   8.254   6.736 -0.0124  0.1324  0.1116
 1040POPI   C3A14893   7.292   8.273   7.087 -0.3365 -0.0723  0.1634
 1040POPI   C4A14894   7.071   8.091   7.475 -0.1518 -0.1288 -0.0555
 1040POPI   C1B14895   6.822   7.894   6.478  0.3026  0.2706 -0.3356
 1040POPI   C2B14896   6.737   7.851   6.997  0.1879 -0.2147  0.1056
 1040POPI   C3B14897   6.773   7.690   7.542  0.0850  0.0293 -0.0244
 1040POPI   C4B14898   6.836   7.930   8.002  0.2843 -0.1621 -0.1873
 1041POPI    C114899   2.348   1.241   6.350 -0.4265  0.2146  0.0215
 1041POPI    C214900   2.386   1.283   5.954  0.0187 -0.0140  0.0341
 1041POPI    C314901   2.250   0.939   6.106 -0.0674  0.0421  0.0844
 1041POPI   PO414902   2.481   1.410   6.417  0.1158 -0.2498  0.2276
 1041POPI   GL114903   2.690   1.573   6.724  0.0662  0.2792  0.0982
 1041POPI   GL214904   2.972   1.791   6.754  0.0021 -0.2651 -0.3150
 1041POPI   C1A14905   2.729   1.763   7.163 -0.2494 -0.0432 -0.0074
 1041POPI   D2A14906   2.735   1.678   7.557 -0.2500 -0.1029  0.2074
 1041POPI   C3A14907   3.027   1.736   7.923  0.1211  0.0977  0.1667
 1041POPI   C4A14908   3.395   1.444   8.173 -0.0801  0.1244 -0.1307
 1041POPI   C1B14909   3.193   1.917   7.142 -0.2159 -0.0901  0.0410
 1041POPI   C2B14910   3.172   2.110   7.551 -0.2058  0.0827 -0.0713
 1041POPI   C3B14911   3.163   2.222   7.955  0.0785  0.1107 -0.1912
 1041POPI   C4B14912   3.000   2.470   8.282 -0.0019  0.1449 -0.0731
 1042POPI    C114913   4.750  10.132   5.656 -0.2229 -0.1396 -0.0217
 1042POPI    C214914   4.692  10.492   5.492  0.0169 -0.0366  0.1138
 1042POPI    C314915   4.603  10.161   5.285 -0.0989  0.0977 -0.0541
 1042POPI   PO414916   4.686  10.106   5.981  0.2042  0.1614 -0.1710
 1042POPI   GL114917   4.662   9.881   6.366 -0.0573  0.1079 -0.0993
 1042POPI   GL214918   4.922   9.784   6.334 -0.1854 -0.3170  0.3235
 1042POPI   C1A14919   4.434   9.839   6.749  0.0912  0.1642  0.0581
 1042POPI   D2A14920   4.451   9.820   7.201 -0.0007 -0.2849  0.1552
 1042POPI   C3A14921   4.142   9.787   7.449  0.0184 -0.1636  0.2259
 1042POPI   C4A14922   4.151   9.800   7.791 -0.0217 -0.1018 -0.2707
 1042POPI   C1B14923   4.949   9.856   6.802  0.0061 -0.0910  0.1140
 1042POPI   C2B14924   5.054   9.893   7.281 -0.1446  0.1240  0.2436
 1042POPI   C3B14925   5.094   9.825   7.743 -0.0892 -0.0960 -0.0418
 1042POPI   C4B14926   5.120   9.951   8.189 -0.0953 -0.0522 -0.3782
 1043POPI    C114927   8.328   3.850   6.268 -0.2896 -0.0358  0.1170
 1043POPI    C214928   8.045   3.625   6.097  0.0087 -0.2164 -0.1517
 1043POPI    C314929   8.275   3.863   5.871 -0.0447  0.0667  0.0856
 1043POPI   PO414930   8.530   3.684   6.434 -0.0541 -0.3879  0.0996
 1043POPI   GL114931   8.616   3.469   6.730  0.1484 -0.3711  0.1310
 1043POPI   GL214932   8.520   3.123   6.672 -0.1097 -0.1653 -0.0755
 1043POPI   C1A14933   8.899   3.522   7.066 -0.1259 -0.0015 -0.1801
 1043POPI   D2A14934   9.282   3.648   7.072  0.0476  0.1066 -0.3830
 1043POPI   C3A14935   9.441   3.731   7.489  0.0317  0.0718 -0.0949
 1043POPI   C4A14936   9.344   3.689   7.876 -0.0038 -0.2444  0.2483
 1043POPI   C1B14937   8.645   3.041   7.058  0.0263 -0.0387  0.1824
 1043POPI   C2B14938   8.637   3.118   7.508  0.1796  0.1596 -0.2515
 1043POPI   C3B14939   8.592   3.409   7.907  0.2811  0.1635  0.1278
 1043POPI   C4B14940   8.403   3.524   8.277  0.2597 -0.2205  0.0118
 1044POPI    C114941   3.926   7.626   5.885  0.0529 -0.0511 -0.0085
 1044POPI    C214942   4.004   7.670   5.495  0.0592  0.1062  0.0098
 1044POPI    C314943   4.119   7.952   5.755  0.1588 -0.0534  0.1409
 1044POPI   PO414944   4.079   7.342   5.987 -0.2618 -0.2204  0.1938
 1044POPI   GL114945   4.102   7.202   6.301  0.0391 -0.1157 -0.1570
 1044POPI   GL214946   3.818   7.265   6.598  0.0198  0.1885 -0.2038
 1044POPI   C1A14947   4.101   6.846   6.622 -0.3484  0.0060  0.2176
 1044POPI   D2A14948   4.221   6.538   6.963 -0.0881  0.0955 -0.0274
 1044POPI   C3A14949   4.191   6.601   7.419  0.0703  0.3025 -0.1080
 1044POPI   C4A14950   4.043   6.708   7.732  0.0263 -0.0393  0.3932
 1044POPI   C1B14951   4.018   7.347   6.916 -0.0483 -0.0520 -0.2650
 1044POPI   C2B14952   3.941   7.409   7.351 -0.1178  0.0262  0.1535
 1044POPI   C3B14953   3.693   7.226   7.657  0.1518 -0.2511 -0.2415
 1044POPI   C4B14954   3.751   6.991   7.959 -0.0406  0.0833  0.2407
 1045POPI    C114955  15.971  15.625   5.875  0.1479 -0.1039 -0.0158
 1045POPI    C214956  15.960  15.468   5.507  0.1023  0.2138 -0.1536
 1045POPI    C314957  16.222  15.758   5.593  0.1160  0.1381  0.0672
 1045POPI   PO414958  15.643  15.549   5.898 -0.4238  0.0451 -0.0610
 1045POPI   GL114959  15.540  15.584   6.402  0.1857  0.1781  0.1134
 1045POPI   GL214960  15.473  15.868   6.447  0.0915 -0.1916  0.0664
 1045POPI   C1A14961  15.631  15.347   6.697  0.0104  0.1568 -0.0044
 1045POPI   D2A14962  15.897  15.199   6.894  0.0615 -0.0296 -0.3515
 1045POPI   C3A14963  15.721  15.066   7.259 -0.2485 -0.0145  0.2897
 1045POPI   C4A14964  15.546  14.934   7.597  0.1616 -0.3781 -0.4269
 1045POPI   C1B14965  15.477  15.887   6.896 -0.2091  0.1459  0.0195
 1045POPI   C2B14966  15.507  15.938   7.332 -0.1812 -0.0456  0.0612
 1045POPI   C3B14967  15.783  16.027   7.630 -0.2635  0.2783  0.0632
 1045POPI   C4B14968  16.101  15.831   7.840  0.3430 -0.1275  0.1073
 1046POPI    C114969   1.470   5.152   5.615  0.0444  0.1549  0.0553
 1046POPI    C214970   1.318   5.518   5.675  0.1264  0.2348 -0.2089
 1046POPI    C314971   1.191   5.297   5.366 -0.0789 -0.0492  0.0722
 1046POPI   PO414972   1.549   5.148   5.891  0.1189  0.1204  0.3952
 1046POPI   GL114973   1.601   5.130   6.289  0.0167 -0.0883 -0.0925
 1046POPI   GL214974   1.499   5.317   6.585 -0.1042 -0.2488 -0.1300
 1046POPI   C1A14975   1.608   4.854   6.568  0.1569  0.1154  0.0432
 1046POPI   D2A14976   1.401   4.839   6.941 -0.0680 -0.0081 -0.3383
 1046POPI   C3A14977   1.654   4.797   7.215  0.1518  0.0398 -0.1290
 1046POPI   C4A14978   1.726   4.820   7.681  0.1307  0.2967 -0.0729
 1046POPI   C1B14979   1.561   5.303   7.054  0.0339  0.2062  0.2480
 1046POPI   C2B14980   1.489   5.329   7.502 -0.0186  0.0243  0.0282
 1046POPI   C3B14981   1.211   5.473   7.843 -0.2552 -0.0715 -0.3634
 1046POPI   C4B14982   0.855   5.400   8.206 -0.0781 -0.0962  0.0716
 1047POPI    C114983   0.276  16.131   5.798  0.0673  0.1279  0.1309
 1047POPI    C214984   0.419  15.761   5.747  0.0192  0.1162  0.0793
 1047POPI    C314985   0.452  16.031   5.453  0.0114  0.1389  0.0989
 1047POPI   PO414986   0.384  16.201   6.076 -0.2522 -0.3396 -0.0321
 1047POPI   GL114987   0.472  16.099   6.542  0.1880 -0.0656 -0.0554
 1047POPI   GL214988   0.686  15.835   6.669  0.0494  0.1739 -0.2823
 1047POPI   C1A14989   0.329  16.193   6.940  0.0161 -0.0494  0.0649
 1047POPI   D2A14990   0.244  16.383   7.383 -0.0234 -0.0705 -0.0647
 1047POPI   C3A14991   0.536  16.296   7.708 -0.0574 -0.0486 -0.2447
 1047POPI   C4A14992   0.743  16.280   8.128 -0.0198  0.0808 -0.2430
 1047POPI   C1B14993   1.050  15.737   6.901  0.0700  0.0449 -0.3772
 1047POPI   C2B14994   1.168  15.738   7.371 -0.0403 -0.2257 -0.2635
 1047POPI   C3B14995   1.198  15.635   7.846  0.0914 -0.0721  0.0178
 1047POPI   C4B14996   1.184  15.503   8.322 -0.4644 -0.1282 -0.2580
 1048POPI    C114997   2.806  16.621   5.653  0.0348  0.0309 -0.0770
 1048POPI    C214998   2.668  16.485   5.303  0.1484 -0.3651  0.0264
 1048POPI    C314999   3.062  16.502   5.370  0.1279 -0.2619  0.1243
 1048POPI   PO415000   2.615  16.465   5.862  0.0253 -0.0828  0.0325
 1048POPI   GL115001   2.556  16.359   6.215  0.0935 -0.0368  0.1677
 1048POPI   GL215002   2.367  16.470   6.460  0.2557  0.2815  0.1317
 1048POPI   C1A15003   2.818  16.280   6.519 -0.1415 -0.1516 -0.0869
 1048POPI   D2A15004   2.980  16.303   6.870 -0.2305  0.2336  0.4082
 1048POPI   C3A15005   3.015  16.282   7.372  0.2075 -0.1131  0.0054
 1048POPI   C4A15006   2.747  16.302   7.844  0.3207 -0.2144 -0.0781
 1048POPI   C1B15007   2.217  16.746   6.724  0.2607  0.0851  0.0747
 1048POPI   C2B15008   2.173  16.812   7.148  0.0395 -0.1199 -0.2500
 1048POPI   C3B15009   2.083  16.810   7.601  0.0574  0.1027 -0.1662
 1048POPI   C4B15010   2.162  16.790   8.067  0.1889 -0.2813 -0.1322
 1049POPI    C115011  15.153   6.769   6.087  0.2844 -0.1110 -0.1581
 1049POPI    C215012  14.951   6.988   5.821  0.3381  0.1077 -0.0219
 1049POPI    C315013  15.071   6.619   5.726 -0.0730 -0.0049 -0.1243
 1049POPI   PO415014  14.982   6.774   6.331  0.0274  0.0407 -0.0257
 1049POPI   GL115015  14.766   6.651   6.687  0.0892 -0.1225  0.1846
 1049POPI   GL215016  14.523   6.922   6.602  0.3099 -0.0942 -0.2520
 1049POPI   C1A15017  14.666   6.852   7.056  0.1933 -0.0468  0.2892
 1049POPI   D2A15018  14.990   7.066   7.300  0.0890 -0.1794  0.0839
 1049POPI   C3A15019  15.012   7.061   7.707 -0.2195  0.0709  0.0777
 1049POPI   C4A15020  15.109   7.233   8.052  0.0530  0.0764 -0.3169
 1049POPI   C1B15021  14.181   6.925   6.917  0.0104 -0.0348 -0.0843
 1049POPI   C2B15022  14.080   6.837   7.361 -0.1386  0.1338  0.1269
 1049POPI   C3B15023  13.843   7.010   7.700  0.0497 -0.0677 -0.0391
 1049POPI   C4B15024  13.622   7.047   8.095 -0.0996 -0.4312  0.1177
 1050POPI    C115025   8.644  16.376   6.469 -0.2956  0.0602 -0.2159
 1050POPI    C215026   8.970  16.542   6.310 -0.0162 -0.2088  0.0617
 1050POPI    C315027   8.672  16.774   6.441  0.1758  0.0521  0.0466
 1050POPI   PO415028   8.780  16.219   6.718 -0.1286 -0.2722  0.1058
 1050POPI   GL115029   8.691  16.231   7.145 -0.1100  0.0295  0.1615
 1050POPI   GL215030   9.070  16.230   7.092 -0.1057  0.0724 -0.0227
 1050POPI   C1A15031   8.597  16.214   7.455  0.0542  0.1560 -0.5479
 1050POPI   D2A15032   8.524  16.138   7.791 -0.2185  0.0726  0.0593
 1050POPI   C3A15033   8.732  16.123   8.184  0.0345 -0.0792 -0.0001
 1050POPI   C4A15034   8.772  16.115   8.666  0.1395 -0.1386  0.0038
 1050POPI   C1B15035   9.088  16.335   7.490  0.1370 -0.2887 -0.1346
 1050POPI   C2B15036   8.882  16.481   7.879  0.0854 -0.0186  0.0856
 1050POPI   C3B15037   9.069  16.427   8.308  0.0496  0.1147  0.0042
 1050POPI   C4B15038   9.109  16.453   8.763  0.1204  0.1945  0.1235
 1051POPI    C115039   8.507   9.705   5.822 -0.0076 -0.0511  0.1675
 1051POPI    C215040   8.828   9.476   5.889  0.1868  0.2040  0.1197
 1051POPI    C315041   8.589   9.398   5.578  0.3302  0.1494  0.0217
 1051POPI   PO415042   8.344   9.766   6.054  0.0755  0.2935 -0.1092
 1051POPI   GL115043   8.247   9.928   6.417 -0.0091 -0.0029  0.1862
 1051POPI   GL215044   8.332  10.235   6.601  0.0823 -0.0198 -0.1485
 1051POPI   C1A15045   8.033   9.853   6.719 -0.2611  0.0516  0.0365
 1051POPI   D2A15046   7.731   9.993   7.021 -0.0473  0.0024  0.2278
 1051POPI   C3A15047   7.848  10.251   7.419 -0.1772  0.0020 -0.2427
 1051POPI   C4A15048   8.065  10.334   7.791 -0.0088  0.1275  0.1636
 1051POPI   C1B15049   8.234  10.188   7.023 -0.2384 -0.0931 -0.1669
 1051POPI   C2B15050   8.319   9.978   7.499  0.1790  0.0724 -0.0838
 1051POPI   C3B15051   8.400   9.981   7.935 -0.0523  0.0556 -0.2219
 1051POPI   C4B15052   8.626  10.196   8.310  0.1201  0.1981 -0.2310
 1052POPI    C115053   9.976   0.570   5.584 -0.2043  0.1374  0.0764
 1052POPI    C215054  10.166   0.766   5.291 -0.3529  0.1302 -0.0255
 1052POPI    C315055  10.013   0.402   5.224 -0.5174  0.1904  0.0165
 1052POPI   PO415056  10.182   0.645   5.799 -0.0664 -0.2369  0.0336
 1052POPI   GL115057  10.289   0.558   6.203  0.0377 -0.0171 -0.0468
 1052POPI   GL215058  10.304   0.978   6.228 -0.0897  0.0972 -0.1711
 1052POPI   C1A15059  10.161   0.438   6.600 -0.0510  0.1697  0.2035
 1052POPI   D2A15060  10.113   0.678   6.966  0.5052 -0.1770 -0.0665
 1052POPI   C3A15061  10.271   0.689   7.374  0.1316 -0.0862 -0.1195
 1052POPI   C4A15062  10.304   0.759   7.845  0.3601 -0.1109  0.1421
 1052POPI   C1B15063  10.569   0.819   6.607 -0.1140 -0.0855  0.1706
 1052POPI   C2B15064  10.693   0.879   7.079 -0.1172 -0.0070  0.0364
 1052POPI   C3B15065  10.739   0.951   7.471  0.3527  0.1100 -0.1779
 1052POPI   C4B15066  10.862   0.857   7.837 -0.1057 -0.1175 -0.3476
 1053POPI    C115067   1.924  13.715   5.416  0.1457 -0.1706  0.0758
 1053POPI    C215068   1.893  13.319   5.369  0.0734 -0.1496 -0.0589
 1053POPI    C315069   1.856  13.562   5.053  0.2622 -0.0431 -0.0009
 1053POPI   PO415070   1.774  13.779   5.720  0.0848 -0.0231 -0.0402
 1053POPI   GL115071   1.549  13.819   6.178  0.0580 -0.2541 -0.0303
 1053POPI   GL215072   1.569  13.511   6.144 -0.1029  0.1557 -0.0839
 1053POPI   C1A15073   1.650  13.640   6.640  0.2100 -0.3408  0.4007
 1053POPI   D2A15074   2.003  13.428   6.853  0.2416 -0.0417  0.2163
 1053POPI   C3A15075   1.962  13.006   7.154  0.0633  0.1974 -0.0799
 1053POPI   C4A15076   1.988  13.116   7.646  0.0106  0.2280 -0.0674
 1053POPI   C1B15077   1.631  13.202   6.397 -0.2129  0.0464 -0.0374
 1053POPI   C2B15078   1.588  13.123   6.856 -0.2213  0.2511  0.2541
 1053POPI   C3B15079   1.633  13.435   7.191  0.0319  0.0683  0.2372
 1053POPI   C4B15080   1.932  13.602   7.555 -0.1029  0.0288 -0.0775
 1054POPI    C115081  10.281  13.851   6.032 -0.0110 -0.3609 -0.1802
 1054POPI    C215082  10.389  14.091   5.730  0.0386 -0.1939 -0.0312
 1054POPI    C315083  10.275  13.715   5.656  0.0546 -0.1552 -0.2571
 1054POPI   PO415084  10.513  13.832   6.286  0.1574 -0.0108  0.1115
 1054POPI   GL115085  10.444  13.673   6.642  0.2962  0.1558  0.1021
 1054POPI   GL215086  10.706  13.617   6.804  0.0487 -0.0816  0.2775
 1054POPI   C1A15087  10.228  13.570   7.089  0.0442  0.2218  0.1652
 1054POPI   D2A15088  10.259  13.519   7.524 -0.0347  0.3769 -0.1166
 1054POPI   C3A15089   9.973  13.581   7.768  0.2624 -0.0131  0.0620
 1054POPI   C4A15090   9.885  13.564   8.215  0.0676  0.0926 -0.0127
 1054POPI   C1B15091  10.749  13.584   7.250  0.1270 -0.2137 -0.0818
 1054POPI   C2B15092  10.881  13.583   7.658  0.0582  0.0361 -0.1981
 1054POPI   C3B15093  11.081  13.618   8.089  0.3586  0.2784  0.1722
 1054POPI   C4B15094  11.035  13.487   8.571 -0.0237 -0.0185 -0.0884
 1055POPI    C115095   9.462   5.894   5.490  0.0681 -0.1607  0.1142
 1055POPI    C215096   9.549   6.252   5.335  0.0389 -0.0633  0.3202
 1055POPI    C315097   9.209   6.067   5.233  0.1978 -0.1732 -0.0232
 1055POPI   PO415098   9.521   5.872   5.713  0.0264 -0.0281  0.1151
 1055POPI   GL115099   9.511   5.668   6.168 -0.2860 -0.4833 -0.1406
 1055POPI   GL215100   9.674   6.004   6.313 -0.1127  0.2326 -0.0987
 1055POPI   C1A15101   9.226   5.802   6.461  0.0831 -0.2200  0.1197
 1055POPI   D2A15102   9.093   5.953   6.912 -0.2065  0.0414 -0.2126
 1055POPI   C3A15103   8.704   6.028   6.832 -0.1150 -0.0690  0.1729
 1055POPI   C4A15104   8.494   6.309   6.661 -0.2140  0.0845 -0.2218
 1055POPI   C1B15105   9.564   5.921   6.800  0.1315  0.3657  0.1166
 1055POPI   C2B15106   9.545   5.853   7.200  0.0302 -0.1246 -0.0109
 1055POPI   C3B15107   9.567   5.986   7.629 -0.1903  0.0974  0.0865
 1055POPI   C4B15108   9.396   6.056   8.008 -0.2248  0.4439  0.1105
 1056POPI    C115109   7.477   9.492   5.788  0.3071  0.1483 -0.4223
 1056POPI    C215110   7.149   9.681   5.657  0.1907  0.0686 -0.2500
 1056POPI    C315111   7.331   9.410   5.425 -0.0075 -0.0640 -0.2530
 1056POPI   PO415112   7.405   9.378   5.998 -0.3305 -0.1902 -0.0889
 1056POPI   GL115113   7.327   9.203   6.228  0.2487 -0.0303  0.0584
 1056POPI   GL215114   7.575   9.092   6.371 -0.0106 -0.3043 -0.1812
 1056POPI   C1A15115   7.242   9.289   6.697 -0.0276 -0.1656  0.0378
 1056POPI   D2A15116   7.149   9.273   7.133 -0.2612 -0.0446  0.3639
 1056POPI   C3A15117   7.413   9.482   7.510 -0.0964  0.1528  0.0241
 1056POPI   C4A15118   7.602   9.417   7.922  0.0631  0.0705 -0.4282
 1056POPI   C1B15119   7.610   9.007   6.771  0.2946 -0.2222  0.0111
 1056POPI   C2B15120   7.681   9.066   7.225  0.2274  0.0770  0.1108
 1056POPI   C3B15121   7.460   9.003   7.542 -0.1082 -0.1330  0.2300
 1056POPI   C4B15122   7.023   9.068   7.688 -0.0732  0.1740  0.1415
 1057POPI    C115123   2.889  17.237   5.592 -0.3530  0.1048  0.0638
 1057POPI    C215124   2.961  16.977   5.297 -0.1954 -0.0778  0.2604
 1057POPI    C315125   3.186  17.305   5.332 -0.1414 -0.1129  0.2434
 1057POPI   PO415126   2.878  17.114   5.821  0.2731 -0.2521  0.1946
 1057POPI   GL115127   2.667  16.847   6.197  0.1424  0.1764  0.1997
 1057POPI   GL215128   2.895  16.702   6.271 -0.1690  0.2162 -0.1436
 1057POPI   C1A15129   2.647  16.998   6.683 -0.2963  0.2456  0.2017
 1057POPI   D2A15130   2.675  16.766   6.977 -0.2208 -0.0649 -0.1717
 1057POPI   C3A15131   2.914  16.739   7.278 -0.0059  0.0523 -0.0995
 1057POPI   C4A15132   3.085  16.689   7.654  0.3159  0.1370  0.1403
 1057POPI   C1B15133   3.146  16.867   6.654  0.0356 -0.1570  0.1902
 1057POPI   C2B15134   3.295  16.631   6.941  0.2164 -0.1163  0.2418
 1057POPI   C3B15135   3.421  16.549   7.318 -0.1538  0.0008  0.2029
 1057POPI   C4B15136   3.615  16.705   7.694 -0.1535 -0.1965  0.0958
 1058POPI    C115137   1.988   8.860   5.993  0.2064  0.0215  0.0320
 1058POPI    C215138   1.935   8.671   5.645  0.5248 -0.0354  0.0116
 1058POPI    C315139   1.689   8.968   5.750  0.3217 -0.1321 -0.1811
 1058POPI   PO415140   1.930   8.657   6.206 -0.1675  0.0639 -0.3067
 1058POPI   GL115141   2.273   8.523   6.449 -0.1646  0.0998 -0.0124
 1058POPI   GL215142   2.080   8.303   6.532  0.0695 -0.0045 -0.0503
 1058POPI   C1A15143   2.408   8.573   6.884  0.0053  0.2210 -0.0054
 1058POPI   D2A15144   2.476   8.568   7.294 -0.2149  0.1605 -0.2080
 1058POPI   C3A15145   2.490   8.918   7.441 -0.1537  0.1574  0.0489
 1058POPI   C4A15146   2.440   9.374   7.601  0.0822  0.0099 -0.2619
 1058POPI   C1B15147   2.007   8.304   6.970 -0.0162  0.2085  0.0265
 1058POPI   C2B15148   1.955   8.332   7.366  0.1570  0.1359 -0.2607
 1058POPI   C3B15149   2.050   8.433   7.749 -0.1004  0.3472  0.1408
 1058POPI   C4B15150   1.874   8.405   8.077  0.3878 -0.1795 -0.0887
 1059POPI    C115151   4.578   1.430   6.025  0.1577 -0.0187 -0.1195
 1059POPI    C215152   4.559   1.553   5.645 -0.0257 -0.0522 -0.1217
 1059POPI    C315153   4.596   1.163   5.728  0.1106 -0.0365 -0.1063
 1059POPI   PO415154   4.738   1.542   6.151  0.0456 -0.0542  0.1324
 1059POPI   GL115155   4.788   1.545   6.580  0.0353  0.0431  0.0507
 1059POPI   GL215156   4.616   1.282   6.557  0.1426 -0.0302  0.1499
 1059POPI   C1A15157   4.661   1.634   6.990  0.0293 -0.1539  0.4308
 1059POPI   D2A15158   4.718   1.689   7.334 -0.1549  0.1166  0.0797
 1059POPI   C3A15159   4.509   1.715   7.688  0.0156 -0.0152 -0.5580
 1059POPI   C4A15160   4.453   1.817   8.131 -0.3182  0.1182 -0.4821
 1059POPI   C1B15161   4.587   1.088   6.839  0.0079 -0.0629 -0.0150
 1059POPI   C2B15162   4.560   1.137   7.351 -0.3788  0.4229  0.0182
 1059POPI   C3B15163   4.602   1.162   7.805 -0.0903 -0.2369 -0.0138
 1059POPI   C4B15164   4.544   0.907   8.103 -0.3190  0.1979 -0.0416
 1060POPI    C115165   2.602   4.132   6.137  0.2799 -0.0163  0.1936
 1060POPI    C215166   2.856   4.199   5.836  0.0306  0.0615 -0.0032
 1060POPI    C315167   2.891   4.405   6.177  0.2440  0.0543 -0.0194
 1060POPI   PO415168   2.573   3.951   6.280  0.2268 -0.0133  0.0866
 1060POPI   GL115169   2.394   3.847   6.618 -0.1150  0.0803  0.2115
 1060POPI   GL215170   2.105   3.995   6.750 -0.1610 -0.2129 -0.0344
 1060POPI   C1A15171   2.600   3.810   7.008 -0.1004 -0.0565 -0.1199
 1060POPI   D2A15172   2.550   3.703   7.424  0.1201 -0.1122 -0.1454
 1060POPI   C3A15173   2.536   3.180   7.410 -0.1718 -0.0939 -0.1136
 1060POPI   C4A15174   2.565   2.947   7.795  0.1596  0.1593 -0.4151
 1060POPI   C1B15175   2.125   4.086   7.162  0.1347 -0.0866 -0.3230
 1060POPI   C2B15176   2.159   4.023   7.533 -0.0407  0.0570  0.1062
 1060POPI   C3B15177   2.353   4.049   7.833  0.1305  0.2714 -0.0049
 1060POPI   C4B15178   2.362   4.153   8.244  0.1673  0.1705 -0.0125
 1061POPI    C115179   2.049   9.481   5.501 -0.0873 -0.2240  0.0519
 1061POPI    C215180   1.701   9.348   5.356 -0.0365 -0.0913 -0.1984
 1061POPI    C315181   1.909   9.623   5.154 -0.0966  0.3071  0.2646
 1061POPI   PO415182   2.003   9.428   5.801 -0.4472  0.1416  0.2549
 1061POPI   GL115183   2.156   9.342   6.136 -0.3086 -0.1923  0.2301
 1061POPI   GL215184   2.108   9.074   6.381 -0.1817 -0.3130 -0.0253
 1061POPI   C1A15185   2.414   9.523   6.531  0.0127 -0.1573 -0.1738
 1061POPI   D2A15186   2.428   9.872   6.895 -0.1892 -0.3370 -0.0905
 1061POPI   C3A15187   2.608   9.782   7.249 -0.1291  0.2826 -0.0186
 1061POPI   C4A15188   2.691   9.892   7.655  0.3657  0.1198  0.0052
 1061POPI   C1B15189   2.052   8.935   6.819 -0.0451 -0.0126 -0.1053
 1061POPI   C2B15190   2.061   8.851   7.244  0.2291 -0.1960  0.0185
 1061POPI   C3B15191   2.076   8.934   7.680 -0.1212  0.0984  0.1014
 1061POPI   C4B15192   2.249   8.728   8.147  0.0091 -0.2658  0.4222
 1062POPI    C115193   7.166  10.105   6.040  0.0974 -0.0796 -0.1585
 1062POPI    C215194   7.105  10.199   5.657 -0.0967 -0.0899 -0.1312
 1062POPI    C315195   6.806  10.049   5.876 -0.0440  0.1086  0.0807
 1062POPI   PO415196   7.420   9.945   6.010 -0.0742  0.0156 -0.0680
 1062POPI   GL115197   7.603   9.702   6.311 -0.0610  0.1909  0.0999
 1062POPI   GL215198   7.925   9.537   6.237 -0.1168  0.0263  0.1502
 1062POPI   C1A15199   7.455   9.793   6.656 -0.0918  0.1944  0.3463
 1062POPI   D2A15200   7.152   9.895   6.817  0.0330  0.0136  0.1099
 1062POPI   C3A15201   7.137   9.813   7.234 -0.0482  0.1557 -0.0575
 1062POPI   C4A15202   7.328   9.953   7.525 -0.1658 -0.1758 -0.1947
 1062POPI   C1B15203   7.818   9.402   6.706  0.0895 -0.0928  0.6804
 1062POPI   C2B15204   7.624   9.540   7.053  0.0528 -0.0185  0.1027
 1062POPI   C3B15205   7.781   9.746   7.441 -0.2386  0.2286  0.0551
 1062POPI   C4B15206   7.972   9.784   7.881  0.3392 -0.0513  0.1419
 1063POPI    C115207  16.952  14.611   5.641  0.3246  0.0448 -0.0557
 1063POPI    C215208  17.000  14.218   5.584  0.1435 -0.0158  0.1900
 1063POPI    C315209  16.860  14.448   5.288 -0.2241 -0.2217  0.1990
 1063POPI   PO415210  17.159  14.723   5.776 -0.1685 -0.2693 -0.0122
 1063POPI   GL115211  17.092  14.719   6.181 -0.0040 -0.3575 -0.0406
 1063POPI   GL215212  16.931  15.012   6.152  0.0372  0.0615  0.0072
 1063POPI   C1A15213  16.964  14.389   6.534 -0.1158  0.0548 -0.0893
 1063POPI   D2A15214  16.757  14.223   6.934  0.0235 -0.1773  0.1735
 1063POPI   C3A15215  16.884  14.238   7.283 -0.2226  0.0826 -0.2741
 1063POPI   C4A15216  17.083  14.179   7.630  0.2179 -0.1035 -0.2293
 1063POPI   C1B15217  17.187  15.072   6.503  0.1726 -0.2182  0.2534
 1063POPI   C2B15218  17.185  15.094   6.962  0.0926  0.0043 -0.1036
 1063POPI   C3B15219  17.257  15.149   7.436 -0.0545  0.2609  0.0683
 1063POPI   C4B15220  17.275  15.166   7.842 -0.1032 -0.0110 -0.2266
 1064POPI    C115221   2.332   2.279   5.747  0.1577  0.0411 -0.0041
 1064POPI    C215222   2.099   1.954   5.739  0.1586  0.0407 -0.0116
 1064POPI    C315223   1.950   2.310   5.631  0.1210  0.0659  0.1211
 1064POPI   PO415224   2.486   2.080   6.017 -0.2258  0.0567  0.0218
 1064POPI   GL115225   2.639   2.013   6.460 -0.0148  0.1411 -0.0891
 1064POPI   GL215226   2.406   2.265   6.515  0.0887 -0.0075  0.0116
 1064POPI   C1A15227   2.758   2.192   6.878  0.1632  0.2442  0.0509
 1064POPI   D2A15228   2.767   2.263   7.329 -0.1062  0.3667  0.2318
 1064POPI   C3A15229   2.880   2.621   7.405 -0.0919  0.0813 -0.0893
 1064POPI   C4A15230   2.949   2.635   7.756 -0.0018 -0.0142 -0.0421
 1064POPI   C1B15231   2.290   2.448   6.801 -0.2987 -0.2222  0.0469
 1064POPI   C2B15232   1.885   2.465   7.081  0.0557  0.0510 -0.0308
 1064POPI   C3B15233   1.836   2.457   7.566 -0.1988  0.4819 -0.1927
 1064POPI   C4B15234   1.561   2.379   7.914 -0.0144  0.3794 -0.5565
 1065POPI    C115235  14.633   6.300   5.893 -0.1426  0.0081  0.0622
 1065POPI    C215236  14.524   6.462   6.242 -0.2016  0.0922  0.0050
 1065POPI    C315237  14.528   6.685   5.910 -0.0418  0.0402 -0.0290
 1065POPI   PO415238  14.560   6.034   5.954 -0.1601  0.1316  0.0248
 1065POPI   GL115239  14.603   5.963   6.332  0.1831 -0.0457  0.2327
 1065POPI   GL215240  14.219   6.094   6.338 -0.4568  0.1205  0.0455
 1065POPI   C1A15241  14.792   6.172   6.771 -0.0953 -0.1269 -0.1238
 1065POPI   D2A15242  15.007   6.438   7.070 -0.1056  0.3165 -0.0426
 1065POPI   C3A15243  14.868   6.542   7.359  0.1069 -0.0928  0.2013
 1065POPI   C4A15244  14.541   6.753   7.532  0.0539  0.1574 -0.0671
 1065POPI   C1B15245  14.320   5.977   6.807 -0.1743  0.4845  0.1166
 1065POPI   C2B15246  14.210   5.850   7.268  0.0195  0.1528  0.0484
 1065POPI   C3B15247  14.392   5.803   7.662  0.0374 -0.0600  0.0757
 1065POPI   C4B15248  14.494   5.793   8.084  0.0191 -0.0589 -0.1307
 1066POPI    C115249   0.415   1.349   6.146  0.1435  0.0578 -0.1262
 1066POPI    C215250   0.525   1.223   5.783 -0.1534 -0.2002 -0.1307
 1066POPI    C315251   0.158   1.142   5.921 -0.1651  0.1987  0.0887
 1066POPI   PO415252   0.629   1.392   6.232  0.0011  0.2340 -0.1020
 1066POPI   GL115253   0.762   1.485   6.664 -0.3590  0.0619  0.2654
 1066POPI   GL215254   0.446   1.232   6.676  0.2509  0.0484 -0.1344
 1066POPI   C1A15255   0.535   1.512   7.123  0.0652 -0.0942 -0.2353
 1066POPI   D2A15256   0.438   1.424   7.553  0.0549 -0.2668  0.0187
 1066POPI   C3A15257   0.397   1.784   7.702  0.1385 -0.0476  0.1868
 1066POPI   C4A15258   0.035   2.036   7.898 -0.0003 -0.1076 -0.0150
 1066POPI   C1B15259   0.074   1.139   6.900 -0.2907  0.0695 -0.1285
 1066POPI   C2B15260   0.101   1.078   7.401  0.4011  0.0363 -0.1039
 1066POPI   C3B15261   0.034   1.076   7.848  0.1223 -0.1356 -0.3711
 1066POPI   C4B15262   0.183   0.963   8.155  0.0921  0.2088 -0.0220
 1067POPI    C115263  13.260  13.493   5.799  0.0321 -0.0448 -0.0894
 1067POPI    C215264  13.536  13.282   5.601 -0.0188 -0.1591 -0.0395
 1067POPI    C315265  13.423  13.641   5.465  0.1370 -0.1220 -0.0728
 1067POPI   PO415266  13.371  13.453   6.070  0.1634  0.2263  0.0451
 1067POPI   GL115267  13.381  13.485   6.451 -0.0225  0.0908  0.0665
 1067POPI   GL215268  13.413  13.801   6.539  0.0356  0.3775 -0.2260
 1067POPI   C1A15269  13.213  13.311   6.869 -0.0205  0.0591  0.0437
 1067POPI   D2A15270  13.271  13.279   7.205  0.2610 -0.3499 -0.2497
 1067POPI   C3A15271  13.346  13.275   7.518  0.1784  0.0051 -0.0022
 1067POPI   C4A15272  13.571  13.259   7.830  0.0119  0.3396 -0.2369
 1067POPI   C1B15273  13.334  13.803   6.910  0.0126  0.2475  0.1462
 1067POPI   C2B15274  13.318  13.765   7.312  0.4509 -0.2651 -0.2349
 1067POPI   C3B15275  13.419  13.725   7.788 -0.0038 -0.1691  0.1764
 1067POPI   C4B15276  13.697  13.621   8.192  0.0809  0.1390  0.0747
 1068POPI    C115277  16.105   0.269   5.988 -0.1808  0.3187  0.1906
 1068POPI    C215278  15.923   0.362   5.644 -0.3238 -0.0312  0.1685
 1068POPI    C315279  16.318   0.300   5.651 -0.2934  0.1506  0.1028
 1068POPI   PO415280  15.960   0.345   6.148  0.1583 -0.3155 -0.2527
 1068POPI   GL115281  16.043   0.642   6.480 -0.0887  0.0275  0.0234
 1068POPI   GL215282  16.193   0.719   6.621  0.1359  0.2647 -0.2275
 1068POPI   C1A15283  15.704   0.837   6.541  0.0753  0.1236 -0.0896
 1068POPI   D2A15284  15.596   0.800   7.007  0.2180 -0.1904  0.0123
 1068POPI   C3A15285  15.517   0.871   7.439  0.2184 -0.1054  0.2375
 1068POPI   C4A15286  15.217   0.878   7.791 -0.0624 -0.0850  0.0196
 1068POPI   C1B15287  16.154   0.533   7.046 -0.1292  0.1903 -0.1962
 1068POPI   C2B15288  15.801   0.376   7.352 -0.0092  0.0304 -0.1693
 1068POPI   C3B15289  15.769   0.042   7.659 -0.0469  0.1265 -0.2141
 1068POPI   C4B15290  15.819  -0.326   7.487  0.3394 -0.0527 -0.1845
 1069POPI    C115291   6.769  14.239   5.585  0.0986 -0.0845 -0.0138
 1069POPI    C215292   6.955  14.469   5.315  0.0584 -0.0546 -0.0162
 1069POPI    C315293   6.806  14.114   5.206  0.1835 -0.1141  0.0039
 1069POPI   PO415294   6.896  14.284   5.930 -0.2957 -0.0991 -0.4043
 1069POPI   GL115295   6.863  14.034   6.331 -0.2628 -0.1512  0.2220
 1069POPI   GL215296   6.629  13.783   6.535 -0.1997  0.2116  0.0805
 1069POPI   C1A15297   7.086  13.632   6.701  0.1205 -0.0173 -0.0084
 1069POPI   D2A15298   7.285  13.225   6.786 -0.0215  0.0378  0.1071
 1069POPI   C3A15299   7.232  13.146   7.173 -0.0376  0.2263  0.0302
 1069POPI   C4A15300   7.203  13.065   7.667  0.0043 -0.1011 -0.1666
 1069POPI   C1B15301   6.711  13.716   6.965  0.3325  0.2582 -0.2121
 1069POPI   C2B15302   6.700  13.686   7.423  0.1435 -0.0713  0.0932
 1069POPI   C3B15303   6.670  13.788   7.823  0.1077  0.2043  0.0633
 1069POPI   C4B15304   6.815  13.582   8.312 -0.2011 -0.1655 -0.0237
 1070POPI    C115305   0.899  16.162   5.595  0.0298 -0.0277  0.0413
 1070POPI    C215306   1.132  16.486   5.622  0.1194 -0.0914  0.0384
 1070POPI    C315307   1.271  16.154   5.448 -0.0715 -0.0399 -0.2191
 1070POPI   PO415308   0.800  16.089   5.815  0.3636  0.4326  0.1688
 1070POPI   GL115309   0.933  15.744   6.041  0.2189 -0.2401 -0.0578
 1070POPI   GL215310   1.099  15.639   6.271 -0.1597 -0.0738 -0.2755
 1070POPI   C1A15311   0.602  15.507   6.282  0.1590  0.1588 -0.2136
 1070POPI   D2A15312   0.534  15.361   6.762  0.2138 -0.3398 -0.3387
 1070POPI   C3A15313   0.564  15.693   7.107  0.0998  0.1700  0.0832
 1070POPI   C4A15314   0.323  15.916   7.386 -0.0950 -0.1500 -0.0591
 1070POPI   C1B15315   1.451  15.569   6.569  0.0613 -0.0272  0.0583
 1070POPI   C2B15316   1.594  15.496   7.083 -0.3883  0.1628  0.0409
 1070POPI   C3B15317   1.709  15.574   7.467  0.1777 -0.0785  0.2130
 1070POPI   C4B15318   1.752  15.674   7.875 -0.1998  0.0331 -0.1564
 1071POPI    C115319   9.274   3.614   6.193 -0.1129  0.1960  0.3073
 1071POPI    C215320   9.186   3.433   6.539 -0.2620 -0.0818  0.1276
 1071POPI    C315321   9.300   3.216   6.222 -0.0091  0.1807  0.0347
 1071POPI   PO415322   9.206   3.879   6.233  0.0269  0.0023  0.0318
 1071POPI   GL115323   9.298   3.958   6.680  0.2609 -0.1610  0.1503
 1071POPI   GL215324   8.934   3.881   6.701 -0.0564 -0.1967  0.1590
 1071POPI   C1A15325   9.466   4.097   7.047  0.0454  0.0106  0.2799
 1071POPI   D2A15326   9.464   4.193   7.447  0.2887  0.3082 -0.0270
 1071POPI   C3A15327   9.718   4.164   7.771 -0.1846 -0.3408  0.0270
 1071POPI   C4A15328   9.862   3.997   8.139  0.1605 -0.2517  0.1442
 1071POPI   C1B15329   8.967   4.054   7.078 -0.2224  0.0035  0.1998
 1071POPI   C2B15330   8.833   4.300   7.363 -0.1860 -0.0576 -0.0720
 1071POPI   C3B15331   8.650   4.330   7.751  0.1199 -0.1122  0.3918
 1071POPI   C4B15332   8.703   4.251   8.234 -0.0767 -0.0909 -0.0398
 1072POPI    C115333  14.419   8.132   5.568  0.1369  0.2572 -0.0273
 1072POPI    C215334  14.371   8.529   5.568 -0.4222  0.1972 -0.0565
 1072POPI    C315335  14.201   8.308   5.282 -0.3118 -0.0859  0.0932
 1072POPI   PO415336  14.392   8.066   5.832 -0.0731  0.1930  0.0995
 1072POPI   GL115337  14.144   8.186   6.177  0.0276  0.2416 -0.0657
 1072POPI   GL215338  14.110   8.538   6.194  0.0532  0.1438  0.1668
 1072POPI   C1A15339  13.953   8.236   6.645  0.3123 -0.1672 -0.0294
 1072POPI   D2A15340  13.812   8.430   7.098  0.1173 -0.0778 -0.1876
 1072POPI   C3A15341  14.074   8.357   7.450 -0.0802  0.1523 -0.0216
 1072POPI   C4A15342  14.370   8.333   7.798 -0.0207 -0.2130  0.1127
 1072POPI   C1B15343  14.378   8.394   6.527 -0.1031  0.1404  0.0646
 1072POPI   C2B15344  14.316   8.417   6.964  0.1626 -0.3061  0.0138
 1072POPI   C3B15345  14.551   8.501   7.346  0.0638  0.0858 -0.0856
 1072POPI   C4B15346  14.869   8.411   7.603 -0.3165  0.3005 -0.0329
 1073POPI    C115347  11.736   7.391   5.810  0.0656 -0.0052 -0.2078
 1073POPI    C215348  11.638   7.406   5.423  0.1398 -0.0410 -0.2283
 1073POPI    C315349  11.908   7.661   5.570  0.0491  0.0288 -0.1815
 1073POPI   PO415350  11.535   7.233   5.876  0.0453  0.3886  0.3414
 1073POPI   GL115351  11.612   6.860   6.089 -0.0017 -0.4254 -0.0452
 1073POPI   GL215352  11.539   6.602   6.070  0.1941  0.1121 -0.1325
 1073POPI   C1A15353  11.523   6.796   6.536  0.1217 -0.0744 -0.1436
 1073POPI   D2A15354  11.490   6.827   7.037  0.2642 -0.2361 -0.0780
 1073POPI   C3A15355  11.220   7.034   7.402 -0.1443 -0.1310 -0.0146
 1073POPI   C4A15356  10.756   7.227   7.579 -0.1862  0.0384  0.1103
 1073POPI   C1B15357  11.585   6.271   6.411 -0.0797 -0.0525  0.1065
 1073POPI   C2B15358  11.539   5.803   6.647  0.2078  0.3577  0.1188
 1073POPI   C3B15359  11.387   5.779   7.040  0.2037  0.0160 -0.1791
 1073POPI   C4B15360  11.303   5.425   7.378 -0.0866 -0.1697 -0.0075
 1074POPI    C115361  10.972  10.879   5.661 -0.1216 -0.1014 -0.0859
 1074POPI    C215362  11.134  10.721   5.330 -0.0403  0.0644 -0.1265
 1074POPI    C315363  10.881  11.029   5.301  0.1345  0.2199 -0.0213
 1074POPI   PO415364  11.237  10.915   5.849 -0.0519 -0.0382  0.2234
 1074POPI   GL115365  11.070  10.914   6.280 -0.0656 -0.2729 -0.0073
 1074POPI   GL215366  11.456  10.939   6.300  0.2273 -0.0240 -0.2048
 1074POPI   C1A15367  10.865  11.083   6.614  0.0403  0.1984 -0.0802
 1074POPI   D2A15368  10.903  11.440   6.847 -0.2645 -0.3087 -0.4222
 1074POPI   C3A15369  10.966  11.411   7.249  0.2838 -0.0811  0.0102
 1074POPI   C4A15370  11.033  11.532   7.675 -0.1235  0.0529 -0.0493
 1074POPI   C1B15371  11.277  10.841   6.680  0.0569 -0.0955 -0.2910
 1074POPI   C2B15372  11.141  10.967   7.101  0.0743 -0.1202 -0.1371
 1074POPI   C3B15373  11.055  11.009   7.582  0.0596 -0.0731 -0.1273
 1074POPI   C4B15374  11.248  11.101   7.922  0.1065 -0.1560  0.3868
 1075POPI    C115375  17.639   8.392   5.726 -0.2958  0.2089  0.1590
 1075POPI    C215376  17.803   8.737   5.606  0.2714 -0.0933  0.0298
 1075POPI    C315377  17.966   8.388   5.496 -0.4052 -0.4159 -0.0050
 1075POPI   PO415378  17.645   8.433   6.046  0.0051  0.1008  0.4513
 1075POPI   GL115379  17.418   8.386   6.372  0.3954  0.0095 -0.0210
 1075POPI   GL215380  17.436   8.772   6.505 -0.0648  0.1049 -0.3770
 1075POPI   C1A15381  17.259   8.316   6.775  0.2233 -0.2819  0.0693
 1075POPI   D2A15382  17.000   8.241   7.132 -0.2200 -0.3040  0.0944
 1075POPI   C3A15383  16.606   8.366   7.228  0.0026 -0.0720 -0.1998
 1075POPI   C4A15384  16.354   8.412   7.674  0.1026  0.3495  0.1101
 1075POPI   C1B15385  17.372   8.700   7.066  0.2888  0.1349  0.2656
 1075POPI   C2B15386  17.299   8.822   7.534 -0.0720 -0.3863  0.0728
 1075POPI   C3B15387  17.421   9.030   7.799 -0.1598 -0.1939  0.0088
 1075POPI   C4B15388  17.617   9.440   7.954 -0.1245  0.0899 -0.1248
 1076POPI    C115389   8.931  14.719   6.119  0.0434  0.0989 -0.0305
 1076POPI    C215390   8.737  14.989   5.896  0.1877  0.2914  0.0740
 1076POPI    C315391   8.742  14.605   5.785 -0.1362  0.3062 -0.0023
 1076POPI   PO415392   8.905  14.875   6.383 -0.2404  0.0578  0.0909
 1076POPI   GL115393   8.667  14.661   6.673  0.0950 -0.0246 -0.1053
 1076POPI   GL215394   8.709  14.388   6.506  0.1367  0.1058  0.0503
 1076POPI   C1A15395   8.945  14.733   7.101  0.0823  0.0349  0.2567
 1076POPI   D2A15396   9.195  14.578   7.372 -0.1904  0.1369 -0.0177
 1076POPI   C3A15397   9.141  14.564   7.857 -0.1688 -0.3976  0.1250
 1076POPI   C4A15398   9.027  14.685   8.298 -0.0312  0.0105 -0.2167
 1076POPI   C1B15399   8.859  14.259   6.930 -0.3688 -0.0041 -0.2720
 1076POPI   C2B15400   8.960  14.105   7.287 -0.0518 -0.0850  0.1588
 1076POPI   C3B15401   9.339  14.125   7.595  0.2373  0.1288 -0.0709
 1076POPI   C4B15402   9.381  14.218   8.067  0.1021  0.2749 -0.1386
 1077POPI    C115403  14.126  12.686   5.912 -0.0049  0.0072  0.0775
 1077POPI    C215404  14.347  12.361   5.989  0.0553  0.0466  0.0707
 1077POPI    C315405  14.525  12.713   5.919 -0.0096  0.0802  0.0741
 1077POPI   PO415406  13.983  12.667   6.086 -0.4679  0.0711  0.0133
 1077POPI   GL115407  14.023  12.889   6.480 -0.0158  0.2347 -0.1027
 1077POPI   GL215408  13.748  13.071   6.483 -0.1026  0.2306  0.0814
 1077POPI   C1A15409  13.883  12.580   6.780  0.3651  0.1309  0.1381
 1077POPI   D2A15410  13.886  12.504   7.204 -0.1319  0.0078  0.1626
 1077POPI   C3A15411  13.984  12.344   7.614  0.0492  0.2321 -0.1173
 1077POPI   C4A15412  14.231  12.248   7.927 -0.2715 -0.1163 -0.0330
 1077POPI   C1B15413  13.747  13.080   6.959 -0.0523  0.2108 -0.0524
 1077POPI   C2B15414  13.827  13.059   7.455 -0.1810 -0.0665 -0.2627
 1077POPI   C3B15415  13.867  12.830   7.897 -0.0254 -0.2342  0.1394
 1077POPI   C4B15416  14.011  12.655   8.247  0.2777  0.2990  0.1482
 1078POPI    C115417  16.635   8.162   5.835 -0.1808 -0.0810  0.1968
 1078POPI    C215418  16.611   8.535   5.977 -0.0341 -0.0089  0.0344
 1078POPI    C315419  16.412   8.434   5.645  0.0517 -0.0318 -0.0104
 1078POPI   PO415420  16.508   7.958   6.022  0.2196 -0.2499  0.1937
 1078POPI   GL115421  16.466   7.888   6.422  0.1305 -0.0165 -0.4299
 1078POPI   GL215422  16.248   8.083   6.611 -0.0095  0.2696  0.0439
 1078POPI   C1A15423  16.689   8.256   6.753 -0.0932  0.1576  0.2227
 1078POPI   D2A15424  16.852   8.636   6.826  0.0713  0.0789  0.0209
 1078POPI   C3A15425  16.869   8.820   7.207  0.2446  0.2893  0.0239
 1078POPI   C4A15426  16.713   8.941   7.562  0.1229  0.0192 -0.1186
 1078POPI   C1B15427  16.220   8.073   6.974 -0.0779 -0.1657 -0.0704
 1078POPI   C2B15428  16.150   8.106   7.336 -0.0040  0.1613 -0.1920
 1078POPI   C3B15429  16.164   7.964   7.867  0.3997  0.0014  0.0681
 1078POPI   C4B15430  16.009   8.000   8.268 -0.0607  0.2571 -0.2272
 1079POPI    C115431   0.468  16.923   5.657  0.0848  0.2868  0.0422
 1079POPI    C215432   0.626  16.569   5.755 -0.2342  0.0809 -0.1669
 1079POPI    C315433   0.818  16.810   5.500  0.0301  0.1041  0.0492
 1079POPI   PO415434   0.407  17.070   5.865  0.0491  0.2384  0.0532
 1079POPI   GL115435   0.212  17.062   6.378  0.1213 -0.1283 -0.0067
 1079POPI   GL215436   0.462  17.063   6.551  0.1952 -0.3061 -0.1946
 1079POPI   C1A15437   0.009  17.010   6.778  0.1246 -0.1663  0.0906
 1079POPI   D2A15438   0.023  16.734   7.072 -0.0452  0.0476  0.0601
 1079POPI   C3A15439   0.075  16.944   7.306  0.2486 -0.2036 -0.1902
 1079POPI   C4A15440   0.292  16.839   7.723 -0.1046 -0.0155  0.1073
 1079POPI   C1B15441   0.772  17.352   6.729  0.0627  0.0796 -0.0346
 1079POPI   C2B15442   0.905  17.428   7.071  0.2079 -0.0799 -0.0587
 1079POPI   C3B15443   0.901  17.446   7.477 -0.3021 -0.1017  0.3484
 1079POPI   C4B15444   1.082  17.470   7.872 -0.0477 -0.2345 -0.0386
 1080POPI    C115445   9.776   8.744   5.726 -0.0911 -0.0760  0.0380
 1080POPI    C215446   9.626   8.973   5.434  0.0524  0.1546  0.1426
 1080POPI    C315447  10.017   8.986   5.518  0.0905 -0.2480  0.0458
 1080POPI   PO415448   9.616   8.784   5.891  0.3288  0.1248 -0.2359
 1080POPI   GL115449   9.508   8.442   6.270  0.0258  0.0725  0.2786
 1080POPI   GL215450   9.865   8.401   6.173 -0.2175  0.0334  0.0766
 1080POPI   C1A15451   9.671   8.619   6.665 -0.1462 -0.0183 -0.1234
 1080POPI   D2A15452   9.662   8.633   7.115  0.1837  0.3254 -0.0373
 1080POPI   C3A15453   9.601   8.503   7.529 -0.0324  0.2184 -0.0493
 1080POPI   C4A15454   9.402   8.582   7.891 -0.1271 -0.0901  0.2069
 1080POPI   C1B15455   9.705   8.070   6.587 -0.1622 -0.3401  0.1343
 1080POPI   C2B15456   9.667   8.074   6.912  0.1957 -0.0922 -0.2586
 1080POPI   C3B15457   9.568   7.989   7.251  0.1762 -0.0388  0.2767
 1080POPI   C4B15458   9.424   8.020   7.666 -0.0177 -0.0432  0.2299
 1081POPI    C115459   2.051   6.398   5.835  0.0598  0.1740  0.2383
 1081POPI    C215460   1.987   6.154   5.524  0.0466  0.0619  0.3280
 1081POPI    C315461   2.071   6.540   5.462  0.0293  0.0434  0.1861
 1081POPI   PO415462   2.183   6.288   5.991  0.0516 -0.0220 -0.2591
 1081POPI   GL115463   2.003   6.069   6.316  0.2070  0.2445 -0.1867
 1081POPI   GL215464   2.321   6.085   6.426 -0.0066 -0.1394  0.0887
 1081POPI   C1A15465   1.853   6.217   6.655  0.0688 -0.0727  0.0120
 1081POPI   D2A15466   2.009   6.330   7.097  0.1051  0.0004  0.1903
 1081POPI   C3A15467   1.938   6.095   7.395  0.0889 -0.1287  0.3122
 1081POPI   C4A15468   1.973   6.027   7.887  0.6232  0.0220  0.2902
 1081POPI   C1B15469   2.458   6.190   6.839 -0.1700  0.2243  0.0185
 1081POPI   C2B15470   2.486   6.285   7.282 -0.1629 -0.0438  0.0126
 1081POPI   C3B15471   2.468   6.274   7.635  0.1243  0.0159 -0.1270
 1081POPI   C4B15472   2.355   6.479   7.975  0.0923 -0.0373  0.0950
 1082POPI    C115473  16.339   1.478   6.152 -0.2020 -0.1124 -0.0558
 1082POPI    C215474  15.982   1.657   6.123 -0.1708 -0.0226  0.1034
 1082POPI    C315475  16.276   1.755   5.870 -0.1754  0.1015  0.1452
 1082POPI   PO415476  16.505   1.593   6.373 -0.1088  0.1709 -0.0208
 1082POPI   GL115477  16.497   1.828   6.681 -0.0311 -0.0992 -0.1188
 1082POPI   GL215478  16.147   1.906   6.663  0.0683  0.2428  0.1629
 1082POPI   C1A15479  16.558   1.767   7.137  0.1005  0.1907  0.0904
 1082POPI   D2A15480  16.451   1.766   7.444 -0.1298  0.4151  0.1522
 1082POPI   C3A15481  16.629   1.565   7.800 -0.1344  0.0769  0.3221
 1082POPI   C4A15482  16.547   1.425   8.239 -0.0651  0.2120 -0.4537
 1082POPI   C1B15483  16.067   1.718   7.085 -0.2491  0.2181  0.2697
 1082POPI   C2B15484  15.909   1.831   7.462  0.1231  0.1207 -0.2894
 1082POPI   C3B15485  15.958   1.884   7.857 -0.0118  0.3114  0.1848
 1082POPI   C4B15486  16.228   1.809   8.101 -0.1294  0.1598  0.0256
 1083POPI    C115487   8.090  10.328   5.900  0.0163  0.1980 -0.2139
 1083POPI    C215488   7.886   9.984   5.873  0.1957  0.0822 -0.1112
 1083POPI    C315489   7.816  10.279   5.612 -0.0966  0.0411 -0.0820
 1083POPI   PO415490   8.066  10.522   6.195 -0.0775  0.3749 -0.3220
 1083POPI   GL115491   8.039  10.845   6.519  0.0088  0.1016  0.4781
 1083POPI   GL215492   7.763  10.743   6.575  0.4336  0.0972  0.0058
 1083POPI   C1A15493   8.367  10.707   6.888  0.0468  0.1626  0.0993
 1083POPI   D2A15494   8.305  10.557   7.421 -0.1912  0.2115  0.1078
 1083POPI   C3A15495   8.654  10.849   7.670  0.1291 -0.1241 -0.0796
 1083POPI   C4A15496   8.743  11.160   7.924  0.4016 -0.2933  0.2134
 1083POPI   C1B15497   7.895  10.609   6.927 -0.3010  0.0469 -0.1312
 1083POPI   C2B15498   7.858  10.727   7.316  0.3026 -0.1061  0.1741
 1083POPI   C3B15499   7.717  10.715   7.658 -0.2889  0.2356  0.1392
 1083POPI   C4B15500   7.706  10.721   8.104 -0.1176 -0.1568  0.0603
 1084POPI    C115501   1.625   1.754   5.992 -0.0613 -0.0377 -0.0117
 1084POPI    C215502   1.553   2.144   5.940 -0.2037 -0.0283  0.2373
 1084POPI    C315503   1.601   1.905   5.622 -0.2685  0.1633  0.0815
 1084POPI   PO415504   1.690   1.791   6.352 -0.3414 -0.0777  0.2488
 1084POPI   GL115505   1.671   1.711   6.759 -0.0630  0.0586 -0.1582
 1084POPI   GL215506   1.444   1.576   6.960 -0.0822 -0.0250 -0.0373
 1084POPI   C1A15507   1.777   1.921   7.141  0.1597  0.2434  0.1858
 1084POPI   D2A15508   1.771   1.959   7.531  0.0553 -0.0837 -0.2360
 1084POPI   C3A15509   1.779   1.686   7.878  0.1986 -0.1345  0.1402
 1084POPI   C4A15510   1.574   1.483   8.232 -0.0094 -0.0927 -0.2013
 1084POPI   C1B15511   1.058   1.545   7.149  0.1256  0.0175  0.1705
 1084POPI   C2B15512   0.932   1.572   7.490  0.0982  0.1490  0.2340
 1084POPI   C3B15513   0.801   1.544   7.949  0.1416  0.0289 -0.0438
 1084POPI   C4B15514   0.872   1.686   8.397  0.3392 -0.0628  0.0681
 1085POPI    C115515   0.684   6.916   5.810 -0.0955  0.1908 -0.1931
 1085POPI    C215516   0.667   6.611   5.551 -0.0911  0.0587 -0.0398
 1085POPI    C315517   0.528   6.971   5.446  0.0246  0.0386 -0.2692
 1085POPI   PO415518   0.621   6.858   6.068  0.0435  0.0249 -0.1170
 1085POPI   GL115519   0.406   7.216   6.420 -0.2847 -0.0989 -0.3796
 1085POPI   GL215520   0.208   7.066   6.373  0.0695 -0.0165  0.0241
 1085POPI   C1A15521   0.502   7.346   6.857  0.2472 -0.0137  0.2119
 1085POPI   D2A15522   0.701   7.272   7.219 -0.1583  0.0105 -0.1739
 1085POPI   C3A15523   0.588   6.978   7.509  0.1645 -0.1683  0.0279
 1085POPI   C4A15524   0.632   6.665   7.727  0.0145 -0.2009  0.0231
 1085POPI   C1B15525   0.067   6.948   6.813 -0.2262  0.1710  0.2433
 1085POPI   C2B15526   0.177   7.166   7.220  0.0022 -0.0546 -0.0879
 1085POPI   C3B15527   0.111   7.408   7.624  0.3457  0.1260  0.2019
 1085POPI   C4B15528   0.163   7.555   8.088  0.0217 -0.0871 -0.0545
 1086POPI    C115529   5.041  15.211   6.335 -0.0469 -0.0894 -0.2446
 1086POPI    C215530   5.409  15.063   6.382 -0.0083  0.0788  0.0025
 1086POPI    C315531   5.332  15.316   6.081  0.1700  0.3258  0.1605
 1086POPI   PO415532   5.021  15.288   6.575 -0.0213  0.2441  0.0544
 1086POPI   GL115533   4.786  15.552   6.776 -0.3489 -0.1082  0.0119
 1086POPI   GL215534   4.529  15.346   6.815 -0.1171 -0.1443 -0.0345
 1086POPI   C1A15535   4.659  15.800   7.144 -0.0699 -0.0459  0.1506
 1086POPI   D2A15536   4.527  15.891   7.552 -0.0074 -0.0799  0.2698
 1086POPI   C3A15537   4.402  16.308   7.744 -0.1520 -0.2346  0.0107
 1086POPI   C4A15538   4.605  16.727   7.775  0.1924 -0.1053 -0.1602
 1086POPI   C1B15539   4.432  15.350   7.287 -0.0220  0.0246 -0.1479
 1086POPI   C2B15540   4.347  15.364   7.732 -0.0864 -0.0275 -0.0160
 1086POPI   C3B15541   4.146  15.374   8.184  0.1174 -0.0044 -0.1761
 1086POPI   C4B15542   4.230  15.365   8.539  0.0579 -0.1161 -0.1205
 1087POPI    C115543  10.491   2.458   5.806  0.0605  0.0302 -0.0524
 1087POPI    C215544  10.347   2.706   5.527 -0.2626 -0.3041 -0.1904
 1087POPI    C315545  10.229   2.743   5.907  0.1882  0.1603 -0.0848
 1087POPI   PO415546  10.799   2.479   5.815  0.1346  0.0632 -0.2754
 1087POPI   GL115547  11.087   2.562   6.176  0.3244 -0.0741 -0.2042
 1087POPI   GL215548  11.355   2.415   5.954 -0.1728 -0.0156  0.0684
 1087POPI   C1A15549  11.516   2.475   6.455  0.1269 -0.1930  0.3766
 1087POPI   D2A15550  11.628   2.551   6.823  0.1078  0.1327 -0.3635
 1087POPI   C3A15551  11.481   2.405   7.149 -0.1061 -0.4235 -0.1440
 1087POPI   C4A15552  11.668   2.276   7.535  0.2943  0.0557 -0.0706
 1087POPI   C1B15553  11.168   2.091   6.252 -0.2979 -0.0866 -0.1010
 1087POPI   C2B15554  11.211   2.040   6.592  0.0896 -0.1179 -0.0187
 1087POPI   C3B15555  11.284   1.980   6.994  0.1343 -0.0986 -0.0222
 1087POPI   C4B15556  11.233   2.024   7.356 -0.0714 -0.1025 -0.0522
 1088POPI    C115557  10.952   8.437   5.661 -0.0615  0.0552  0.2328
 1088POPI    C215558  11.341   8.341   5.666 -0.1003 -0.1464 -0.1864
 1088POPI    C315559  11.203   8.603   5.397 -0.1972  0.2036  0.1955
 1088POPI   PO415560  10.790   8.309   5.896 -0.2606 -0.0272  0.0786
 1088POPI   GL115561  10.461   8.256   6.155 -0.2219 -0.0699  0.0739
 1088POPI   GL215562  10.751   8.257   6.363  0.0502  0.4114 -0.2620
 1088POPI   C1A15563  10.229   8.156   6.451  0.0540  0.0328 -0.2062
 1088POPI   D2A15564  10.084   8.391   6.885 -0.1685 -0.0662 -0.4280
 1088POPI   C3A15565  10.003   8.265   7.290 -0.0192 -0.0795 -0.2288
 1088POPI   C4A15566  10.018   8.361   7.841 -0.0233  0.0286  0.2107
 1088POPI   C1B15567  10.568   8.520   6.744 -0.0926  0.1342  0.0095
 1088POPI   C2B15568  10.480   8.529   7.112 -0.3060  0.1650 -0.0119
 1088POPI   C3B15569  10.457   8.677   7.479  0.1673 -0.0602  0.1205
 1088POPI   C4B15570  10.394   8.689   7.888 -0.0386 -0.2908 -0.2902
 1089POPI    C115571   5.484   0.030   6.123 -0.0633 -0.1245 -0.1206
 1089POPI    C215572   5.096  -0.059   6.165 -0.1010  0.1192  0.0710
 1089POPI    C315573   5.205   0.280   5.982  0.0234  0.0377 -0.0075
 1089POPI   PO415574   5.589  -0.095   6.270 -0.1045 -0.0031 -0.1177
 1089POPI   GL115575   5.720  -0.295   6.596  0.2471  0.0356  0.1102
 1089POPI   GL215576   5.802  -0.649   6.631  0.0318  0.0539 -0.0233
 1089POPI   C1A15577   5.595  -0.173   7.019 -0.0881 -0.2802 -0.1125
 1089POPI   D2A15578   5.694  -0.203   7.546 -0.1552 -0.0267  0.0209
 1089POPI   C3A15579   5.576   0.135   7.841 -0.2599  0.0080 -0.0293
 1089POPI   C4A15580   5.421   0.355   8.129  0.1717 -0.2119 -0.2080
 1089POPI   C1B15581   5.896  -0.585   7.105 -0.0732 -0.0796  0.3601
 1089POPI   C2B15582   5.959  -0.633   7.487 -0.2188 -0.1001  0.0694
 1089POPI   C3B15583   5.906  -0.702   7.838 -0.0546  0.1276  0.2353
 1089POPI   C4B15584   5.836  -0.575   8.304 -0.1796  0.2018  0.0037
 1090POPI    C115585   2.997   0.298   5.925  0.1208  0.2894 -0.0422
 1090POPI    C215586   3.378   0.233   5.825  0.1227 -0.2201  0.2632
 1090POPI    C315587   3.103  -0.050   5.760 -0.2178  0.1579  0.0080
 1090POPI   PO415588   3.009   0.420   6.141 -0.0138 -0.2059 -0.3103
 1090POPI   GL115589   2.939   0.360   6.541 -0.3510  0.2275 -0.0691
 1090POPI   GL215590   2.660   0.259   6.708  0.2374 -0.3973 -0.0956
 1090POPI   C1A15591   2.866   0.613   6.894  0.2998 -0.0827 -0.0799
 1090POPI   D2A15592   3.014   0.841   7.196 -0.0206  0.0373  0.0180
 1090POPI   C3A15593   3.125   0.793   7.596  0.1385  0.0921  0.1507
 1090POPI   C4A15594   3.265   0.995   7.857 -0.0301 -0.0182  0.0637
 1090POPI   C1B15595   2.697   0.197   7.095 -0.0696 -0.0289 -0.1182
 1090POPI   C2B15596   2.743  -0.012   7.482  0.1916  0.2039 -0.0431
 1090POPI   C3B15597   2.684  -0.051   7.884 -0.1112 -0.0485 -0.0815
 1090POPI   C4B15598   2.734  -0.181   8.279 -0.3265  0.1077 -0.0502
 1091POPI    C115599  12.833  10.718   5.286  0.0015  0.0426 -0.0744
 1091POPI    C215600  12.437  10.760   5.324 -0.0139 -0.1592 -0.0026
 1091POPI    C315601  12.598  10.395   5.295  0.1518 -0.0719 -0.2046
 1091POPI   PO415602  12.926  10.854   5.533 -0.1801  0.2626  0.2149
 1091POPI   GL115603  12.900  10.921   5.996 -0.2691 -0.0069  0.0541
 1091POPI   GL215604  13.041  10.664   6.130  0.0811  0.1115  0.1580
 1091POPI   C1A15605  12.558  11.028   6.257  0.1320  0.0991 -0.1611
 1091POPI   D2A15606  12.353  10.849   6.592 -0.1214  0.0901  0.0536
 1091POPI   C3A15607  12.607  11.015   7.025 -0.1094  0.0050 -0.2726
 1091POPI   C4A15608  12.842  10.948   7.399  0.1161 -0.2666  0.3574
 1091POPI   C1B15609  13.004  10.924   6.473  0.2587  0.0976 -0.1950
 1091POPI   C2B15610  13.106  10.883   6.911  0.1274  0.0042  0.0639
 1091POPI   C3B15611  13.390  10.841   7.238 -0.0836  0.3589  0.2517
 1091POPI   C4B15612  13.569  10.604   7.638 -0.0444  0.2644 -0.0478
 1092POPI    C115613   3.431  11.177   6.068  0.0507 -0.0184 -0.0795
 1092POPI    C215614   3.170  11.057   6.347 -0.0078  0.1024 -0.0818
 1092POPI    C315615   3.196  10.861   5.999 -0.0805  0.0772 -0.0731
 1092POPI   PO415616   3.630  11.281   6.240 -0.1778  0.0128 -0.2211
 1092POPI   GL115617   3.944  11.095   6.563 -0.3307 -0.2261 -0.0904
 1092POPI   GL215618   3.998  11.443   6.717 -0.1808 -0.1238 -0.0791
 1092POPI   C1A15619   3.882  11.061   7.049  0.0315 -0.1145  0.0339
 1092POPI   D2A15620   3.876  11.078   7.424 -0.1124  0.0016 -0.2058
 1092POPI   C3A15621   3.637  11.075   7.828 -0.0978  0.1456  0.0365
 1092POPI   C4A15622   3.300  10.914   8.075  0.0216 -0.2019  0.1380
 1092POPI   C1B15623   4.010  11.517   7.173 -0.0779 -0.2044  0.1474
 1092POPI   C2B15624   4.047  11.485   7.614  0.2282  0.1543  0.0619
 1092POPI   C3B15625   4.027  11.312   8.018  0.0031 -0.0001  0.2825
 1092POPI   C4B15626   4.267  11.178   8.379 -0.3159 -0.1116  0.0259
 1093POPI    C115627  10.495  16.472   5.865  0.0539  0.0495 -0.1758
 1093POPI    C215628  10.286  16.169   5.710 -0.1753  0.0818  0.0632
 1093POPI    C315629  10.660  16.238   5.586 -0.1787 -0.1964 -0.1106
 1093POPI   PO415630  10.333  16.459   6.131  0.2692  0.0845 -0.0019
 1093POPI   GL115631  10.210  16.614   6.476  0.0012 -0.0252  0.1200
 1093POPI   GL215632   9.977  16.583   6.762  0.2305 -0.0379  0.0104
 1093POPI   C1A15633  10.220  16.987   6.782 -0.1520  0.1867  0.2573
 1093POPI   D2A15634  10.097  17.232   7.046 -0.1010 -0.2840 -0.0588
 1093POPI   C3A15635  10.246  17.230   7.450 -0.0006  0.1661  0.2203
 1093POPI   C4A15636  10.265  17.212   7.818 -0.0317 -0.0790  0.1675
 1093POPI   C1B15637  10.091  16.744   7.255 -0.2102  0.0286 -0.6595
 1093POPI   C2B15638  10.137  16.711   7.623 -0.0869  0.2345  0.1224
 1093POPI   C3B15639  10.355  16.730   7.995  0.0378 -0.1185 -0.0142
 1093POPI   C4B15640  10.541  16.496   8.369  0.1701  0.1859 -0.0987
 1094POPI    C115641   5.739  14.130   6.482 -0.0465  0.1400  0.2169
 1094POPI    C215642   5.885  14.339   6.173 -0.0184  0.0218  0.1498
 1094POPI    C315643   5.945  13.944   6.194 -0.2030 -0.0046  0.1972
 1094POPI   PO415644   5.523  14.190   6.530 -0.3614 -0.0299 -0.0113
 1094POPI   GL115645   5.193  14.147   6.854 -0.0021  0.1694 -0.3265
 1094POPI   GL215646   5.259  13.842   6.755 -0.1054  0.0464  0.0051
 1094POPI   C1A15647   5.288  14.223   7.241  0.0163  0.1420  0.0426
 1094POPI   D2A15648   5.206  14.378   7.540 -0.1246 -0.1332  0.1375
 1094POPI   C3A15649   5.218  14.420   7.977 -0.1609  0.1261 -0.2963
 1094POPI   C4A15650   5.038  14.565   8.443  0.0011  0.2371  0.1455
 1094POPI   C1B15651   5.157  13.685   7.145 -0.0988 -0.2593 -0.0569
 1094POPI   C2B15652   4.954  13.871   7.453  0.1387 -0.1645  0.0868
 1094POPI   C3B15653   5.219  13.938   7.789 -0.2400  0.2376  0.1113
 1094POPI   C4B15654   5.141  14.024   8.277  0.4329 -0.1724  0.1315
 1095POPI    C115655   4.525  15.985   6.050  0.0288 -0.1914 -0.0604
 1095POPI    C215656   4.302  16.156   5.765  0.0843  0.0207  0.0216
 1095POPI    C315657   4.681  16.054   5.688  0.1530  0.2353  0.0690
 1095POPI   PO415658   4.255  15.792   6.227 -0.0045 -0.2459  0.0477
 1095POPI   GL115659   4.132  15.960   6.616  0.2514  0.3472 -0.2281
 1095POPI   GL215660   3.872  15.869   6.637 -0.1275  0.1071 -0.2173
 1095POPI   C1A15661   4.334  16.083   6.932  0.0526  0.0720  0.2553
 1095POPI   D2A15662   4.385  16.306   7.202 -0.0765 -0.1872 -0.1478
 1095POPI   C3A15663   4.819  16.257   7.406  0.1243 -0.0469 -0.0535
 1095POPI   C4A15664   4.820  16.073   7.921  0.0410 -0.0971  0.2444
 1095POPI   C1B15665   3.593  15.654   6.913 -0.0334  0.0906  0.0712
 1095POPI   C2B15666   3.464  15.390   7.283  0.2907  0.0094  0.2752
 1095POPI   C3B15667   3.438  15.082   7.488 -0.0447 -0.0311 -0.0440
 1095POPI   C4B15668   3.406  14.975   7.872 -0.0781 -0.1594  0.0507
 1096POPI    C115669  14.280  14.477   5.794  0.0147 -0.0541  0.0170
 1096POPI    C215670  14.544  14.683   5.575 -0.0048 -0.0447  0.0023
 1096POPI    C315671  14.275  14.877   5.799  0.0606 -0.0542  0.0895
 1096POPI   PO415672  14.450  14.313   5.912 -0.1467  0.5347 -0.0716
 1096POPI   GL115673  14.794  14.273   6.140  0.1591 -0.1542  0.1691
 1096POPI   GL215674  14.902  14.502   5.922  0.4517 -0.0797 -0.0940
 1096POPI   C1A15675  14.995  14.404   6.530  0.1711 -0.1191 -0.3044
 1096POPI   D2A15676  15.083  14.418   6.963  0.0407 -0.2955  0.2330
 1096POPI   C3A15677  14.856  14.395   7.285  0.1155 -0.1867 -0.3990
 1096POPI   C4A15678  14.835  14.204   7.760  0.2225 -0.0496  0.4349
 1096POPI   C1B15679  15.226  14.799   6.113 -0.2060 -0.0348 -0.1786
 1096POPI   C2B15680  15.185  15.138   6.438  0.1413 -0.0943 -0.1671
 1096POPI   C3B15681  15.200  15.325   6.859  0.1678  0.1355  0.3141
 1096POPI   C4B15682  15.449  15.456   7.208 -0.3045  0.2688 -0.2249
 1097DPPI    C115683  13.197  11.201   5.702 -0.1052  0.0838 -0.2100
 1097DPPI    C215684  13.593  11.197   5.755 -0.1357  0.0123  0.0236
 1097DPPI    C315685  13.439  11.124   5.393  0.0703  0.2343 -0.1117
 1097DPPI   PO415686  13.107  11.485   5.795 -0.0263  0.0885 -0.0139
 1097DPPI   GL115687  13.259  11.411   6.170 -0.0499  0.1014 -0.0325
 1097DPPI   GL215688  12.842  11.446   6.249  0.2808 -0.4197 -0.0124
 1097DPPI   C1A15689  13.381  11.257   6.558 -0.0029 -0.0445  0.1473
 1097DPPI   C2A15690  13.323  11.303   6.956  0.1818  0.1950 -0.2447
 1097DPPI   C3A15691  13.235  11.311   7.318  0.1336  0.1790  0.0338
 1097DPPI   C4A15692  13.227  11.119   7.675 -0.0053 -0.1640 -0.0421
 1097DPPI   C1B15693  12.788  11.402   6.663 -0.0497  0.1034  0.2379
 1097DPPI   C2B15694  12.820  11.456   7.064  0.1933  0.1698  0.2002
 1097DPPI   C3B15695  12.732  11.453   7.440  0.1298 -0.0527  0.0297
 1097DPPI   C4B15696  12.726  11.285   7.924 -0.1228 -0.1107 -0.0878
 1098DPPI    C115697   6.308  12.918   6.079  0.0642 -0.0608  0.0232
 1098DPPI    C215698   6.252  12.839   5.690  0.1003 -0.0515  0.0161
 1098DPPI    C315699   6.613  12.952   5.821  0.1161 -0.1631  0.0703
 1098DPPI   PO415700   6.276  12.686   6.161 -0.2228  0.1661 -0.2281
 1098DPPI   GL115701   6.241  12.470   6.573  0.0084  0.0359 -0.0612
 1098DPPI   GL215702   6.487  12.467   6.568 -0.2094  0.0503 -0.1550
 1098DPPI   C1A15703   6.102  12.376   6.885 -0.1417  0.1963  0.0387
 1098DPPI   C2A15704   6.087  12.360   7.299 -0.0540  0.1634 -0.0545
 1098DPPI   C3A15705   5.825  12.221   7.591 -0.2041  0.0219 -0.0176
 1098DPPI   C4A15706   5.801  12.196   7.997 -0.2457 -0.3367 -0.1621
 1098DPPI   C1B15707   6.584  12.355   6.983  0.0640 -0.4278  0.1762
 1098DPPI   C2B15708   6.588  12.349   7.475  0.1835 -0.3714 -0.0041
 1098DPPI   C3B15709   6.718  12.138   7.840 -0.1773 -0.0021  0.1713
 1098DPPI   C4B15710   6.731  12.012   8.248 -0.1468  0.0667 -0.0797
 1099DPPI    C115711   4.500  14.180   5.922  0.0447 -0.0543 -0.1854
 1099DPPI    C215712   4.710  14.024   5.619 -0.0277 -0.1851 -0.1690
 1099DPPI    C315713   4.313  13.973   5.634 -0.0376 -0.0912 -0.1059
 1099DPPI   PO415714   4.669  14.239   6.080 -0.3532  0.2805  0.0764
 1099DPPI   GL115715   4.613  14.223   6.522  0.0399 -0.4389  0.0536
 1099DPPI   GL215716   4.801  14.405   6.757  0.0218 -0.1461 -0.1456
 1099DPPI   C1A15717   4.201  14.359   6.683  0.0879 -0.1710 -0.4520
 1099DPPI   C2A15718   4.095  14.350   7.133  0.0592 -0.2077  0.2580
 1099DPPI   C3A15719   4.046  14.276   7.598  0.1184 -0.0748  0.0502
 1099DPPI   C4A15720   4.254  14.427   7.870  0.0147 -0.1264  0.1897
 1099DPPI   C1B15721   4.935  14.491   7.119  0.1974  0.1387  0.0169
 1099DPPI   C2B15722   4.922  14.757   7.524  0.3450 -0.0741 -0.2136
 1099DPPI   C3B15723   4.799  14.747   7.899  0.0659  0.0272 -0.0253
 1099DPPI   C4B15724   4.446  14.734   8.198  0.0287 -0.0498 -0.2341
 1100DPPI    C115725   9.505  12.647   6.022 -0.0135  0.0067  0.1507
 1100DPPI    C215726   9.452  12.901   5.717 -0.3725 -0.0688  0.1462
 1100DPPI    C315727   9.723  12.607   5.689 -0.0612  0.2175  0.0928
 1100DPPI   PO415728   9.231  12.583   6.110 -0.0946  0.1667  0.1485
 1100DPPI   GL115729   9.099  12.570   6.494 -0.0728 -0.0922  0.1574
 1100DPPI   GL215730   8.912  12.814   6.656 -0.0402  0.1244 -0.0175
 1100DPPI   C1A15731   8.623  12.403   6.593 -0.0489  0.1987  0.1494
 1100DPPI   C2A15732   8.485  12.561   6.944  0.0321  0.3599  0.0494
 1100DPPI   C3A15733   8.468  12.432   7.358 -0.2560 -0.0050  0.0647
 1100DPPI   C4A15734   8.801  12.337   7.712  0.3422  0.0007  0.2100
 1100DPPI   C1B15735   8.860  12.896   7.083  0.0838 -0.1321  0.1627
 1100DPPI   C2B15736   8.907  12.855   7.490 -0.0048 -0.1688  0.2172
 1100DPPI   C3B15737   9.198  12.790   7.869  0.0275  0.1386 -0.0957
 1100DPPI   C4B15738   9.060  12.491   8.175 -0.1381 -0.0246 -0.5456
 1101DPPI    C115739  10.654   0.647   5.420  0.5153 -0.1427  0.1023
 1101DPPI    C215740  10.451   0.303   5.401  0.2109  0.0326  0.1242
 1101DPPI    C315741  10.729   0.387   5.126 -0.0024 -0.0513 -0.1219
 1101DPPI   PO415742  10.705   0.682   5.712 -0.1168 -0.1832 -0.0615
 1101DPPI   GL115743  10.702   0.794   6.040 -0.0936 -0.3189 -0.1016
 1101DPPI   GL215744  10.794   0.494   6.146  0.1038  0.1974 -0.0430
 1101DPPI   C1A15745  11.046   1.060   6.176 -0.1045 -0.1164 -0.0520
 1101DPPI   C2A15746  11.084   0.966   6.608  0.0289 -0.0856  0.0217
 1101DPPI   C3A15747  11.207   1.058   7.042 -0.0159 -0.3509 -0.0780
 1101DPPI   C4A15748  11.225   1.110   7.471  0.1175 -0.1356 -0.1624
 1101DPPI   C1B15749  11.073   0.434   6.464  0.0509 -0.1412  0.1191
 1101DPPI   C2B15750  11.044   0.446   6.854 -0.0296 -0.0308 -0.0276
 1101DPPI   C3B15751  11.115   0.620   7.224  0.0704  0.1762 -0.0534
 1101DPPI   C4B15752  11.228   0.563   7.589  0.0217 -0.0275  0.0601
 1102DPPI    C115753  12.260  14.596   5.587  0.2072 -0.0003  0.1466
 1102DPPI    C215754  11.916  14.800   5.605  0.1077 -0.1371 -0.1343
 1102DPPI    C315755  12.122  14.785   5.263  0.0750 -0.5661 -0.1396
 1102DPPI   PO415756  12.465  14.641   5.864 -0.1125 -0.0046  0.1384
 1102DPPI   GL115757  12.406  14.522   6.299 -0.0374  0.0162  0.1261
 1102DPPI   GL215758  12.182  14.318   6.497 -0.0910 -0.1578 -0.0339
 1102DPPI   C1A15759  12.613  14.856   6.557  0.4679  0.0081 -0.0341
 1102DPPI   C2A15760  12.786  14.971   6.955  0.3032  0.1341  0.1938
 1102DPPI   C3A15761  12.724  15.012   7.463  0.0843 -0.1853  0.1164
 1102DPPI   C4A15762  12.731  15.106   7.859 -0.1384  0.1619 -0.0919
 1102DPPI   C1B15763  12.564  14.390   6.789  0.3334 -0.0730  0.2032
 1102DPPI   C2B15764  12.582  14.436   7.231 -0.0640 -0.0017  0.1109
 1102DPPI   C3B15765  12.639  14.491   7.626  0.1292  0.1627  0.2124
 1102DPPI   C4B15766  12.598  14.641   7.996  0.0539 -0.1620 -0.2275
 1103DPPI    C115767   7.518  15.032   5.933  0.1046  0.0223 -0.1108
 1103DPPI    C215768   7.549  14.674   5.757  0.1310  0.1043 -0.2743
 1103DPPI    C315769   7.526  15.005   5.534 -0.1505  0.1859 -0.1288
 1103DPPI   PO415770   7.366  14.975   6.228  0.0487 -0.0196  0.0713
 1103DPPI   GL115771   7.385  15.173   6.600 -0.2527  0.1676  0.0706
 1103DPPI   GL215772   7.681  15.344   6.711 -0.0021  0.0501 -0.1322
 1103DPPI   C1A15773   7.327  14.970   7.013  0.0366 -0.3169  0.0097
 1103DPPI   C2A15774   7.131  14.971   7.367  0.0529  0.2995  0.2626
 1103DPPI   C3A15775   7.086  15.114   7.744 -0.3186  0.1401  0.2887
 1103DPPI   C4A15776   6.853  15.089   8.085 -0.2352  0.0784 -0.2659
 1103DPPI   C1B15777   7.712  15.345   7.224 -0.0520 -0.0621 -0.2624
 1103DPPI   C2B15778   7.615  15.240   7.649  0.1869  0.0632  0.1337
 1103DPPI   C3B15779   7.761  15.273   8.013 -0.1008 -0.1532 -0.5106
 1103DPPI   C4B15780   7.852  15.575   8.396  0.0183  0.2428  0.2088
 1104DPPI    C115781   9.023   1.291   5.696 -0.1490  0.1042  0.0482
 1104DPPI    C215782   8.685   1.498   5.636 -0.0943  0.1638 -0.0600
 1104DPPI    C315783   8.945   1.450   5.336  0.0180  0.1622  0.0369
 1104DPPI   PO415784   9.061   1.278   6.004  0.0833  0.3073  0.1042
 1104DPPI   GL115785   9.195   1.392   6.387  0.2042  0.0757  0.0480
 1104DPPI   GL215786   9.117   1.174   6.578  0.0564 -0.2863  0.1434
 1104DPPI   C1A15787   8.880   1.547   6.733  0.0509 -0.2408  0.2271
 1104DPPI   C2A15788   8.885   1.576   7.184  0.1590  0.3750  0.5414
 1104DPPI   C3A15789   8.861   1.558   7.578 -0.2607  0.0379 -0.0324
 1104DPPI   C4A15790   8.792   1.672   7.945  0.1070 -0.2771 -0.0339
 1104DPPI   C1B15791   9.291   1.283   7.095  0.0447 -0.0862  0.2716
 1104DPPI   C2B15792   9.400   1.271   7.509  0.1918  0.1909 -0.0190
 1104DPPI   C3B15793   9.318   1.407   7.883  0.2230  0.0287  0.1176
 1104DPPI   C4B15794   9.115   1.405   8.295 -0.1201  0.1977 -0.0280
 1105DPPI    C115795  14.780   3.054   5.957 -0.0524 -0.0013 -0.1465
 1105DPPI    C215796  14.961   2.971   5.610 -0.2514 -0.0694 -0.2355
 1105DPPI    C315797  14.696   2.714   5.764  0.0566 -0.1832  0.1199
 1105DPPI   PO415798  14.947   3.229   6.088  0.1405  0.0789  0.0103
 1105DPPI   GL115799  15.072   3.192   6.404  0.0664 -0.1668 -0.2880
 1105DPPI   GL215800  15.391   3.379   6.477  0.0926 -0.1048  0.1114
 1105DPPI   C1A15801  14.797   3.409   6.782 -0.0135  0.1813  0.2646
 1105DPPI   C2A15802  14.775   3.473   7.228  0.0882  0.1082  0.3568
 1105DPPI   C3A15803  15.051   3.471   7.580  0.0184  0.0592  0.1723
 1105DPPI   C4A15804  15.031   3.435   8.045 -0.2009 -0.1705  0.0101
 1105DPPI   C1B15805  15.384   3.282   6.818 -0.1440  0.1620 -0.2120
 1105DPPI   C2B15806  15.218   3.231   7.106 -0.0661 -0.1146 -0.2294
 1105DPPI   C3B15807  15.275   3.056   7.562 -0.1808  0.3628  0.0553
 1105DPPI   C4B15808  15.209   2.908   8.005 -0.2074  0.0739  0.3438
 1106DPPI    C115809   8.159  16.782   6.045  0.0153 -0.0985  0.1222
 1106DPPI    C215810   8.482  16.554   5.985  0.1239  0.1415 -0.2404
 1106DPPI    C315811   8.154  16.500   5.762  0.0012  0.0659 -0.0439
 1106DPPI   PO415812   8.136  16.743   6.276 -0.1262 -0.0859  0.1469
 1106DPPI   GL115813   8.219  16.537   6.657 -0.0367 -0.0868 -0.0015
 1106DPPI   GL215814   7.926  16.445   6.674  0.0302  0.0498  0.0246
 1106DPPI   C1A15815   8.239  16.564   7.064  0.2210  0.1602  0.2328
 1106DPPI   C2A15816   8.158  16.401   7.489 -0.0199 -0.0252 -0.1204
 1106DPPI   C3A15817   8.072  16.271   7.818  0.5228 -0.1885  0.1456
 1106DPPI   C4A15818   7.796  15.980   8.157 -0.1734 -0.3279 -0.0766
 1106DPPI   C1B15819   7.736  16.310   7.179  0.0420  0.0787 -0.1944
 1106DPPI   C2B15820   7.602  16.203   7.582  0.0581 -0.0548 -0.4056
 1106DPPI   C3B15821   7.285  16.128   7.918  0.0162 -0.0363  0.3915
 1106DPPI   C4B15822   7.295  16.172   8.356 -0.2505  0.1797 -0.1567
 1107DPPI    C115823   9.005  10.031   5.696 -0.1270  0.0809 -0.0005
 1107DPPI    C215824   8.644  10.162   5.583 -0.0783  0.1819 -0.0401
 1107DPPI    C315825   8.840   9.895   5.358 -0.2471 -0.0837  0.1230
 1107DPPI   PO415826   9.015  10.005   5.962 -0.3459 -0.1650  0.0124
 1107DPPI   GL115827   8.794   9.855   6.298  0.1515  0.1845 -0.1319
 1107DPPI   GL215828   8.644   9.551   6.372 -0.1428 -0.2035  0.2087
 1107DPPI   C1A15829   8.683   9.942   6.672  0.3225  0.0645  0.2575
 1107DPPI   C2A15830   8.611   9.873   7.067 -0.0288  0.0794  0.0934
 1107DPPI   C3A15831   8.538   9.536   7.426  0.1078 -0.2828  0.2616
 1107DPPI   C4A15832   8.386   9.496   7.778  0.0948 -0.0794  0.0072
 1107DPPI   C1B15833   8.416   9.522   6.699  0.0592 -0.0294  0.2789
 1107DPPI   C2B15834   8.140   9.493   7.095 -0.1044  0.5016 -0.0522
 1107DPPI   C3B15835   7.960   9.336   7.547 -0.0506  0.1300  0.0575
 1107DPPI   C4B15836   8.069   9.318   8.049  0.1275  0.0309 -0.2046
 1108DPPI    C115837  13.408  14.433   5.713 -0.1917 -0.2074 -0.2244
 1108DPPI    C215838  13.794  14.349   5.649 -0.1142  0.0557 -0.1162
 1108DPPI    C315839  13.510  14.146   5.454  0.0834 -0.0017 -0.3492
 1108DPPI   PO415840  13.405  14.484   6.007  0.0213 -0.2593  0.0992
 1108DPPI   GL115841  13.525  14.509   6.396 -0.0670  0.2726  0.1547
 1108DPPI   GL215842  13.652  14.788   6.496  0.3182  0.2606  0.0141
 1108DPPI   C1A15843  13.346  14.239   6.692 -0.1292  0.1606 -0.2334
 1108DPPI   C2A15844  13.371  14.232   7.123  0.1884  0.0734  0.1054
 1108DPPI   C3A15845  13.347  14.227   7.588  0.3494  0.0109 -0.2092
 1108DPPI   C4A15846  13.400  14.106   8.018 -0.2891 -0.2042 -0.1207
 1108DPPI   C1B15847  13.569  14.709   6.925  0.1375  0.2447 -0.1783
 1108DPPI   C2B15848  13.587  14.730   7.347  0.1157  0.2476 -0.0626
 1108DPPI   C3B15849  13.564  14.617   7.832 -0.0534  0.0641  0.2848
 1108DPPI   C4B15850  13.665  14.450   8.250 -0.2637 -0.1944  0.2106
 1109DPPI    C115851   5.212   2.296   6.126  0.1687  0.2994  0.0875
 1109DPPI    C215852   5.404   2.527   5.862  0.1266  0.1430 -0.0825
 1109DPPI    C315853   5.479   2.134   5.875 -0.0774  0.1038 -0.0535
 1109DPPI   PO415854   5.286   2.423   6.322 -0.0095  0.0724 -0.0228
 1109DPPI   GL115855   5.541   2.595   6.706 -0.1163 -0.1483  0.0612
 1109DPPI   GL215856   5.484   2.178   6.736 -0.2316 -0.1849 -0.1635
 1109DPPI   C1A15857   5.730   2.622   6.998  0.3459 -0.0951 -0.4112
 1109DPPI   C2A15858   5.688   2.654   7.452 -0.1398  0.3119 -0.0501
 1109DPPI   C3A15859   5.604   2.682   7.839 -0.2296  0.0009  0.1372
 1109DPPI   C4A15860   5.686   2.679   8.228  0.1943  0.0698 -0.2110
 1109DPPI   C1B15861   5.519   2.203   7.239 -0.1096 -0.1446 -0.0823
 1109DPPI   C2B15862   5.474   2.173   7.714 -0.1962 -0.4333  0.5679
 1109DPPI   C3B15863   5.467   2.246   8.148 -0.3104  0.1349  0.2594
 1109DPPI   C4B15864   5.176   2.357   8.527  0.2986  0.1905  0.1666
 1110DPPI    C115865   0.955   9.875   5.988 -0.1339  0.0246  0.1517
 1110DPPI    C215866   1.028   9.711   5.630 -0.3096 -0.1120  0.1772
 1110DPPI    C315867   0.744   9.990   5.668 -0.1495  0.0538  0.1724
 1110DPPI   PO415868   1.038   9.693   6.148  0.2124 -0.1887  0.0289
 1110DPPI   GL115869   0.811   9.346   6.361 -0.0947 -0.1005  0.0036
 1110DPPI   GL215870   0.952   9.026   6.416  0.1255 -0.3375  0.1816
 1110DPPI   C1A15871   0.759   9.430   6.774  0.1258 -0.0145 -0.2047
 1110DPPI   C2A15872   0.556   9.296   7.140  0.3149  0.0841 -0.1339
 1110DPPI   C3A15873   0.803   9.300   7.576  0.1312 -0.1697  0.3519
 1110DPPI   C4A15874   0.910   9.409   7.977 -0.2058  0.1694 -0.0070
 1110DPPI   C1B15875   1.281   9.055   6.838  0.2883  0.1380  0.3815
 1110DPPI   C2B15876   1.662   9.127   7.035 -0.1772 -0.3213  0.1951
 1110DPPI   C3B15877   1.904   9.345   7.234  0.0831 -0.3164 -0.0139
 1110DPPI   C4B15878   2.333   9.350   7.052 -0.3018  0.1120  0.0701
 1111DPPI    C115879   4.518   2.759   6.424  0.1079 -0.0509  0.0918
 1111DPPI    C215880   4.810   2.603   6.199  0.0903  0.0150  0.0230
 1111DPPI    C315881   4.427   2.526   6.112  0.0819  0.0848 -0.0028
 1111DPPI   PO415882   4.561   3.013   6.401  0.1482 -0.0807 -0.0995
 1111DPPI   GL115883   4.510   3.263   6.604  0.3517 -0.0345  0.1151
 1111DPPI   GL215884   4.723   3.064   6.880 -0.1225  0.2947 -0.2399
 1111DPPI   C1A15885   4.512   3.476   6.976  0.2200  0.0734  0.0145
 1111DPPI   C2A15886   4.510   3.490   7.452  0.1496  0.0352  0.0193
 1111DPPI   C3A15887   4.403   3.574   7.889 -0.0224  0.0755  0.0763
 1111DPPI   C4A15888   4.406   3.531   8.307 -0.1038  0.1162 -0.0945
 1111DPPI   C1B15889   4.734   3.089   7.317  0.1436 -0.3639 -0.1276
 1111DPPI   C2B15890   4.708   3.166   7.797 -0.0756  0.1335  0.0664
 1111DPPI   C3B15891   4.568   3.040   8.250 -0.2360 -0.3472  0.2597
 1111DPPI   C4B15892   4.801   2.697   8.551 -0.2974 -0.2506  0.0824
 1112DPPI    C115893   5.120  15.710   6.352  0.1509 -0.1533 -0.0450
 1112DPPI    C215894   4.992  16.042   6.170 -0.1847 -0.2766 -0.0408
 1112DPPI    C315895   4.953  15.687   5.990 -0.0648 -0.3443  0.0641
 1112DPPI   PO415896   5.188  15.853   6.583  0.0834  0.2772 -0.1279
 1112DPPI   GL115897   5.176  15.626   7.065 -0.1283  0.1177  0.0687
 1112DPPI   GL215898   5.517  15.834   7.253  0.0160  0.1535 -0.0799
 1112DPPI   C1A15899   5.082  15.766   7.463 -0.1540 -0.0979 -0.2312
 1112DPPI   C2A15900   5.104  15.596   7.897 -0.1575 -0.0945 -0.1812
 1112DPPI   C3A15901   5.133  15.493   8.339  0.0421 -0.1273  0.2425
 1112DPPI   C4A15902   5.411  15.393   8.692 -0.1854 -0.2007 -0.3025
 1112DPPI   C1B15903   5.501  15.816   7.700 -0.0542  0.0040 -0.2499
 1112DPPI   C2B15904   5.443  15.826   8.171  0.2340  0.0682  0.1597
 1112DPPI   C3B15905   4.976  15.985   8.395 -0.1082  0.3204  0.1652
 1112DPPI   C4B15906   4.522  16.003   8.403  0.0307  0.0217  0.1207
 1113DPPI    C115907   1.958   0.493   6.082 -0.4487  0.1906 -0.1740
 1113DPPI    C215908   1.753   0.517   5.739 -0.0226 -0.0214 -0.4534
 1113DPPI    C315909   2.150   0.467   5.731 -0.0064 -0.0308  0.0754
 1113DPPI   PO415910   1.820   0.397   6.240  0.1071 -0.0047  0.1374
 1113DPPI   GL115911   1.936   0.379   6.724 -0.2921  0.0094 -0.0301
 1113DPPI   GL215912   2.200   0.199   6.845 -0.1907 -0.1598  0.0754
 1113DPPI   C1A15913   1.866   0.379   7.120  0.1639 -0.1157  0.2122
 1113DPPI   C2A15914   1.855   0.392   7.618  0.1123  0.2621  0.0821
 1113DPPI   C3A15915   1.756   0.340   8.006  0.1729 -0.0348 -0.1619
 1113DPPI   C4A15916   1.512   0.398   8.375 -0.0915 -0.1420  0.0935
 1113DPPI   C1B15917   2.273   0.212   7.324  0.4496  0.0607  0.0741
 1113DPPI   C2B15918   2.307   0.221   7.697 -0.0254  0.3822 -0.1809
 1113DPPI   C3B15919   2.425   0.388   8.087 -0.0491 -0.1386  0.2986
 1113DPPI   C4B15920   2.706   0.315   8.426 -0.1319 -0.0358  0.2274
 1114DPPI    C115921   3.059   3.669   6.100  0.0194 -0.0389  0.0168
 1114DPPI    C215922   2.724   3.713   5.886  0.0514  0.0523 -0.0151
 1114DPPI    C315923   2.942   3.379   5.850  0.0854  0.0902 -0.1656
 1114DPPI   PO415924   3.121   3.963   6.189  0.2033  0.0483  0.1217
 1114DPPI   GL115925   3.349   3.983   6.550  0.0912 -0.0631 -0.1911
 1114DPPI   GL215926   3.512   3.655   6.402  0.2400  0.1916  0.0190
 1114DPPI   C1A15927   3.141   3.962   6.961 -0.0579  0.0407  0.2300
 1114DPPI   C2A15928   3.202   3.969   7.420 -0.1657  0.0333 -0.0631
 1114DPPI   C3A15929   3.041   3.999   7.839  0.2522  0.0596 -0.0963
 1114DPPI   C4A15930   2.812   3.937   8.200 -0.0280 -0.3940  0.1028
 1114DPPI   C1B15931   3.378   3.460   6.757 -0.1912  0.0463  0.2240
 1114DPPI   C2B15932   3.380   3.521   7.218 -0.0725 -0.1392 -0.0417
 1114DPPI   C3B15933   3.412   3.464   7.662 -0.0867 -0.0207 -0.0769
 1114DPPI   C4B15934   3.252   3.602   8.038 -0.2388  0.0037 -0.0170
 1115DPPI    C115935  11.446  15.094   5.980 -0.1258  0.0031 -0.0299
 1115DPPI    C215936  11.447  15.001   5.591  0.1734 -0.2253  0.0220
 1115DPPI    C315937  11.111  14.964   5.805 -0.0474  0.1035 -0.2578
 1115DPPI   PO415938  11.700  14.963   6.095  0.0668 -0.1536  0.0246
 1115DPPI   GL115939  11.846  15.235   6.359 -0.1558 -0.0362 -0.1630
 1115DPPI   GL215940  11.554  15.275   6.503 -0.1940  0.0464  0.2141
 1115DPPI   C1A15941  12.199  15.211   6.589  0.2002  0.0315 -0.1632
 1115DPPI   C2A15942  12.406  15.299   6.788  0.0993 -0.0118 -0.0528
 1115DPPI   C3A15943  12.455  15.403   7.159  0.1620  0.2086  0.0774
 1115DPPI   C4A15944  12.486  15.463   7.604 -0.2222  0.0756 -0.0474
 1115DPPI   C1B15945  11.738  15.237   6.881 -0.2519  0.1443  0.1412
 1115DPPI   C2B15946  11.850  15.242   7.328 -0.0725 -0.0435 -0.1748
 1115DPPI   C3B15947  11.779  15.462   7.729  0.2524 -0.1635 -0.2848
 1115DPPI   C4B15948  11.736  15.542   8.127 -0.1110  0.0858 -0.0178
 1116DPPI    C115949  11.185  14.142   5.966 -0.0020 -0.0346  0.0812
 1116DPPI    C215950  10.804  14.190   6.077  0.0299  0.1096  0.1302
 1116DPPI    C315951  10.890  14.008   5.731 -0.0905  0.2668  0.0157
 1116DPPI   PO415952  11.299  14.079   6.122  0.0387 -0.3349 -0.2049
 1116DPPI   GL115953  11.132  14.201   6.479  0.0244 -0.2781 -0.1558
 1116DPPI   GL215954  10.923  14.012   6.616  0.3858 -0.2618 -0.0017
 1116DPPI   C1A15955  11.207  14.417   6.792 -0.0456  0.2025 -0.3013
 1116DPPI   C2A15956  11.202  14.459   7.170 -0.2786  0.0654  0.1722
 1116DPPI   C3A15957  11.135  14.543   7.566  0.0754 -0.0448 -0.5487
 1116DPPI   C4A15958  11.018  14.840   7.814  0.1795 -0.1815  0.3198
 1116DPPI   C1B15959  10.927  14.012   6.986 -0.0522  0.1686 -0.1053
 1116DPPI   C2B15960  11.079  14.007   7.469  0.2090 -0.0618 -0.0472
 1116DPPI   C3B15961  11.104  14.133   7.869 -0.0623  0.0634  0.0974
 1116DPPI   C4B15962  11.244  14.124   8.389 -0.0893 -0.0708 -0.0834
 1117DPPI    C115963   8.142  11.934   5.824 -0.1379  0.1866  0.0385
 1117DPPI    C215964   8.024  11.648   6.077  0.0355  0.0794  0.0003
 1117DPPI    C315965   7.895  11.646   5.698 -0.0391  0.1071  0.0252
 1117DPPI   PO415966   8.384  11.968   5.946 -0.1855 -0.2423 -0.0009
 1117DPPI   GL115967   8.460  11.908   6.335  0.0008  0.1763 -0.2020
 1117DPPI   GL215968   8.416  11.590   6.345  0.3373  0.1119 -0.0879
 1117DPPI   C1A15969   8.752  11.637   6.724  0.2702 -0.3170  0.1785
 1117DPPI   C2A15970   8.905  11.310   6.898 -0.3241 -0.0727  0.1893
 1117DPPI   C3A15971   9.031  11.283   7.318  0.0909  0.0593 -0.1577
 1117DPPI   C4A15972   9.172  10.984   7.572  0.0645  0.1251  0.0267
 1117DPPI   C1B15973   8.266  11.559   6.815 -0.0487 -0.0050 -0.1086
 1117DPPI   C2B15974   8.130  11.540   7.263  0.1284 -0.1103 -0.1102
 1117DPPI   C3B15975   8.089  11.512   7.713  0.1278 -0.0882 -0.1398
 1117DPPI   C4B15976   8.366  11.503   8.061  0.2944 -0.0381 -0.1435
 1118DPPI    C115977  16.974   0.206   6.030 -0.1096 -0.2398 -0.0189
 1118DPPI    C215978  16.849   0.528   5.828  0.0340 -0.0934  0.1217
 1118DPPI    C315979  16.890   0.177   5.640 -0.0816 -0.0202 -0.0428
 1118DPPI   PO415980  16.935   0.263   6.327 -0.2494  0.1002 -0.1021
 1118DPPI   GL115981  17.003   0.210   6.735 -0.0070  0.1105 -0.1977
 1118DPPI   GL215982  17.127  -0.088   6.731 -0.3420  0.0648 -0.3139
 1118DPPI   C1A15983  17.276   0.400   6.956  0.0663  0.1847  0.1777
 1118DPPI   C2A15984  17.521   0.276   7.343  0.1004  0.1279 -0.1840
 1118DPPI   C3A15985  17.727   0.106   7.772 -0.0923 -0.0763 -0.0291
 1118DPPI   C4A15986  17.688  -0.068   8.246  0.2340 -0.0115 -0.2952
 1118DPPI   C1B15987  17.170  -0.063   7.157  0.0382  0.0801 -0.2552
 1118DPPI   C2B15988  17.165  -0.022   7.561  0.0677  0.1752 -0.2056
 1118DPPI   C3B15989  17.253   0.054   7.946 -0.3584 -0.1098  0.0020
 1118DPPI   C4B15990  17.269   0.260   8.359 -0.2116 -0.1041  0.0275
 1119DPPI    C115991   5.546   5.813   5.700  0.0470  0.0617 -0.1740
 1119DPPI    C215992   5.477   6.064   6.004  0.0991 -0.0360 -0.0807
 1119DPPI    C315993   5.176   5.952   5.764  0.0036 -0.1689  0.0983
 1119DPPI   PO415994   5.619   5.599   5.805  0.0955 -0.1296  0.1046
 1119DPPI   GL115995   5.728   5.613   6.291 -0.0957  0.0425  0.1242
 1119DPPI   GL215996   5.879   5.366   6.331  0.1288  0.0238  0.2270
 1119DPPI   C1A15997   5.856   5.807   6.692  0.3726 -0.0755 -0.2500
 1119DPPI   C2A15998   5.901   5.754   7.140  0.1155  0.2902  0.0945
 1119DPPI   C3A15999   5.777   5.670   7.532 -0.0298  0.0371 -0.1170
 1119DPPI   C4A16000   5.855   5.763   7.983  0.2169 -0.2320  0.0317
 1119DPPI   C1B16001   5.885   5.321   6.706  0.5273 -0.1113 -0.0811
 1119DPPI   C2B16002   5.910   5.233   7.133  0.1159  0.1663 -0.0671
 1119DPPI   C3B16003   5.876   5.173   7.603  0.1613  0.0128  0.1205
 1119DPPI   C4B16004   5.953   5.312   7.989  0.1164 -0.1878 -0.0182
 1120DPPI    C116005  15.254   9.471   5.614 -0.0587 -0.0533 -0.2195
 1120DPPI    C216006  15.143   9.192   5.350 -0.0953  0.0835 -0.3498
 1120DPPI    C316007  15.423   9.460   5.252  0.0311  0.0154 -0.1797
 1120DPPI   PO416008  15.229   9.350   5.857  0.0910 -0.0672 -0.2005
 1120DPPI   GL116009  15.416   9.454   6.259 -0.0937 -0.1600  0.0476
 1120DPPI   GL216010  15.601   9.223   6.481  0.1416  0.1286  0.4071
 1120DPPI   C1A16011  15.229   9.678   6.570 -0.1146  0.0557  0.2046
 1120DPPI   C2A16012  15.255   9.745   7.058  0.2262 -0.1684 -0.1800
 1120DPPI   C3A16013  15.249   9.753   7.557  0.0811  0.1024  0.1326
 1120DPPI   C4A16014  15.363  10.170   7.779 -0.0307  0.1316  0.2502
 1120DPPI   C1B16015  15.441   9.280   6.863  0.1501 -0.2995  0.0585
 1120DPPI   C2B16016  15.476   9.382   7.326  0.2591 -0.1063 -0.0396
 1120DPPI   C3B16017  15.438   9.335   7.776 -0.0211  0.2470  0.2484
 1120DPPI   C4B16018  15.354   9.353   8.138 -0.1289  0.1226  0.1159
 1121DPPI    C116019  16.893   5.824   6.086 -0.2136  0.0748  0.0492
 1121DPPI    C216020  16.775   5.697   5.725 -0.0556 -0.2577  0.1100
 1121DPPI    C316021  16.736   6.083   5.824  0.0399 -0.1327 -0.3179
 1121DPPI   PO416022  17.140   5.789   6.123 -0.1829  0.1426  0.0426
 1121DPPI   GL116023  17.241   5.714   6.578 -0.0680  0.0425  0.4304
 1121DPPI   GL216024  17.247   6.035   6.539 -0.0716  0.0853 -0.0678
 1121DPPI   C1A16025  16.996   5.618   6.981  0.0947 -0.2146  0.0792
 1121DPPI   C2A16026  17.044   5.608   7.520 -0.2181  0.2324 -0.0455
 1121DPPI   C3A16027  16.838   5.648   7.888 -0.0614 -0.0935 -0.4481
 1121DPPI   C4A16028  16.871   6.034   8.228  0.0460 -0.0378  0.1245
 1121DPPI   C1B16029  17.060   6.138   6.904 -0.1776  0.2720 -0.0400
 1121DPPI   C2B16030  16.914   6.120   7.330 -0.1727  0.0612 -0.2721
 1121DPPI   C3B16031  16.578   5.998   7.630  0.0952 -0.1624  0.1761
 1121DPPI   C4B16032  16.319   6.127   7.990 -0.1371 -0.2594  0.2204
 1122DPPI    C116033   5.356   7.893   5.836 -0.1593 -0.3441 -0.0763
 1122DPPI    C216034   5.133   7.876   5.504  0.0600  0.1121 -0.2562
 1122DPPI    C316035   5.221   8.230   5.667  0.1245 -0.0973  0.1782
 1122DPPI   PO416036   5.287   7.681   5.968 -0.0564  0.1331  0.2452
 1122DPPI   GL116037   5.009   7.678   6.314  0.2668 -0.0232 -0.0624
 1122DPPI   GL216038   4.791   7.612   6.301 -0.3457  0.1084  0.0380
 1122DPPI   C1A16039   4.928   7.948   6.714  0.3552  0.1136  0.0374
 1122DPPI   C2A16040   4.740   8.051   7.024 -0.0264 -0.2690  0.0759
 1122DPPI   C3A16041   4.806   7.914   7.372  0.0040 -0.0512  0.1952
 1122DPPI   C4A16042   4.849   7.889   7.859 -0.3660 -0.1274 -0.4407
 1122DPPI   C1B16043   4.927   7.459   6.735 -0.0452 -0.1321 -0.4028
 1122DPPI   C2B16044   4.936   7.480   7.115 -0.0449 -0.2862 -0.3193
 1122DPPI   C3B16045   4.827   7.417   7.505 -0.0912 -0.2510  0.1782
 1122DPPI   C4B16046   4.920   7.430   7.985  0.0863  0.0188 -0.0436
 1123DPPI    C116047   8.997  16.992   6.070  0.1853  0.0281 -0.1402
 1123DPPI    C216048   8.681  17.052   5.832  0.0067  0.1659  0.1269
 1123DPPI    C316049   9.049  17.132   5.699 -0.0802  0.1249 -0.1435
 1123DPPI   PO416050   9.012  17.159   6.290  0.2808  0.0771  0.2332
 1123DPPI   GL116051   8.765  17.209   6.641 -0.2602  0.0326 -0.2334
 1123DPPI   GL216052   8.618  17.454   6.836  0.0751  0.0947  0.0940
 1123DPPI   C1A16053   8.908  17.166   7.055 -0.2489  0.2183  0.0531
 1123DPPI   C2A16054   8.714  17.243   7.522 -0.1637 -0.4090  0.0443
 1123DPPI   C3A16055   8.847  17.124   7.953 -0.1911  0.0771  0.1683
 1123DPPI   C4A16056   8.581  16.986   8.253  0.0814  0.0924 -0.0223
 1123DPPI   C1B16057   8.708  17.673   7.251  0.0197  0.2826  0.1449
 1123DPPI   C2B16058   8.994  17.704   7.708 -0.1510 -0.2199 -0.1866
 1123DPPI   C3B16059   9.114  17.672   8.097  0.1692  0.1548 -0.0909
 1123DPPI   C4B16060   9.368  17.665   8.569  0.0160  0.1005  0.2457
 1124DPPI    C116061   3.846  17.501   5.660  0.0407 -0.1642  0.1575
 1124DPPI    C216062   3.704  17.223   5.410  0.0262 -0.1484  0.1479
 1124DPPI    C316063   3.994  17.470   5.289 -0.1643  0.0342  0.0564
 1124DPPI   PO416064   3.704  17.499   5.785 -0.1197  0.0913 -0.2145
 1124DPPI   GL116065   3.506  17.513   6.171 -0.1308 -0.0908  0.1969
 1124DPPI   GL216066   3.252  17.663   6.294 -0.0116 -0.3218  0.3428
 1124DPPI   C1A16067   3.409  17.379   6.671  0.0136 -0.0385 -0.1518
 1124DPPI   C2A16068   3.307  17.167   7.092  0.2207 -0.2041  0.0724
 1124DPPI   C3A16069   3.313  17.136   7.621  0.0680  0.1097  0.0824
 1124DPPI   C4A16070   3.401  17.019   8.105  0.1988  0.1205  0.0689
 1124DPPI   C1B16071   3.445  17.884   6.629 -0.0506 -0.1123  0.0695
 1124DPPI   C2B16072   3.320  18.090   6.990 -0.3217  0.0289 -0.4040
 1124DPPI   C3B16073   3.114  18.055   7.278  0.0974 -0.1937  0.1857
 1124DPPI   C4B16074   2.765  18.175   7.557 -0.0904  0.0113  0.0424
 1125DPPI    C116075   9.727   2.795   6.013 -0.2348 -0.0959  0.0030
 1125DPPI    C216076   9.518   3.023   5.759  0.0091 -0.0318 -0.1427
 1125DPPI    C316077   9.826   2.805   5.626  0.0739 -0.0791  0.0802
 1125DPPI   PO416078   9.757   2.935   6.235  0.1155  0.0063  0.0182
 1125DPPI   GL116079   9.743   2.869   6.641 -0.0611 -0.1291 -0.0953
 1125DPPI   GL216080   9.532   3.092   6.689  0.4077 -0.0721  0.3208
 1125DPPI   C1A16081   9.901   2.992   7.082  0.1955  0.1025  0.0090
 1125DPPI   C2A16082   9.953   3.072   7.495  0.1598  0.0102  0.2280
 1125DPPI   C3A16083  10.162   3.110   7.865 -0.1710 -0.3430  0.0552
 1125DPPI   C4A16084  10.096   3.291   8.359 -0.4116  0.3178 -0.2401
 1125DPPI   C1B16085   9.427   3.217   7.134 -0.2442  0.0633  0.0418
 1125DPPI   C2B16086   9.192   3.153   7.410  0.1572  0.1491 -0.0744
 1125DPPI   C3B16087   8.970   3.129   7.861 -0.6088  0.0451  0.1591
 1125DPPI   C4B16088   9.053   3.459   8.290  0.2847 -0.0346 -0.0397
 1126DPPI    C116089  10.037   5.923   5.905  0.2473 -0.1329  0.2954
 1126DPPI    C216090  10.247   6.223   5.743 -0.2021  0.0489  0.0309
 1126DPPI    C316091   9.978   6.025   5.523 -0.0820 -0.3958  0.2716
 1126DPPI   PO416092  10.283   5.715   6.021 -0.0321 -0.0639 -0.0026
 1126DPPI   GL116093  10.305   5.305   6.093 -0.2222  0.0922  0.1333
 1126DPPI   GL216094  10.083   5.087   6.160  0.1975  0.1743 -0.0266
 1126DPPI   C1A16095  10.433   5.162   6.501  0.2840 -0.0442 -0.1230
 1126DPPI   C2A16096  10.499   4.997   6.939 -0.0974  0.0854  0.0569
 1126DPPI   C3A16097  10.533   4.838   7.341 -0.1586  0.2684 -0.1432
 1126DPPI   C4A16098  10.491   4.750   7.748 -0.0150 -0.3624 -0.1876
 1126DPPI   C1B16099   9.892   5.040   6.557 -0.1448 -0.0253  0.1886
 1126DPPI   C2B16100   9.970   4.951   6.900  0.1103  0.0309 -0.0264
 1126DPPI   C3B16101  10.096   5.074   7.329 -0.0135 -0.1558 -0.0162
 1126DPPI   C4B16102   9.954   5.125   7.737 -0.2430 -0.1510 -0.1100
 1127DPPI    C116103   4.101  17.224   6.072  0.3459 -0.3726  0.0867
 1127DPPI    C216104   3.844  17.012   5.850 -0.0762  0.3571 -0.1567
 1127DPPI    C316105   4.176  17.161   5.684  0.1650 -0.0036 -0.0123
 1127DPPI   PO416106   4.040  17.362   6.146 -0.1097  0.1150  0.2210
 1127DPPI   GL116107   3.883  17.434   6.518  0.1651  0.1195  0.1509
 1127DPPI   GL216108   3.981  17.774   6.646 -0.1573 -0.0101 -0.1777
 1127DPPI   C1A16109   4.003  17.255   6.898  0.0125  0.1087  0.0373
 1127DPPI   C2A16110   4.139  17.232   7.329  0.0525  0.1009  0.0074
 1127DPPI   C3A16111   4.421  17.168   7.658  0.0698 -0.2692  0.2002
 1127DPPI   C4A16112   4.486  17.230   8.023 -0.0286  0.2317 -0.1072
 1127DPPI   C1B16113   3.689  17.686   6.970 -0.0957  0.1211 -0.0950
 1127DPPI   C2B16114   3.700  17.479   7.348 -0.0661 -0.0648  0.3720
 1127DPPI   C3B16115   3.730  17.715   7.813 -0.1799  0.2569  0.1576
 1127DPPI   C4B16116   3.891  18.108   7.874  0.0358  0.1835 -0.1285
 1128DPPI    C116117  16.299  10.533   5.695 -0.2479  0.0759  0.1118
 1128DPPI    C216118  16.577  10.252   5.754 -0.0051  0.3174  0.1331
 1128DPPI    C316119  16.553  10.438   5.401 -0.1942  0.2397  0.1043
 1128DPPI   PO416120  16.363  10.636   5.980  0.0868 -0.0646  0.2895
 1128DPPI   GL116121  16.599  10.545   6.241 -0.1910 -0.0852 -0.3335
 1128DPPI   GL216122  16.753  10.858   6.389 -0.3918 -0.0631  0.2295
 1128DPPI   C1A16123  16.520  10.570   6.731  0.0831  0.3779 -0.1282
 1128DPPI   C2A16124  16.502  10.838   7.082 -0.1116 -0.0209 -0.0807
 1128DPPI   C3A16125  16.373  10.723   7.466 -0.1421  0.1911 -0.0241
 1128DPPI   C4A16126  16.454  10.759   7.927 -0.7152  0.1021  0.1938
 1128DPPI   C1B16127  16.537  11.166   6.687 -0.1709 -0.0440  0.0739
 1128DPPI   C2B16128  16.358  11.364   6.967 -0.1648 -0.1026  0.1281
 1128DPPI   C3B16129  16.298  11.499   7.414 -0.3642  0.2481  0.1034
 1128DPPI   C4B16130  16.497  11.211   7.739  0.1537  0.3304  0.0236
 1129DPPI    C116131   2.786   8.017   5.705  0.2442 -0.1575 -0.1544
 1129DPPI    C216132   2.852   8.358   5.506 -0.0679 -0.0205 -0.0312
 1129DPPI    C316133   2.548   8.121   5.400 -0.2309  0.0486  0.2714
 1129DPPI   PO416134   3.064   8.089   5.918  0.1126  0.1135 -0.0400
 1129DPPI   GL116135   3.069   7.880   6.296 -0.1111  0.2466  0.2570
 1129DPPI   GL216136   3.334   8.130   6.305 -0.0269 -0.0565  0.0793
 1129DPPI   C1A16137   2.931   7.860   6.718  0.1869 -0.0863  0.1704
 1129DPPI   C2A16138   2.960   7.780   7.151 -0.1105  0.0536 -0.1872
 1129DPPI   C3A16139   2.883   7.734   7.494 -0.1258  0.1441  0.1827
 1129DPPI   C4A16140   3.103   7.661   7.873 -0.0240 -0.2138 -0.1018
 1129DPPI   C1B16141   3.451   8.093   6.807  0.3278 -0.2344 -0.0573
 1129DPPI   C2B16142   3.439   8.110   7.226  0.0734  0.0507 -0.0734
 1129DPPI   C3B16143   3.482   8.152   7.701  0.1550  0.2473  0.1855
 1129DPPI   C4B16144   3.587   8.098   8.105 -0.1526 -0.0465 -0.3522
 1130DPPI    C116145  10.505  12.439   6.281  0.2649  0.0455  0.0102
 1130DPPI    C216146  10.765  12.183   6.117  0.2442 -0.0321  0.0983
 1130DPPI    C316147  10.388  12.069   6.186  0.2307  0.0273  0.1224
 1130DPPI   PO416148  10.652  12.751   6.389  0.2762  0.1164 -0.3655
 1130DPPI   GL116149  10.836  12.675   6.678  0.0188 -0.0067  0.1782
 1130DPPI   GL216150  11.001  12.462   6.613 -0.0345 -0.0423  0.2609
 1130DPPI   C1A16151  10.938  12.698   7.152 -0.2006  0.2689  0.0573
 1130DPPI   C2A16152  10.885  12.593   7.543 -0.3660  0.2536 -0.0158
 1130DPPI   C3A16153  11.124  12.610   7.921  0.2028 -0.0146  0.0302
 1130DPPI   C4A16154  11.233  12.507   8.375  0.0706 -0.1189  0.1179
 1130DPPI   C1B16155  11.004  12.254   6.912  0.3895  0.3091  0.1423
 1130DPPI   C2B16156  11.110  12.215   7.259 -0.1238 -0.1266 -0.3207
 1130DPPI   C3B16157  11.108  12.051   7.658  0.2090  0.0138  0.0318
 1130DPPI   C4B16158  11.121  11.954   8.029  0.0675 -0.1364 -0.0567
 1131DPPI    C116159  16.604   9.176   5.369 -0.1354  0.1073  0.0469
 1131DPPI    C216160  16.455   8.917   5.635  0.0762  0.0466  0.1091
 1131DPPI    C316161  16.478   8.816   5.249  0.0975 -0.0019  0.1230
 1131DPPI   PO416162  16.696   9.387   5.658  0.0134 -0.0173 -0.1002
 1131DPPI   GL116163  16.420   9.355   6.028 -0.0300  0.0979 -0.1097
 1131DPPI   GL216164  16.512   9.018   6.141 -0.0401 -0.0393 -0.2071
 1131DPPI   C1A16165  16.380   9.563   6.392 -0.1821 -0.1534  0.1795
 1131DPPI   C2A16166  16.266   9.586   6.810  0.0808 -0.2756  0.6981
 1131DPPI   C3A16167  16.264   9.683   7.242 -0.0537 -0.1509 -0.1625
 1131DPPI   C4A16168  16.138   9.852   7.673  0.0665 -0.1404 -0.0229
 1131DPPI   C1B16169  16.137   9.077   6.388 -0.0920  0.1791 -0.2655
 1131DPPI   C2B16170  16.008   9.107   6.793  0.0341  0.1387  0.2947
 1131DPPI   C3B16171  15.903   9.222   7.124 -0.1793  0.2468  0.2964
 1131DPPI   C4B16172  15.921   9.233   7.499  0.1779 -0.1205 -0.2149
 1132DPPI    C116173   5.991  11.968   5.713 -0.0615 -0.1976 -0.1375
 1132DPPI    C216174   5.760  12.295   5.721  0.0948 -0.0828 -0.2643
 1132DPPI    C316175   5.717  12.026   5.428 -0.1893 -0.2923 -0.0350
 1132DPPI   PO416176   6.032  11.908   5.995  0.0577 -0.1670  0.0666
 1132DPPI   GL116177   5.920  11.750   6.405  0.0881  0.1979 -0.0206
 1132DPPI   GL216178   6.094  11.860   6.632  0.0254 -0.0098  0.1338
 1132DPPI   C1A16179   5.749  11.503   6.767  0.1002  0.2350  0.3936
 1132DPPI   C2A16180   5.564  11.403   7.124  0.0568 -0.0715  0.1899
 1132DPPI   C3A16181   5.517  11.389   7.545  0.2869 -0.2249 -0.2174
 1132DPPI   C4A16182   5.410  11.276   7.961 -0.1185 -0.3715  0.0842
 1132DPPI   C1B16183   6.257  11.956   7.049 -0.0342  0.0676 -0.0597
 1132DPPI   C2B16184   6.244  11.952   7.567 -0.1357  0.0795  0.0141
 1132DPPI   C3B16185   6.228  11.861   7.991  0.1865  0.1353  0.0321
 1132DPPI   C4B16186   6.279  12.051   8.392  0.0191 -0.1188  0.2160
 1133DPPI    C116187   6.689   0.324   5.968 -0.0608  0.1738  0.1479
 1133DPPI    C216188   6.320   0.338   5.813  0.0178 -0.0101 -0.0605
 1133DPPI    C316189   6.631   0.242   5.581  0.1509 -0.1985  0.1914
 1133DPPI   PO416190   6.667   0.257   6.152  0.1704  0.1413 -0.1340
 1133DPPI   GL116191   6.401   0.403   6.472 -0.2061  0.1839 -0.1724
 1133DPPI   GL216192   6.226   0.599   6.656  0.1457  0.0658  0.0865
 1133DPPI   C1A16193   6.478   0.082   6.829 -0.0300 -0.1359 -0.1009
 1133DPPI   C2A16194   6.604   0.261   7.233 -0.1355 -0.0273 -0.2409
 1133DPPI   C3A16195   6.498   0.496   7.620 -0.4133 -0.0624  0.1551
 1133DPPI   C4A16196   6.501   0.547   8.087 -0.0755 -0.1346 -0.0239
 1133DPPI   C1B16197   6.297   0.613   7.045  0.2274  0.2369  0.1733
 1133DPPI   C2B16198   6.274   0.880   7.332 -0.4467  0.2273  0.0236
 1133DPPI   C3B16199   6.392   0.964   7.767 -0.1981  0.1282  0.1292
 1133DPPI   C4B16200   6.738   1.049   8.068 -0.0961  0.0506  0.1314
 1134DPPI    C116201   8.882  13.967   5.866  0.0744 -0.0565  0.1801
 1134DPPI    C216202   8.535  14.146   5.781  0.1161 -0.0036  0.1199
 1134DPPI    C316203   8.568  13.748   5.754 -0.0446 -0.0452  0.4817
 1134DPPI   PO416204   8.916  14.165   6.128  0.1694  0.3487  0.0437
 1134DPPI   GL116205   9.226  14.223   6.476 -0.1563 -0.0746  0.2821
 1134DPPI   GL216206   9.164  14.472   6.581 -0.0987  0.0384  0.0301
 1134DPPI   C1A16207   9.354  14.126   6.839 -0.0098 -0.0171 -0.3156
 1134DPPI   C2A16208   9.615  14.236   7.186 -0.0229 -0.0923 -0.0474
 1134DPPI   C3A16209   9.697  14.498   7.529  0.1000 -0.0287  0.1029
 1134DPPI   C4A16210   9.930  14.862   7.680 -0.2419  0.1055 -0.2119
 1134DPPI   C1B16211   9.362  14.766   6.890 -0.0549  0.2508  0.0021
 1134DPPI   C2B16212   9.558  14.951   7.308 -0.1222 -0.0985  0.3067
 1134DPPI   C3B16213   9.443  15.021   7.711  0.0343 -0.2891  0.2248
 1134DPPI   C4B16214   9.433  15.041   8.135 -0.0482  0.3001 -0.0913
 1135DPPI    C116215   2.028  11.749   5.532  0.0883 -0.0441  0.2217
 1135DPPI    C216216   2.363  11.938   5.424  0.0099 -0.1349 -0.1987
 1135DPPI    C316217   2.249  11.608   5.230 -0.1997 -0.2415  0.0984
 1135DPPI   PO416218   1.953  12.024   5.726 -0.2665 -0.1006 -0.0260
 1135DPPI   GL116219   1.693  12.048   6.125 -0.1726  0.0376  0.0835
 1135DPPI   GL216220   1.564  12.292   6.319 -0.0461  0.1932 -0.0977
 1135DPPI   C1A16221   1.403  11.900   6.561  0.1454 -0.2136 -0.0601
 1135DPPI   C2A16222   1.477  11.742   7.070  0.1291 -0.1867  0.1529
 1135DPPI   C3A16223   1.406  11.755   7.466 -0.0168  0.1840  0.2840
 1135DPPI   C4A16224   1.194  11.768   7.892 -0.1573 -0.0017  0.3130
 1135DPPI   C1B16225   1.608  12.621   6.633  0.1939  0.1148 -0.3020
 1135DPPI   C2B16226   1.576  12.716   7.116 -0.0078 -0.1350 -0.2784
 1135DPPI   C3B16227   1.511  13.023   7.397  0.1056  0.4225  0.1712
 1135DPPI   C4B16228   1.464  13.339   7.736  0.0574  0.3861 -0.0793
 1136DPPI    C116229   3.713  10.005   5.925  0.1631  0.0003 -0.1965
 1136DPPI    C216230   3.871  10.373   5.939 -0.0276  0.0958 -0.4533
 1136DPPI    C316231   3.479  10.321   6.000  0.0515 -0.1084 -0.0832
 1136DPPI   PO416232   3.765   9.884   6.036  0.0705 -0.0701 -0.1458
 1136DPPI   GL116233   3.797   9.636   6.347 -0.0604 -0.2461 -0.0472
 1136DPPI   GL216234   3.922   9.838   6.590  0.0520  0.0827  0.1310
 1136DPPI   C1A16235   3.603   9.477   6.722  0.0566 -0.1329  0.1279
 1136DPPI   C2A16236   3.368   9.569   6.945 -0.0385  0.1045 -0.0993
 1136DPPI   C3A16237   3.194   9.701   7.359  0.0695  0.1295 -0.2869
 1136DPPI   C4A16238   3.281   9.662   7.822 -0.1484 -0.3886 -0.2390
 1136DPPI   C1B16239   4.003   9.666   6.979 -0.0744  0.1551  0.0503
 1136DPPI   C2B16240   3.744   9.432   7.291 -0.2839  0.0951  0.0936
 1136DPPI   C3B16241   3.819   9.436   7.667 -0.2775  0.3317  0.0208
 1136DPPI   C4B16242   3.769   9.613   8.079 -0.1297  0.0951  0.2888
 1137DPPI    C116243   8.868   7.412   5.638 -0.1770  0.3829 -0.1574
 1137DPPI    C216244   9.246   7.497   5.540 -0.0891  0.2206  0.0316
 1137DPPI    C316245   9.033   7.244   5.315  0.0061  0.0974  0.0791
 1137DPPI   PO416246   8.863   7.370   5.837 -0.2091  0.1943  0.0001
 1137DPPI   GL116247   8.581   7.349   6.224  0.0120  0.0699 -0.0084
 1137DPPI   GL216248   8.706   7.678   6.211  0.1563 -0.1355  0.1906
 1137DPPI   C1A16249   8.493   7.282   6.566  0.4165 -0.2017  0.0144
 1137DPPI   C2A16250   8.410   7.188   7.072  0.1192  0.1994  0.0924
 1137DPPI   C3A16251   8.168   7.265   7.518 -0.0233  0.2253 -0.1007
 1137DPPI   C4A16252   8.208   7.224   8.025 -0.1655 -0.1232 -0.1852
 1137DPPI   C1B16253   8.726   7.691   6.618 -0.0734 -0.1084 -0.3359
 1137DPPI   C2B16254   8.627   7.614   7.061  0.1655  0.4243  0.0212
 1137DPPI   C3B16255   8.538   7.579   7.448 -0.1052 -0.0445  0.0115
 1137DPPI   C4B16256   8.596   7.456   7.846  0.1314  0.4517 -0.2882
 1138DPPI    C116257   3.594   4.820   6.097 -0.1226 -0.0788  0.0484
 1138DPPI    C216258   3.289   4.697   6.324 -0.0072 -0.2691  0.1023
 1138DPPI    C316259   3.219   4.854   5.963 -0.1824 -0.0964  0.2093
 1138DPPI   PO416260   3.816   4.595   6.154 -0.2485 -0.1960  0.1786
 1138DPPI   GL116261   3.744   4.151   6.303  0.1280 -0.1331  0.5304
 1138DPPI   GL216262   4.130   4.250   6.320  0.2890  0.1341  0.0102
 1138DPPI   C1A16263   3.813   3.988   6.638 -0.0048 -0.0392 -0.1470
 1138DPPI   C2A16264   3.662   3.854   6.927 -0.0603 -0.1986  0.0052
 1138DPPI   C3A16265   3.760   3.822   7.352  0.1072  0.2148  0.0856
 1138DPPI   C4A16266   3.601   3.965   7.771  0.0893  0.0427 -0.1674
 1138DPPI   C1B16267   4.332   4.337   6.650 -0.2843  0.0291  0.0399
 1138DPPI   C2B16268   4.481   4.255   6.981  0.1190 -0.0717  0.2510
 1138DPPI   C3B16269   4.497   4.293   7.392  0.0528 -0.1443  0.3262
 1138DPPI   C4B16270   4.310   4.415   7.824 -0.1289 -0.0360 -0.0886
 1139DPPI    C116271  16.449   9.904   5.447 -0.0543 -0.0923  0.2295
 1139DPPI    C216272  16.393   9.587   5.210  0.2349  0.0245 -0.0011
 1139DPPI    C316273  16.761   9.732   5.266  0.0789  0.4817 -0.1135
 1139DPPI   PO416274  16.343   9.797   5.759 -0.1703  0.0203  0.1970
 1139DPPI   GL116275  16.233  10.089   6.136 -0.0681 -0.1794  0.3149
 1139DPPI   GL216276  16.581   9.914   6.125  0.1481  0.0979 -0.0279
 1139DPPI   C1A16277  16.131  10.069   6.589 -0.2419  0.1923  0.1403
 1139DPPI   C2A16278  16.064  10.096   7.021  0.1275  0.0270  0.3207
 1139DPPI   C3A16279  16.192  10.274   7.316  0.3289 -0.0740  0.1462
 1139DPPI   C4A16280  16.459  10.267   7.732  0.0290 -0.1527  0.0717
 1139DPPI   C1B16281  16.673  10.070   6.471 -0.1962 -0.1584  0.2899
 1139DPPI   C2B16282  16.587  10.114   6.950 -0.0689  0.1566 -0.3325
 1139DPPI   C3B16283  16.707  10.155   7.335 -0.0387 -0.0702 -0.0330
 1139DPPI   C4B16284  17.007  10.260   7.669 -0.2127 -0.0054 -0.1327
 1140DPPI    C116285  14.784   8.677   5.896 -0.1614 -0.1153  0.0143
 1140DPPI    C216286  15.151   8.562   6.008 -0.1179 -0.0694 -0.0794
 1140DPPI    C316287  15.106   8.866   5.752 -0.2349  0.2022  0.2543
 1140DPPI   PO416288  14.625   8.452   5.980  0.0970  0.0098 -0.0416
 1140DPPI   GL116289  14.893   8.390   6.390  0.2659 -0.0831  0.0145
 1140DPPI   GL216290  15.185   8.230   6.443 -0.0091 -0.0143  0.3226
 1140DPPI   C1A16291  14.793   8.337   6.745  0.1963 -0.0242 -0.1042
 1140DPPI   C2A16292  14.914   8.197   7.162  0.6470  0.2129  0.2406
 1140DPPI   C3A16293  15.126   7.957   7.578 -0.1216 -0.0505  0.0872
 1140DPPI   C4A16294  15.176   7.724   7.861 -0.1937  0.0354 -0.3295
 1140DPPI   C1B16295  15.354   8.359   6.831 -0.0363 -0.0663 -0.3774
 1140DPPI   C2B16296  15.307   8.335   7.335  0.2191 -0.0231  0.1776
 1140DPPI   C3B16297  15.334   8.307   7.828  0.0273  0.0690 -0.0109
 1140DPPI   C4B16298  15.061   8.193   8.237 -0.3082  0.1684 -0.0298
 1141DPPI    C116299  12.857   4.554   5.758  0.0472 -0.1318  0.0405
 1141DPPI    C216300  13.006   4.798   5.477  0.1528 -0.1000  0.1235
 1141DPPI    C316301  13.068   4.404   5.453 -0.0019 -0.1177 -0.0006
 1141DPPI   PO416302  12.959   4.567   5.952 -0.0421 -0.1311  0.0814
 1141DPPI   GL116303  13.029   4.533   6.482  0.0367  0.0510  0.2045
 1141DPPI   GL216304  12.867   4.804   6.434  0.1764  0.2281 -0.1082
 1141DPPI   C1A16305  13.106   4.581   6.926  0.0303  0.0615  0.4124
 1141DPPI   C2A16306  13.261   4.586   7.393  0.1862 -0.0294  0.1641
 1141DPPI   C3A16307  13.346   4.521   7.807 -0.2207 -0.0557 -0.3577
 1141DPPI   C4A16308  13.281   4.587   8.261 -0.0402 -0.0638 -0.2046
 1141DPPI   C1B16309  13.017   5.072   6.831  0.1921  0.0863 -0.2187
 1141DPPI   C2B16310  13.142   5.119   7.294  0.1232 -0.0779  0.0335
 1141DPPI   C3B16311  13.263   5.075   7.709  0.0970  0.2403  0.0275
 1141DPPI   C4B16312  13.718   5.112   7.886 -0.1662  0.1222  0.1351
 1142DPPI    C116313  13.728  14.053   6.177  0.2366 -0.2184  0.0083
 1142DPPI    C216314  13.598  13.859   5.853 -0.0140 -0.2655  0.1347
 1142DPPI    C316315  13.335  14.003   6.119  0.1842 -0.0971  0.2420
 1142DPPI   PO416316  13.867  14.228   6.140  0.0111 -0.1118 -0.3461
 1142DPPI   GL116317  14.242  14.519   6.282 -0.3387  0.2950 -0.1114
 1142DPPI   GL216318  14.147  14.753   6.438  0.1178 -0.1106  0.1450
 1142DPPI   C1A16319  14.413  14.401   6.671  0.1522 -0.2768 -0.0977
 1142DPPI   C2A16320  14.415  14.261   7.194 -0.4356  0.0258 -0.1290
 1142DPPI   C3A16321  14.390  14.296   7.577  0.2333 -0.1157 -0.0631
 1142DPPI   C4A16322  14.457  14.326   8.068 -0.2850 -0.1418 -0.0494
 1142DPPI   C1B16323  14.094  14.745   6.811  0.2551 -0.0052 -0.1474
 1142DPPI   C2B16324  14.125  14.720   7.213  0.1081 -0.0151  0.1687
 1142DPPI   C3B16325  13.995  14.642   7.566 -0.0163  0.2414 -0.0547
 1142DPPI   C4B16326  14.083  14.614   7.982 -0.0950 -0.1809  0.0125
 1143DPPI    C116327  15.505   0.344   5.913 -0.0252  0.0918  0.0888
 1143DPPI    C216328  15.121   0.327   5.801 -0.0282  0.0191  0.1094
 1143DPPI    C316329  15.401   0.450   5.542 -0.1059  0.3799  0.1912
 1143DPPI   PO416330  15.456   0.076   6.109 -0.0678 -0.0283 -0.0727
 1143DPPI   GL116331  15.124   0.002   6.293  0.0427 -0.0491  0.1698
 1143DPPI   GL216332  14.926   0.035   6.118  0.0963  0.0173  0.0457
 1143DPPI   C1A16333  15.060   0.176   6.645  0.0702  0.4393  0.2314
 1143DPPI   C2A16334  15.089   0.121   7.115  0.2308 -0.0615  0.1715
 1143DPPI   C3A16335  15.313  -0.068   7.526 -0.1663  0.1395 -0.1127
 1143DPPI   C4A16336  15.376  -0.223   7.993 -0.0297  0.3748  0.2424
 1143DPPI   C1B16337  14.650  -0.101   6.502  0.0435 -0.1208  0.1906
 1143DPPI   C2B16338  14.646   0.015   6.908  0.2325 -0.2873 -0.3369
 1143DPPI   C3B16339  14.763  -0.114   7.359 -0.0461  0.3050 -0.0072
 1143DPPI   C4B16340  14.836  -0.121   7.871  0.1352 -0.2275 -0.1769
 1144DPPI    C116341   0.785   2.292   6.184 -0.0872  0.1835 -0.0195
 1144DPPI    C216342   1.063   2.043   6.040 -0.1278 -0.0068  0.2254
 1144DPPI    C316343   0.868   2.289   5.792 -0.0315 -0.1622 -0.0081
 1144DPPI   PO416344   0.914   2.265   6.470 -0.0518 -0.3288  0.1462
 1144DPPI   GL116345   0.658   1.990   6.846  0.0543  0.1632  0.0626
 1144DPPI   GL216346   0.995   1.923   6.837  0.2917  0.0600 -0.3634
 1144DPPI   C1A16347   0.396   2.134   7.164  0.3095  0.1021  0.2048
 1144DPPI   C2A16348   0.355   2.268   7.594 -0.1893  0.0073  0.1752
 1144DPPI   C3A16349   0.394   2.422   8.028 -0.0603  0.2348 -0.1334
 1144DPPI   C4A16350   0.226   2.538   8.439  0.3706 -0.4967 -0.1149
 1144DPPI   C1B16351   0.928   2.279   7.149 -0.2724  0.1631  0.1482
 1144DPPI   C2B16352   0.850   2.076   7.616 -0.1938 -0.0700 -0.2239
 1144DPPI   C3B16353   0.717   2.034   7.989  0.1140 -0.0501  0.0599
 1144DPPI   C4B16354   0.383   1.907   8.249 -0.0311 -0.1523 -0.1720
 1145DPPI    C116355   6.231  10.856   5.869 -0.1041 -0.0888 -0.0307
 1145DPPI    C216356   5.992  11.052   5.615 -0.0561  0.0228  0.0096
 1145DPPI    C316357   6.234  10.764   5.479 -0.0782  0.0371 -0.0605
 1145DPPI   PO416358   6.245  11.006   6.110  0.1240 -0.1122 -0.1461
 1145DPPI   GL116359   6.559  10.936   6.450 -0.0884  0.1906  0.0764
 1145DPPI   GL216360   6.930  10.840   6.352 -0.3106  0.4370 -0.2216
 1145DPPI   C1A16361   6.426  10.961   6.917  0.4072  0.1213  0.1701
 1145DPPI   C2A16362   6.308  10.854   7.417 -0.2390  0.0313  0.3283
 1145DPPI   C3A16363   6.311  10.719   7.853 -0.1651 -0.2996 -0.0185
 1145DPPI   C4A16364   6.370  10.664   8.311 -0.1453 -0.0460  0.4759
 1145DPPI   C1B16365   6.797  10.651   6.768 -0.2653 -0.2391  0.0279
 1145DPPI   C2B16366   6.710  10.658   7.262 -0.4230  0.2959  0.1957
 1145DPPI   C3B16367   6.779  10.630   7.671 -0.1415  0.0733 -0.0498
 1145DPPI   C4B16368   6.918  10.660   8.132  0.0123 -0.0861 -0.0074
 1146DPPI    C116369   3.869  12.509   5.832 -0.1415 -0.0543 -0.0855
 1146DPPI    C216370   3.482  12.521   5.731 -0.1534  0.1462 -0.0196
 1146DPPI    C316371   3.763  12.507   5.446 -0.2084  0.0100 -0.0675
 1146DPPI   PO416372   3.770  12.736   6.113  0.1059 -0.0855  0.5018
 1146DPPI   GL116373   3.861  13.048   6.392 -0.0838 -0.0157  0.2851
 1146DPPI   GL216374   3.726  13.295   6.192 -0.0478 -0.0493 -0.1513
 1146DPPI   C1A16375   3.765  13.057   6.843 -0.1821 -0.4022 -0.0286
 1146DPPI   C2A16376   3.721  12.971   7.277 -0.3961 -0.1068 -0.0383
 1146DPPI   C3A16377   3.820  12.942   7.699  0.2125 -0.1080  0.3682
 1146DPPI   C4A16378   3.585  13.222   8.112 -0.1328  0.1840 -0.0492
 1146DPPI   C1B16379   3.350  13.292   6.379 -0.0002 -0.2317 -0.1651
 1146DPPI   C2B16380   3.288  13.275   6.821  0.0315 -0.0831 -0.2045
 1146DPPI   C3B16381   3.332  13.211   7.293  0.0624  0.0185  0.0619
 1146DPPI   C4B16382   3.299  13.263   7.692 -0.1359 -0.0816  0.0166
 1147PYPI    C116383   4.742  12.713   5.829  0.2561  0.0294  0.0205
 1147PYPI    C216384   4.819  12.442   6.112  0.1145 -0.0517 -0.0176
 1147PYPI    C316385   4.767  12.326   5.733  0.1979  0.0450 -0.0592
 1147PYPI   PO416386   4.603  12.830   5.975  0.1920 -0.2737  0.1341
 1147PYPI   GL116387   4.459  12.804   6.380  0.1167 -0.0766  0.3170
 1147PYPI   GL216388   4.716  13.007   6.496 -0.1029  0.1712 -0.0510
 1147PYPI   C1A16389   4.156  12.728   6.593 -0.0455 -0.0617  0.1304
 1147PYPI   C2A16390   4.146  12.763   6.964 -0.1196 -0.1850 -0.0412
 1147PYPI   D3A16391   4.365  12.716   7.314 -0.2808 -0.1828  0.0625
 1147PYPI   C4A16392   4.234  12.605   7.739  0.0594  0.1844  0.1303
 1147PYPI   C1B16393   4.655  12.794   6.856 -0.3561  0.2270 -0.1641
 1147PYPI   C2B16394   4.859  12.520   7.237  0.0952  0.1180 -0.0330
 1147PYPI   C3B16395   4.777  12.499   7.644  0.3940 -0.0930  0.0276
 1147PYPI   C4B16396   4.617  12.451   8.061 -0.0857  0.2048 -0.1811
 1148PYPI    C116397   0.186   9.598   5.812 -0.0759  0.0144  0.0205
 1148PYPI    C216398   0.374   9.889   6.011  0.0729 -0.0364 -0.0436
 1148PYPI    C316399   0.570   9.555   5.914 -0.0581 -0.0999 -0.0921
 1148PYPI   PO416400  -0.025   9.545   5.921 -0.0399 -0.1726 -0.1457
 1148PYPI   GL116401  -0.279   9.643   6.232  0.2089 -0.3165 -0.1921
 1148PYPI   GL216402  -0.666   9.772   6.278  0.0565 -0.1603  0.1867
 1148PYPI   C1A16403  -0.383   9.497   6.655  0.0556  0.0351 -0.1229
 1148PYPI   C2A16404  -0.354   9.584   7.061  0.2173  0.1645  0.0908
 1148PYPI   D3A16405  -0.203   9.596   7.427  0.1294 -0.2161 -0.0380
 1148PYPI   C4A16406  -0.393   9.782   7.846  0.1515 -0.2229 -0.0782
 1148PYPI   C1B16407  -0.907   9.597   6.638  0.2524 -0.1271  0.1719
 1148PYPI   C2B16408  -0.937   9.666   7.147  0.3871  0.2653  0.2957
 1148PYPI   C3B16409  -0.799   9.746   7.522  0.1256 -0.1296 -0.2078
 1148PYPI   C4B16410  -0.954   9.721   7.965 -0.0805 -0.3518  0.1795
 1149PYPI    C116411   6.608  12.461   5.895  0.0322 -0.2243 -0.2887
 1149PYPI    C216412   6.233  12.352   5.805 -0.0719  0.1484 -0.3238
 1149PYPI    C316413   6.495  12.431   5.512  0.0977 -0.3034 -0.3022
 1149PYPI   PO416414   6.771  12.409   6.116  0.0303 -0.0567 -0.1025
 1149PYPI   GL116415   6.947  12.263   6.515 -0.3259 -0.2300 -0.1229
 1149PYPI   GL216416   7.235  12.130   6.402 -0.1406  0.0551 -0.1399
 1149PYPI   C1A16417   7.103  12.341   6.994  0.3676  0.1183 -0.2525
 1149PYPI   C2A16418   7.113  12.336   7.395  0.0875 -0.0987  0.1787
 1149PYPI   D3A16419   7.161  12.488   7.837 -0.2149  0.1130 -0.3276
 1149PYPI   C4A16420   7.105  12.386   8.287  0.1961  0.1190  0.0807
 1149PYPI   C1B16421   7.334  11.947   6.703  0.2500  0.3719 -0.0968
 1149PYPI   C2B16422   7.237  11.959   7.213 -0.1665  0.1332  0.2476
 1149PYPI   C3B16423   7.156  11.951   7.670  0.0595 -0.0553  0.1794
 1149PYPI   C4B16424   7.130  11.884   8.069  0.0126  0.1280 -0.1504
 1150PYPI    C116425   0.443  12.838   5.848  0.1592 -0.1293 -0.0761
 1150PYPI    C216426   0.622  13.142   5.660 -0.0643  0.0110 -0.0660
 1150PYPI    C316427   0.419  12.868   5.450 -0.4764  0.2738 -0.0214
 1150PYPI   PO416428   0.635  12.724   6.012  0.0092  0.0218  0.2696
 1150PYPI   GL116429   0.634  12.491   6.415 -0.0753  0.0630 -0.0148
 1150PYPI   GL216430   0.661  12.757   6.575 -0.4116  0.0372  0.2123
 1150PYPI   C1A16431   0.606  12.266   6.807 -0.1134  0.1500 -0.5102
 1150PYPI   C2A16432   0.460  12.085   7.136  0.1590  0.2810  0.1148
 1150PYPI   D3A16433   0.380  12.021   7.538  0.0647  0.2757  0.1075
 1150PYPI   C4A16434   0.689  11.852   7.808  0.2978 -0.3504 -0.0289
 1150PYPI   C1B16435   0.662  12.744   7.002  0.3941 -0.1091  0.1169
 1150PYPI   C2B16436   0.490  12.521   7.353 -0.0976 -0.0578 -0.1148
 1150PYPI   C3B16437   0.540  12.781   7.750 -0.0641  0.0407 -0.3258
 1150PYPI   C4B16438   0.793  12.892   8.106 -0.2324 -0.2284  0.1436
 1151PYPI    C116439   9.515  16.261   5.959 -0.2471  0.1010  0.4197
 1151PYPI    C216440   9.791  16.319   6.243 -0.0199  0.0402  0.2141
 1151PYPI    C316441   9.846  16.470   5.876 -0.1152 -0.2295  0.0860
 1151PYPI   PO416442   9.346  16.146   6.069  0.1497  0.1107  0.2402
 1151PYPI   GL116443   9.567  15.918   6.417  0.1311 -0.2600 -0.0427
 1151PYPI   GL216444   9.527  15.773   6.743  0.2075 -0.0264  0.1929
 1151PYPI   C1A16445  10.035  16.078   6.649  0.1929  0.0368  0.1438
 1151PYPI   C2A16446   9.937  16.081   7.141 -0.0836 -0.2261  0.0578
 1151PYPI   D3A16447   9.963  15.957   7.503 -0.1210  0.0930  0.2677
 1151PYPI   C4A16448  10.148  16.111   7.871  0.3176 -0.0344  0.0606
 1151PYPI   C1B16449   9.423  15.904   7.135 -0.1736  0.0511 -0.1552
 1151PYPI   C2B16450   9.448  15.916   7.542  0.0276  0.0172 -0.2638
 1151PYPI   C3B16451   9.695  15.840   7.921  0.0867 -0.1370 -0.1424
 1151PYPI   C4B16452   9.810  16.016   8.376  0.1105  0.1549 -0.1700
 1152PYPI    C116453   3.869   8.340   5.704  0.2701 -0.3759 -0.1737
 1152PYPI    C216454   3.600   8.106   5.887 -0.0879  0.1441 -0.0128
 1152PYPI    C316455   3.647   8.085   5.490 -0.0979 -0.2105  0.0022
 1152PYPI   PO416456   3.795   8.545   5.818 -0.2770 -0.0072  0.0938
 1152PYPI   GL116457   3.773   8.743   6.204 -0.0181  0.0849 -0.1408
 1152PYPI   GL216458   3.520   8.620   6.239  0.0590 -0.1103 -0.0423
 1152PYPI   C1A16459   3.764   8.835   6.662  0.1376  0.1858 -0.0621
 1152PYPI   C2A16460   3.795   8.931   7.148  0.0495  0.0949  0.7471
 1152PYPI   D3A16461   3.922   8.938   7.589 -0.1666 -0.2677  0.0797
 1152PYPI   C4A16462   3.687   8.828   7.894 -0.0524  0.2324 -0.0814
 1152PYPI   C1B16463   3.300   8.651   6.682  0.0316 -0.1613  0.0332
 1152PYPI   C2B16464   3.357   8.550   7.095  0.1274  0.3973  0.0416
 1152PYPI   C3B16465   3.482   8.630   7.496 -0.0185  0.0740 -0.3414
 1152PYPI   C4B16466   3.272   8.545   7.943  0.0077 -0.0898  0.1321
 1153PYPI    C116467  16.680  11.123   5.622 -0.1184 -0.2072  0.1512
 1153PYPI    C216468  16.867  10.890   5.356  0.1998  0.2249 -0.0158
 1153PYPI    C316469  16.789  10.752   5.723  0.0806 -0.2525 -0.2135
 1153PYPI   PO416470  16.777  11.337   5.651 -0.1556  0.2261  0.0501
 1153PYPI   GL116471  16.949  11.497   6.030 -0.0555  0.1874  0.1415
 1153PYPI   GL216472  16.850  11.822   6.237 -0.2255  0.0177 -0.1151
 1153PYPI   C1A16473  16.949  11.337   6.474  0.0481  0.0399 -0.1115
 1153PYPI   C2A16474  16.847  11.600   6.829  0.0267 -0.3006  0.0146
 1153PYPI   D3A16475  16.745  11.648   7.242  0.1977  0.0712  0.2270
 1153PYPI   C4A16476  16.884  11.523   7.625 -0.0835  0.0747  0.0357
 1153PYPI   C1B16477  16.810  12.041   6.550 -0.1557 -0.0125  0.0950
 1153PYPI   C2B16478  16.843  12.091   6.990 -0.2540  0.0249 -0.1120
 1153PYPI   C3B16479  16.733  12.249   7.403  0.4663  0.1208 -0.3045
 1153PYPI   C4B16480  16.631  12.248   7.735  0.3419  0.1450 -0.0895
 1154PYPI    C116481   0.252   6.611   5.803 -0.1991 -0.1699 -0.0098
 1154PYPI    C216482  -0.114   6.712   5.675 -0.1159  0.1058 -0.0369
 1154PYPI    C316483   0.155   6.565   5.418 -0.1099  0.1902 -0.0792
 1154PYPI   PO416484   0.143   6.644   6.076  0.3414 -0.2277  0.2265
 1154PYPI   GL116485   0.185   6.586   6.441  0.3067 -0.2359 -0.0521
 1154PYPI   GL216486   0.470   6.698   6.588  0.1942  0.2741 -0.0679
 1154PYPI   C1A16487  -0.210   6.527   6.721 -0.1854  0.2640  0.0804
 1154PYPI   C2A16488  -0.486   6.512   7.136  0.0710 -0.1625 -0.0761
 1154PYPI   D3A16489  -0.435   6.527   7.555  0.0957  0.3135  0.1184
 1154PYPI   C4A16490  -0.843   6.397   7.763 -0.0787 -0.0373 -0.2625
 1154PYPI   C1B16491   0.529   6.816   7.017 -0.1375  0.3614 -0.2050
 1154PYPI   C2B16492   0.521   6.402   7.344 -0.1404  0.0742  0.3279
 1154PYPI   C3B16493   0.569   6.093   7.766  0.2225 -0.1106 -0.1579
 1154PYPI   C4B16494   0.563   5.676   7.949 -0.2734  0.1437  0.0611
 1155PYPI    C116495   2.852   9.988   5.570  0.1421 -0.0313 -0.0900
 1155PYPI    C216496   3.113   9.695   5.648  0.0400 -0.0237  0.3003
 1155PYPI    C316497   3.230  10.077   5.666  0.0851 -0.0293  0.1385
 1155PYPI   PO416498   2.672   9.948   5.739 -0.0702 -0.1023 -0.3573
 1155PYPI   GL116499   2.479  10.012   6.278 -0.0469  0.0123  0.0696
 1155PYPI   GL216500   2.399  10.190   6.490 -0.0545 -0.0012  0.0419
 1155PYPI   C1A16501   2.773   9.897   6.562 -0.1010 -0.1064  0.4797
 1155PYPI   C2A16502   2.984   9.953   6.930 -0.0899  0.2642  0.0260
 1155PYPI   D3A16503   2.969  10.166   7.273 -0.1096  0.0474  0.1815
 1155PYPI   C4A16504   3.333  10.482   7.290 -0.1585  0.0527  0.0797
 1155PYPI   C1B16505   2.615  10.354   6.797  0.0731  0.0703 -0.2562
 1155PYPI   C2B16506   2.453  10.242   7.271 -0.0080 -0.1080  0.0010
 1155PYPI   C3B16507   2.649  10.354   7.741  0.0169  0.1597  0.1167
 1155PYPI   C4B16508   2.962  10.671   7.821 -0.0610 -0.1319 -0.0887
 1156PYPI    C116509   0.007   6.135   6.143 -0.0997 -0.0012  0.2588
 1156PYPI    C216510   0.225   6.113   5.809 -0.0427  0.0473  0.2926
 1156PYPI    C316511  -0.150   6.251   5.794 -0.0853 -0.0741  0.2279
 1156PYPI   PO416512  -0.034   5.859   6.260  0.0376  0.2333 -0.0952
 1156PYPI   GL116513   0.034   5.888   6.632 -0.0477  0.0252  0.3714
 1156PYPI   GL216514   0.263   6.116   6.573  0.0797 -0.1221 -0.2632
 1156PYPI   C1A16515  -0.192   5.934   6.924 -0.1038 -0.0202 -0.3276
 1156PYPI   C2A16516  -0.330   5.983   7.366 -0.1702 -0.0636  0.0188
 1156PYPI   D3A16517  -0.479   5.987   7.786 -0.0004  0.0757 -0.0274
 1156PYPI   C4A16518  -0.414   6.409   8.027 -0.0101  0.0086  0.2276
 1156PYPI   C1B16519   0.304   6.326   6.884 -0.0603 -0.2719  0.0151
 1156PYPI   C2B16520   0.069   6.550   7.187  0.0567  0.0730  0.1642
 1156PYPI   C3B16521   0.087   6.409   7.613  0.0958 -0.2607  0.1612
 1156PYPI   C4B16522   0.089   6.204   8.010 -0.1722  0.1482  0.1205
 1157PYPI    C116523   8.252  17.641   6.086 -0.2667 -0.0445 -0.0319
 1157PYPI    C216524   8.595  17.558   5.897 -0.2142  0.2163 -0.0550
 1157PYPI    C316525   8.254  17.385   5.778 -0.0875 -0.0710 -0.0095
 1157PYPI   PO416526   8.339  17.650   6.398 -0.2493 -0.2182 -0.1007
 1157PYPI   GL116527   8.067  17.778   6.744 -0.1353  0.2646  0.2997
 1157PYPI   GL216528   7.852  17.596   6.566 -0.1223 -0.2001  0.0707
 1157PYPI   C1A16529   8.153  17.598   7.066 -0.0143  0.3573 -0.0048
 1157PYPI   C2A16530   8.226  17.528   7.478 -0.1257 -0.1981 -0.2955
 1157PYPI   D3A16531   8.337  17.312   7.910 -0.2090 -0.1767  0.1952
 1157PYPI   C4A16532   8.183  17.413   8.252 -0.3244  0.0458  0.1239
 1157PYPI   C1B16533   7.758  17.386   6.934  0.1651  0.0405  0.0885
 1157PYPI   C2B16534   7.710  17.341   7.422  0.1298  0.4470 -0.2065
 1157PYPI   C3B16535   7.466  17.095   7.822 -0.2006  0.2937  0.2785
 1157PYPI   C4B16536   7.404  17.028   8.153 -0.0441  0.2038 -0.3175
 1158PYPI    C116537   0.381  12.337   5.714  0.3373  0.1238  0.1683
 1158PYPI    C216538   0.631  12.061   5.567  0.1832 -0.0002  0.1373
 1158PYPI    C316539   0.547  12.389   5.354  0.0321 -0.1353 -0.0145
 1158PYPI   PO416540   0.388  12.264   5.999 -0.0208  0.2169  0.2561
 1158PYPI   GL116541   0.516  12.009   6.281 -0.1119  0.1641  0.1652
 1158PYPI   GL216542   0.208  12.170   6.469  0.0568  0.2882 -0.2803
 1158PYPI   C1A16543   0.845  11.872   6.515  0.1779 -0.1943  0.0887
 1158PYPI   C2A16544   1.030  11.883   6.936 -0.0060  0.0946 -0.2123
 1158PYPI   D3A16545   0.968  11.933   7.410  0.0275 -0.1239  0.1764
 1158PYPI   C4A16546   0.850  12.362   7.674  0.0318 -0.3435 -0.0550
 1158PYPI   C1B16547   0.028  12.027   6.827  0.1547  0.2639 -0.0523
 1158PYPI   C2B16548  -0.053  12.033   7.232 -0.1875 -0.0921 -0.2233
 1158PYPI   C3B16549  -0.176  12.054   7.744  0.2179  0.0150  0.0615
 1158PYPI   C4B16550  -0.126  11.999   8.203 -0.0462  0.3161 -0.2109
 1159PYPI    C116551   2.442   4.628   6.172  0.0661 -0.1118  0.0639
 1159PYPI    C216552   2.317   4.853   5.865  0.2834  0.0151  0.0664
 1159PYPI    C316553   2.382   4.462   5.813 -0.2386 -0.0827  0.0989
 1159PYPI   PO416554   2.317   4.688   6.356  0.1385 -0.1870  0.0775
 1159PYPI   GL116555   2.416   5.001   6.672 -0.1475 -0.1134  0.0833
 1159PYPI   GL216556   2.410   5.282   6.599 -0.0364 -0.2323  0.1825
 1159PYPI   C1A16557   2.533   4.841   7.042 -0.0424  0.1761  0.3051
 1159PYPI   C2A16558   2.588   4.834   7.514 -0.0491  0.1859  0.0571
 1159PYPI   D3A16559   2.554   4.937   8.037  0.0824  0.0060  0.1972
 1159PYPI   C4A16560   2.466   4.655   8.408  0.0437 -0.0750  0.0178
 1159PYPI   C1B16561   2.703   5.302   6.926 -0.1916 -0.0266  0.0569
 1159PYPI   C2B16562   2.708   5.303   7.349  0.1013 -0.4189 -0.3133
 1159PYPI   C3B16563   2.684   5.360   7.726  0.3773 -0.2970 -0.0819
 1159PYPI   C4B16564   2.695   5.391   8.147 -0.2975  0.1499 -0.2177
 1160PYPI    C116565   7.811   7.896   5.570  0.2250 -0.1181  0.0621
 1160PYPI    C216566   7.884   8.147   5.267 -0.1872 -0.0173  0.0403
 1160PYPI    C316567   7.569   7.901   5.251 -0.0567 -0.2033  0.2706
 1160PYPI   PO416568   7.863   8.079   5.771  0.2058 -0.0884 -0.2995
 1160PYPI   GL116569   7.628   8.159   6.136  0.0500  0.1777  0.2008
 1160PYPI   GL216570   7.552   7.907   6.137 -0.0418  0.1447  0.1241
 1160PYPI   C1A16571   7.651   8.065   6.570  0.0213  0.2294  0.3634
 1160PYPI   C2A16572   7.745   8.062   6.962  0.0847 -0.0933 -0.1266
 1160PYPI   D3A16573   7.631   8.045   7.360 -0.1977 -0.2077 -0.0723
 1160PYPI   C4A16574   7.701   7.965   7.756  0.0858 -0.0201 -0.2171
 1160PYPI   C1B16575   7.313   7.785   6.402 -0.1133  0.0729  0.1229
 1160PYPI   C2B16576   7.198   7.755   6.780 -0.1688  0.3839  0.0899
 1160PYPI   C3B16577   7.183   7.702   7.221  0.1862  0.1600 -0.3257
 1160PYPI   C4B16578   7.285   7.632   7.686 -0.2355 -0.0066 -0.1155
 1161PYPI    C116579   8.753   3.295   6.256  0.2739 -0.0665 -0.2032
 1161PYPI    C216580   8.922   3.318   5.894  0.0925  0.4507 -0.2626
 1161PYPI    C316581   8.536   3.413   5.942 -0.0420 -0.1680 -0.0274
 1161PYPI   PO416582   8.875   3.011   6.351  0.0702  0.0271 -0.1467
 1161PYPI   GL116583   9.063   2.977   6.726 -0.1411  0.1027  0.0328
 1161PYPI   GL216584   8.774   2.637   6.741 -0.1806  0.0408 -0.2568
 1161PYPI   C1A16585   9.378   2.709   7.011 -0.0041  0.0006 -0.1630
 1161PYPI   C2A16586   9.481   2.812   7.435 -0.1667  0.0141  0.0363
 1161PYPI   D3A16587   9.497   3.102   7.766  0.0399 -0.1094  0.0050
 1161PYPI   C4A16588   9.736   2.903   8.044  0.2463 -0.0718 -0.0199
 1161PYPI   C1B16589   8.877   2.593   7.156  0.2841 -0.0491 -0.0470
 1161PYPI   C2B16590   9.032   2.679   7.577  0.0912  0.2024  0.0474
 1161PYPI   C3B16591   9.307   2.663   7.921  0.0928  0.3802  0.0111
 1161PYPI   C4B16592   9.136   2.910   8.307  0.1291 -0.0965 -0.1699
 1162PYPI    C116593  16.559   6.638   5.848  0.1394 -0.3106 -0.1505
 1162PYPI    C216594  16.172   6.674   5.753  0.1172  0.1372  0.0789
 1162PYPI    C316595  16.421   6.980   5.692  0.3679 -0.0293  0.2459
 1162PYPI   PO416596  16.493   6.547   6.066 -0.3745 -0.0475 -0.0224
 1162PYPI   GL116597  16.470   6.541   6.444 -0.1857 -0.0590 -0.0989
 1162PYPI   GL216598  16.522   6.848   6.591 -0.0920  0.0671  0.1192
 1162PYPI   C1A16599  16.505   6.254   6.745  0.1344 -0.2694  0.1805
 1162PYPI   C2A16600  16.394   6.247   7.245 -0.0308  0.2251 -0.2331
 1162PYPI   D3A16601  16.120   6.322   7.603 -0.1704  0.0097  0.3638
 1162PYPI   C4A16602  16.014   6.579   7.976  0.1260  0.1838 -0.0737
 1162PYPI   C1B16603  16.736   6.660   6.961 -0.1201 -0.0610  0.3694
 1162PYPI   C2B16604  16.888   6.865   7.400  0.1362  0.1162  0.1162
 1162PYPI   C3B16605  17.007   6.935   7.815  0.1906 -0.3213  0.0698
 1162PYPI   C4B16606  17.180   6.841   8.229 -0.0350  0.1833  0.0191
 1163PYPI    C116607  13.608   6.494   5.939 -0.2247  0.1063 -0.1360
 1163PYPI    C216608  13.330   6.429   5.659  0.0065  0.1290 -0.3746
 1163PYPI    C316609  13.718   6.387   5.570  0.0767 -0.0468 -0.0055
 1163PYPI   PO416610  13.490   6.597   6.107  0.3679 -0.1616 -0.1701
 1163PYPI   GL116611  13.332   6.641   6.462 -0.2673 -0.1450  0.1160
 1163PYPI   GL216612  13.339   7.035   6.449  0.1396 -0.1471  0.2271
 1163PYPI   C1A16613  13.190   6.545   6.849 -0.0734 -0.0322 -0.2428
 1163PYPI   C2A16614  13.319   6.455   7.236 -0.2262  0.1768  0.2161
 1163PYPI   D3A16615  13.209   6.597   7.591  0.1550  0.1803 -0.2319
 1163PYPI   C4A16616  13.133   6.902   7.897  0.4620  0.0264 -0.1796
 1163PYPI   C1B16617  13.097   7.055   6.806 -0.1915 -0.0221  0.1517
 1163PYPI   C2B16618  12.976   6.979   7.302  0.3961  0.1304  0.2734
 1163PYPI   C3B16619  12.762   6.607   7.437  0.1085  0.4732 -0.0677
 1163PYPI   C4B16620  12.395   6.519   7.535  0.1481  0.2292  0.2238
 1164PYPI    C116621   3.133  14.983   5.539  0.1503  0.1903  0.0019
 1164PYPI    C216622   2.976  14.792   5.224  0.0097  0.0222  0.1713
 1164PYPI    C316623   2.864  15.167   5.307 -0.0676  0.0128  0.1096
 1164PYPI   PO416624   3.083  14.901   5.837 -0.1277  0.0341 -0.1861
 1164PYPI   GL116625   3.039  14.571   6.101  0.3029 -0.1243 -0.4266
 1164PYPI   GL216626   3.355  14.738   6.312  0.0319 -0.1484  0.0244
 1164PYPI   C1A16627   2.888  14.801   6.471  0.5954  0.1587 -0.0279
 1164PYPI   C2A16628   2.569  14.881   6.864 -0.1180 -0.0949 -0.1469
 1164PYPI   D3A16629   2.476  15.030   7.351  0.1849 -0.1088  0.5507
 1164PYPI   C4A16630   2.165  15.395   7.465  0.0477  0.1178 -0.3250
 1164PYPI   C1B16631   3.323  14.468   6.509 -0.3507 -0.0767 -0.0423
 1164PYPI   C2B16632   3.304  14.222   6.803 -0.3751 -0.0399 -0.0156
 1164PYPI   C3B16633   3.241  14.240   7.138  0.0368  0.1370  0.2407
 1164PYPI   C4B16634   2.981  14.232   7.498 -0.2108 -0.0185  0.1830
 1165PYPI    C116635   1.191  15.298   5.633  0.0946 -0.0418  0.0451
 1165PYPI    C216636   0.994  15.640   5.565 -0.1440 -0.1594  0.1352
 1165PYPI    C316637   1.014  15.361   5.280  0.2947  0.0432 -0.0418
 1165PYPI   PO416638   1.129  15.236   5.926 -0.1071 -0.1479  0.1863
 1165PYPI   GL116639   0.883  15.069   6.251  0.0843  0.0603  0.2723
 1165PYPI   GL216640   0.927  14.813   6.256 -0.3453  0.0608 -0.2302
 1165PYPI   C1A16641   0.989  15.246   6.647 -0.1122 -0.2105  0.0002
 1165PYPI   C2A16642   0.904  15.254   7.049 -0.3699  0.1416 -0.1869
 1165PYPI   D3A16643   0.935  15.316   7.495  0.0889 -0.2162  0.1961
 1165PYPI   C4A16644   0.679  15.167   7.891 -0.0590  0.3262  0.4344
 1165PYPI   C1B16645   1.123  14.729   6.653  0.0990 -0.0150 -0.0721
 1165PYPI   C2B16646   1.089  14.770   7.099 -0.0141 -0.0097 -0.0237
 1165PYPI   C3B16647   0.991  14.803   7.509  0.1215 -0.2089 -0.1007
 1165PYPI   C4B16648   0.787  14.638   7.881 -0.0715  0.2804  0.0140
 1166PYPI    C116649   9.643   3.915   5.785 -0.1762 -0.0403  0.0428
 1166PYPI    C216650   9.870   4.240   5.728 -0.0050 -0.1426  0.1320
 1166PYPI    C316651   9.918   3.919   5.494 -0.1149 -0.1351  0.0986
 1166PYPI   PO416652   9.672   3.909   6.091  0.3226  0.1284 -0.3731
 1166PYPI   GL116653   9.743   4.126   6.468  0.2084  0.0105 -0.1492
 1166PYPI   GL216654   9.614   4.398   6.574 -0.0317 -0.0905 -0.0664
 1166PYPI   C1A16655   9.896   4.017   6.865  0.1481  0.2717 -0.0330
 1166PYPI   C2A16656   9.929   4.089   7.314  0.2567 -0.2190 -0.0658
 1166PYPI   D3A16657  10.186   3.977   7.732 -0.0513  0.2217 -0.0882
 1166PYPI   C4A16658  10.269   3.690   7.989 -0.1272  0.1745  0.0191
 1166PYPI   C1B16659   9.750   4.491   6.992  0.3458 -0.0006  0.0462
 1166PYPI   C2B16660   9.656   4.824   7.302  0.0572  0.0949  0.1213
 1166PYPI   C3B16661   9.474   5.091   7.492  0.1790  0.1913  0.2074
 1166PYPI   C4B16662   9.252   5.092   7.831 -0.1380 -0.0864  0.1774
 1167PYPI    C116663   7.470   2.361   6.187 -0.2006  0.0682 -0.1324
 1167PYPI    C216664   7.189   2.078   6.218 -0.0606 -0.0789 -0.1957
 1167PYPI    C316665   7.475   2.047   5.940 -0.0968  0.1720 -0.2636
 1167PYPI   PO416666   7.369   2.521   6.450  0.0893 -0.1236  0.4017
 1167PYPI   GL116667   7.404   2.468   6.906  0.0033 -0.2581 -0.1076
 1167PYPI   GL216668   7.702   2.550   6.813  0.1909 -0.0908 -0.1919
 1167PYPI   C1A16669   7.386   2.543   7.325  0.1415 -0.0849  0.1744
 1167PYPI   C2A16670   7.419   2.587   7.808  0.0379  0.2844 -0.0455
 1167PYPI   D3A16671   7.067   2.672   8.103  0.2400 -0.1287 -0.1307
 1167PYPI   C4A16672   6.923   2.419   8.461  0.0084 -0.3580 -0.2629
 1167PYPI   C1B16673   7.896   2.402   7.242  0.1892 -0.0012 -0.0242
 1167PYPI   C2B16674   8.038   2.149   7.586 -0.2740 -0.2295  0.3922
 1167PYPI   C3B16675   7.900   2.107   7.956  0.0486 -0.2383 -0.1447
 1167PYPI   C4B16676   7.803   1.905   8.314 -0.1289  0.3895  0.2062
 1168PYPI    C116677  12.966   6.738   5.873 -0.0001  0.0221 -0.1796
 1168PYPI    C216678  12.917   7.096   6.044 -0.2961 -0.0656 -0.0741
 1168PYPI    C316679  13.240   7.024   5.820 -0.1919  0.2383 -0.0263
 1168PYPI   PO416680  12.963   6.580   6.064 -0.2799  0.1934 -0.0637
 1168PYPI   GL116681  12.802   6.279   6.420 -0.0768 -0.1310 -0.2498
 1168PYPI   GL216682  12.444   6.395   6.552  0.0089 -0.0853  0.1753
 1168PYPI   C1A16683  12.808   6.153   6.819  0.0814  0.0867  0.4170
 1168PYPI   C2A16684  12.927   6.126   7.183  0.0425  0.0402  0.0627
 1168PYPI   D3A16685  12.911   6.158   7.664  0.1147  0.0049 -0.0644
 1168PYPI   C4A16686  12.872   6.460   7.945  0.2186 -0.0436  0.1289
 1168PYPI   C1B16687  12.362   6.245   6.921 -0.1424  0.0361  0.2774
 1168PYPI   C2B16688  12.432   6.082   7.365 -0.1338 -0.0639  0.2110
 1168PYPI   C3B16689  12.456   5.974   7.745 -0.1881  0.0509 -0.5167
 1168PYPI   C4B16690  12.608   5.713   8.088 -0.3864 -0.1945  0.1264
 1169PYPI    C116691   8.690   5.576   5.652  0.4086 -0.2938  0.0191
 1169PYPI    C216692   8.432   5.273   5.610 -0.0753  0.0945  0.0969
 1169PYPI    C316693   8.581   5.455   5.286  0.0856 -0.1137  0.0518
 1169PYPI   PO416694   8.601   5.723   5.823 -0.1231 -0.0877  0.1354
 1169PYPI   GL116695   8.682   6.168   6.037 -0.1640  0.0173  0.1355
 1169PYPI   GL216696   8.783   6.409   6.005 -0.1818  0.2362  0.0777
 1169PYPI   C1A16697   8.585   5.826   6.428  0.0359  0.0284 -0.1572
 1169PYPI   C2A16698   8.307   5.645   6.810 -0.1997  0.1091 -0.1420
 1169PYPI   D3A16699   8.196   5.617   7.221 -0.1134  0.0133  0.2801
 1169PYPI   C4A16700   7.987   6.020   7.407 -0.1499 -0.1334  0.2138
 1169PYPI   C1B16701   8.955   6.310   6.461 -0.2443  0.0007 -0.3128
 1169PYPI   C2B16702   9.013   6.493   6.807  0.1712  0.0089 -0.4427
 1169PYPI   C3B16703   8.975   6.406   7.134 -0.1449 -0.2692 -0.0456
 1169PYPI   C4B16704   9.119   6.099   7.380  0.1489 -0.0190  0.1818
 1170PYPI    C116705  13.847   7.802   5.805 -0.1355  0.1200  0.0389
 1170PYPI    C216706  13.527   7.948   5.614 -0.0674  0.2079 -0.0088
 1170PYPI    C316707  13.887   7.957   5.439 -0.0350  0.1271  0.0526
 1170PYPI   PO416708  13.771   7.905   6.050  0.1481  0.0759  0.2427
 1170PYPI   GL116709  13.721   7.826   6.396 -0.1062 -0.1926  0.2554
 1170PYPI   GL216710  14.025   7.719   6.508  0.1544 -0.2608  0.1204
 1170PYPI   C1A16711  13.424   7.870   6.762 -0.1297  0.2112  0.1964
 1170PYPI   C2A16712  13.440   8.115   7.148 -0.1162 -0.0381  0.4650
 1170PYPI   D3A16713  13.551   8.340   7.610  0.1771 -0.0022  0.1110
 1170PYPI   C4A16714  13.838   8.176   7.892  0.0620 -0.0444 -0.1947
 1170PYPI   C1B16715  13.946   7.847   6.959 -0.1057  0.1630 -0.2076
 1170PYPI   C2B16716  14.005   7.872   7.413  0.0356 -0.0789 -0.1016
 1170PYPI   C3B16717  14.199   7.761   7.780  0.0894 -0.1185  0.0266
 1170PYPI   C4B16718  14.330   7.756   8.138  0.0365  0.3497  0.3667
 1171PYPI    C116719   5.776   0.354   5.853 -0.0464 -0.1606 -0.0679
 1171PYPI    C216720   5.899  -0.010   5.742 -0.1202 -0.1504 -0.1849
 1171PYPI    C316721   5.934   0.299   5.490 -0.0602 -0.0766 -0.0869
 1171PYPI   PO416722   5.879   0.420   6.202 -0.1299 -0.1961  0.1598
 1171PYPI   GL116723   5.700   0.618   6.542 -0.3982  0.1700  0.0905
 1171PYPI   GL216724   5.488   0.317   6.541 -0.0437  0.0252 -0.0153
 1171PYPI   C1A16725   5.364   0.715   6.877  0.0205  0.2048 -0.1119
 1171PYPI   C2A16726   5.127   0.769   7.368 -0.0489 -0.0025 -0.0883
 1171PYPI   D3A16727   4.964   0.781   7.769  0.1712 -0.0444 -0.0819
 1171PYPI   C4A16728   5.035   0.984   8.131  0.0378 -0.0445 -0.0982
 1171PYPI   C1B16729   5.336   0.214   6.979  0.4212 -0.0296 -0.0101
 1171PYPI   C2B16730   5.403   0.323   7.444 -0.4313 -0.2046  0.0269
 1171PYPI   C3B16731   5.517   0.624   7.698  0.1823  0.0391  0.1708
 1171PYPI   C4B16732   5.506   0.825   8.058  0.0076  0.1260 -0.1207
 1172PYPI    C116733   0.838   2.777   5.875 -0.1772 -0.0529 -0.0139
 1172PYPI    C216734   0.958   3.097   5.667  0.2521  0.0082  0.3126
 1172PYPI    C316735   0.969   2.734   5.499 -0.1538  0.1446 -0.0292
 1172PYPI   PO416736   0.852   2.841   6.191 -0.1025 -0.0107 -0.4028
 1172PYPI   GL116737   0.650   3.080   6.552  0.2432 -0.0393  0.2145
 1172PYPI   GL216738   0.606   3.376   6.564  0.1252  0.2395 -0.2119
 1172PYPI   C1A16739   0.892   2.942   6.831 -0.2093 -0.0947  0.3211
 1172PYPI   C2A16740   1.063   2.758   7.188  0.0661  0.0122 -0.1959
 1172PYPI   D3A16741   1.215   2.502   7.548 -0.0204 -0.1023  0.0696
 1172PYPI   C4A16742   0.997   2.454   7.964 -0.1795  0.0797  0.1052
 1172PYPI   C1B16743   0.854   3.446   6.974 -0.1744 -0.0831  0.2286
 1172PYPI   C2B16744   0.997   3.620   7.314 -0.0680  0.0418 -0.0392
 1172PYPI   C3B16745   1.154   3.564   7.677 -0.0450  0.0160  0.0060
 1172PYPI   C4B16746   1.018   3.546   8.023  0.3897  0.1333 -0.1423
 1173PYPI    C116747  16.017   1.353   5.710  0.3100  0.1984  0.0898
 1173PYPI    C216748  16.160   1.104   5.432  0.0272  0.0867  0.0411
 1173PYPI    C316749  16.260   1.492   5.424 -0.0333  0.0986 -0.2581
 1173PYPI   PO416750  15.977   1.209   5.917 -0.0174 -0.0637 -0.0979
 1173PYPI   GL116751  15.952   1.242   6.326  0.1481  0.0552  0.0986
 1173PYPI   GL216752  16.090   1.363   6.568 -0.1206 -0.2283  0.1848
 1173PYPI   C1A16753  15.586   1.293   6.627  0.1934 -0.4625 -0.0284
 1173PYPI   C2A16754  15.604   1.323   7.002  0.0540 -0.1473 -0.3776
 1173PYPI   D3A16755  15.858   1.335   7.346 -0.2536  0.0584 -0.1195
 1173PYPI   C4A16756  16.094   1.419   7.686  0.1374  0.1489  0.0892
 1173PYPI   C1B16757  16.068   1.015   6.934  0.0643 -0.0925 -0.0840
 1173PYPI   C2B16758  16.006   0.834   7.414  0.3655  0.1483  0.1367
 1173PYPI   C3B16759  15.920   0.625   7.830  0.3262  0.0309  0.3569
 1173PYPI   C4B16760  15.919   0.591   8.230  0.1291  0.0874 -0.1276
 1174PYPI    C116761   9.226   9.075   5.702 -0.0281 -0.2566 -0.0318
 1174PYPI    C216762   8.842   8.979   5.644 -0.1299  0.0041  0.1886
 1174PYPI    C316763   9.083   9.040   5.330 -0.3737  0.2440  0.0438
 1174PYPI   PO416764   9.218   9.148   5.921  0.0045  0.0300 -0.3673
 1174PYPI   GL116765   8.990   9.166   6.218  0.0387  0.1020  0.1337
 1174PYPI   GL216766   8.802   8.946   6.148 -0.0089  0.0251  0.0951
 1174PYPI   C1A16767   8.744   9.075   6.643  0.0034 -0.2393  0.0790
 1174PYPI   C2A16768   8.688   9.139   7.037  0.1196  0.1207 -0.1306
 1174PYPI   D3A16769   8.667   9.006   7.395 -0.1554 -0.0266 -0.3054
 1174PYPI   C4A16770   8.427   9.045   7.729  0.0924  0.2534 -0.1486
 1174PYPI   C1B16771   8.565   8.615   6.379  0.1742  0.2688 -0.4675
 1174PYPI   C2B16772   8.555   8.601   6.801  0.0968 -0.2006  0.0789
 1174PYPI   C3B16773   8.642   8.556   7.258  0.4507  0.0294  0.4363
 1174PYPI   C4B16774   8.541   8.560   7.661  0.2000  0.1966  0.0357
 1175PYPI    C116775   1.173   1.076   6.103  0.2517  0.3418 -0.2294
 1175PYPI    C216776   1.491   0.883   6.248 -0.0561  0.0777  0.1120
 1175PYPI    C316777   1.358   0.801   5.880  0.1829  0.0873  0.0219
 1175PYPI   PO416778   1.063   1.119   6.299  0.1975 -0.0250 -0.1961
 1175PYPI   GL116779   0.878   0.967   6.650  0.0690  0.0121  0.0722
 1175PYPI   GL216780   0.930   0.606   6.683  0.0518 -0.1585 -0.0723
 1175PYPI   C1A16781   0.781   1.083   7.015 -0.0151 -0.0955  0.0227
 1175PYPI   C2A16782   0.774   1.083   7.458 -0.0661  0.2405  0.2037
 1175PYPI   D3A16783   0.638   1.057   7.936 -0.1774 -0.0748  0.1987
 1175PYPI   C4A16784   0.985   1.072   8.224 -0.1142 -0.0446  0.0350
 1175PYPI   C1B16785   0.888   0.623   7.094  0.2260 -0.1018 -0.0929
 1175PYPI   C2B16786   1.006   0.637   7.461 -0.1782  0.1258 -0.0196
 1175PYPI   C3B16787   0.997   0.684   7.845  0.0066 -0.3803 -0.0845
 1175PYPI   C4B16788   1.159   0.648   8.111  0.0027  0.0028  0.1825
 1176PYPI    C116789   2.706  17.547   6.013  0.1462  0.3174 -0.1641
 1176PYPI    C216790   2.445  17.794   5.838 -0.2901 -0.1260 -0.1595
 1176PYPI    C316791   2.438  17.403   5.753 -0.1135 -0.2590  0.3962
 1176PYPI   PO416792   2.717  17.687   6.283 -0.1587  0.1061  0.1107
 1176PYPI   GL116793   2.882  17.490   6.610  0.0097 -0.2294 -0.0616
 1176PYPI   GL216794   2.666  17.463   6.799  0.0925  0.3015  0.0541
 1176PYPI   C1A16795   3.097  17.619   6.980 -0.1983 -0.1290  0.1906
 1176PYPI   C2A16796   3.262  17.611   7.381 -0.1102  0.3116 -0.1566
 1176PYPI   D3A16797   3.189  17.540   7.871 -0.1617  0.0817  0.0050
 1176PYPI   C4A16798   3.455  17.567   8.208 -0.2317 -0.0098 -0.0960
 1176PYPI   C1B16799   2.853  17.246   7.113  0.0951  0.1143 -0.2885
 1176PYPI   C2B16800   2.835  17.161   7.508  0.2276 -0.0441  0.0852
 1176PYPI   C3B16801   2.936  17.138   8.012  0.3978 -0.1454  0.0389
 1176PYPI   C4B16802   3.072  17.144   8.442  0.2578  0.2968  0.2793
 1177PYPI    C116803  10.867  15.778   6.216  0.0833  0.1456  0.1087
 1177PYPI    C216804  10.604  15.787   5.915  0.1373 -0.1123  0.0507
 1177PYPI    C316805  10.722  16.128   6.089 -0.1281  0.0154 -0.0141
 1177PYPI   PO416806  10.670  15.569   6.369 -0.1709  0.0477  0.4196
 1177PYPI   GL116807  10.857  15.437   6.717 -0.0075  0.1277 -0.1020
 1177PYPI   GL216808  10.873  15.838   6.752 -0.1170  0.0335  0.0970
 1177PYPI   C1A16809  10.950  15.551   7.133  0.0821  0.1340 -0.0968
 1177PYPI   C2A16810  10.975  15.656   7.517 -0.0551  0.1512  0.0142
 1177PYPI   D3A16811  10.903  15.779   7.889 -0.0356 -0.0320 -0.0994
 1177PYPI   C4A16812  11.299  15.727   8.228 -0.0717  0.1884 -0.2266
 1177PYPI   C1B16813  10.932  16.023   7.153 -0.0220  0.1694 -0.4369
 1177PYPI   C2B16814  11.048  16.108   7.512 -0.0348  0.2835  0.1894
 1177PYPI   C3B16815  11.154  16.222   7.908 -0.0081 -0.0541  0.0084
 1177PYPI   C4B16816  10.920  16.161   8.308 -0.3950 -0.1558 -0.0902
 1178PYPI    C116817   6.825  14.995   6.049 -0.0257 -0.0865  0.0517
 1178PYPI    C216818   6.464  15.021   6.220 -0.0022  0.0589  0.0805
 1178PYPI    C316819   6.604  15.325   6.001  0.0292 -0.0678 -0.0778
 1178PYPI   PO416820   6.913  14.730   6.236 -0.2138  0.0176 -0.0575
 1178PYPI   GL116821   7.083  14.759   6.619  0.3449  0.1992 -0.3376
 1178PYPI   GL216822   7.416  14.634   6.634 -0.1471 -0.1240  0.2290
 1178PYPI   C1A16823   7.101  14.565   7.018 -0.1814 -0.3644  0.2086
 1178PYPI   C2A16824   7.138  14.499   7.528  0.2891 -0.0411  0.1487
 1178PYPI   D3A16825   7.213  14.503   8.060  0.0313  0.0270  0.1077
 1178PYPI   C4A16826   6.926  14.649   8.314  0.0775  0.1293  0.0227
 1178PYPI   C1B16827   7.572  14.426   6.944 -0.0492  0.0059  0.0716
 1178PYPI   C2B16828   7.517  14.112   7.256 -0.1060  0.0556 -0.2140
 1178PYPI   C3B16829   7.656  14.299   7.717 -0.0543  0.2833  0.1103
 1178PYPI   C4B16830   7.710  14.482   8.142 -0.1700  0.0470  0.1594
 1179PYPI    C116831   7.684  12.672   6.025 -0.0547 -0.2376  0.0509
 1179PYPI    C216832   7.502  12.534   5.697 -0.5407  0.2284  0.1108
 1179PYPI    C316833   7.763  12.836   5.668  0.0245 -0.2470  0.0639
 1179PYPI   PO416834   7.692  12.471   6.181 -0.1409  0.1203  0.1151
 1179PYPI   GL116835   7.543  12.459   6.603 -0.0818  0.1623 -0.1346
 1179PYPI   GL216836   7.730  12.240   6.639 -0.1674  0.0607  0.3492
 1179PYPI   C1A16837   7.380  12.753   6.902 -0.2561  0.0025 -0.1024
 1179PYPI   C2A16838   7.435  12.703   7.307 -0.1214  0.3475  0.1212
 1179PYPI   D3A16839   7.600  12.797   7.637  0.1713  0.4080 -0.0856
 1179PYPI   C4A16840   7.988  12.940   7.743  0.0075  0.2158  0.2234
 1179PYPI   C1B16841   7.611  12.262   7.071  0.2527  0.2646 -0.0828
 1179PYPI   C2B16842   7.644  12.247   7.576  0.0093 -0.0906  0.0252
 1179PYPI   C3B16843   7.546  12.215   8.006 -0.0800 -0.0217 -0.1527
 1179PYPI   C4B16844   7.618  12.061   8.344  0.1727 -0.0684 -0.2524
 1180ERGO   ROH16845   9.674   3.648   6.553 -0.2308 -0.0222  0.0422
 1180ERGO    R116846   9.713   3.525   6.805 -0.1215  0.0121  0.0412
 1180ERGO    R216847   9.944   3.560   6.954 -0.0808  0.0710 -0.0450
 1180ERGO    R316848   9.768   3.635   7.148 -0.0253  0.0557  0.0136
 1180ERGO    R416849  10.009   3.555   7.293 -0.1033 -0.3256 -0.0411
 1180ERGO    R516850   9.807   3.481   7.326 -0.1847 -0.1644 -0.1309
 1180ERGO    C116851   9.883   3.622   7.672 -0.0643 -0.5708  0.0162
 1180ERGO    C216852   9.800   3.517   7.968 -0.2273 -0.1661  0.0887
 1181ERGO   ROH16853   8.056   8.996   6.392 -0.0508  0.1715 -0.0449
 1181ERGO    R116854   8.165   8.877   6.625 -0.0424  0.1575 -0.0590
 1181ERGO    R216855   8.227   9.024   6.851 -0.2430  0.1087  0.0146
 1181ERGO    R316856   8.066   8.842   6.974 -0.1383 -0.0757 -0.1030
 1181ERGO    R416857   8.193   8.992   7.193 -0.5909  0.2234 -0.0030
 1181ERGO    R516858   8.191   8.775   7.167 -0.2485  0.1890  0.0798
 1181ERGO    C116859   8.023   8.803   7.508 -0.6954  0.1171 -0.1236
 1181ERGO    C216860   7.861   8.876   7.794  0.0707 -0.0110 -0.1787
 1182ERGO   ROH16861   5.357   8.590   6.199  0.0402  0.1056  0.0162
 1182ERGO    R116862   5.227   8.549   6.447 -0.0715 -0.0669 -0.0662
 1182ERGO    R216863   5.251   8.314   6.591  0.0213 -0.1043 -0.1183
 1182ERGO    R316864   5.328   8.481   6.790 -0.2066 -0.0987 -0.0360
 1182ERGO    R416865   5.273   8.225   6.924  0.0757 -0.1987 -0.1485
 1182ERGO    R516866   5.189   8.419   6.976 -0.1550 -0.3275 -0.0825
 1182ERGO    C116867   5.359   8.331   7.306 -0.1066 -0.2482 -0.0889
 1182ERGO    C216868   5.104   8.261   7.605  0.0642  0.1756  0.0930
 1183ERGO   ROH16869   6.734  14.332   6.722  0.3089  0.2590 -0.0178
 1183ERGO    R116870   6.608  14.361   6.974  0.2067  0.3046 -0.0728
 1183ERGO    R216871   6.638  14.177   7.178 -0.1714  0.1460 -0.1479
 1183ERGO    R316872   6.714  14.396   7.320  0.0663 -0.0335  0.0068
 1183ERGO    R416873   6.616  14.207   7.522 -0.2926 -0.0078 -0.1416
 1183ERGO    R516874   6.551  14.413   7.495  0.0064  0.0987 -0.0632
 1183ERGO    C116875   6.675  14.429   7.855 -0.1400 -0.2659  0.0073
 1183ERGO    C216876   6.550  14.390   8.149  0.2442  0.2785 -0.1527
 1184ERGO   ROH16877   2.078  17.342   6.677  0.1430  0.0930 -0.0556
 1184ERGO    R116878   2.228  17.275   6.908  0.2483  0.2753 -0.0698
 1184ERGO    R216879   2.292  17.460   7.102 -0.1155  0.3223  0.0110
 1184ERGO    R316880   2.175  17.279   7.268  0.2008  0.0296 -0.0712
 1184ERGO    R416881   2.367  17.421   7.438 -0.0156  0.2696 -0.0165
 1184ERGO    R516882   2.351  17.205   7.411  0.3456  0.2500 -0.1292
 1184ERGO    C116883   2.299  17.228   7.788  0.3396 -0.0359 -0.1097
 1184ERGO    C216884   2.437  17.237   8.077  0.0067 -0.2253 -0.2167
 1185ERGO   ROH16885   9.979  17.663   6.698 -0.0037  0.2406  0.0334
 1185ERGO    R116886  10.177  17.738   6.887  0.0194  0.1591  0.0425
 1185ERGO    R216887  10.124  17.910   7.096  0.0728  0.1543  0.0609
 1185ERGO    R316888  10.224  17.707   7.246  0.0078  0.1064  0.0393
 1185ERGO    R416889  10.177  17.923   7.438  0.1199  0.1171  0.0550
 1185ERGO    R516890  10.363  17.815   7.408  0.0716  0.0422  0.0274
 1185ERGO    C116891  10.301  17.740   7.777  0.0862  0.0507  0.0312
 1185ERGO    C216892  10.295  17.595   8.160  0.0520  0.2206 -0.1399
 1186ERGO   ROH16893   0.429   0.751   6.836  0.2108 -0.0421  0.1449
 1186ERGO    R116894   0.379   0.783   7.113  0.2175  0.0204  0.1386
 1186ERGO    R216895   0.291   0.576   7.273  0.0213  0.1101  0.1443
 1186ERGO    R316896   0.509   0.641   7.423  0.0680 -0.0737  0.1602
 1186ERGO    R416897   0.313   0.540   7.616  0.0081 -0.0312  0.1314
 1186ERGO    R516898   0.417   0.732   7.625  0.1247 -0.0919  0.1978
 1186ERGO    C116899   0.529   0.581   7.956  0.0442 -0.2861  0.1388
 1186ERGO    C216900   0.575   0.673   8.411  0.0319 -0.1516  0.1746
 1187ERGO   ROH16901   8.568   5.262   6.085  0.1469 -0.0982  0.0385
 1187ERGO    R116902   8.699   5.216   6.331  0.2148 -0.0253  0.0173
 1187ERGO    R216903   8.840   5.413   6.464  0.1191  0.0598  0.0027
 1187ERGO    R316904   8.677   5.343   6.671  0.1886 -0.0454  0.0218
 1187ERGO    R416905   8.848   5.556   6.778 -0.0337  0.1570 -0.0371
 1187ERGO    R516906   8.818   5.358   6.864  0.1686  0.1536  0.0189
 1187ERGO    C116907   8.701   5.575   7.155 -0.0574  0.1149 -0.0425
 1187ERGO    C216908   8.658   5.786   7.518 -0.0733  0.1365  0.0841
 1188ERGO   ROH16909   3.138   2.225   6.533  0.1393 -0.0194 -0.0655
 1188ERGO    R116910   3.307   2.306   6.745  0.0874  0.0653 -0.0563
 1188ERGO    R216911   3.299   2.560   6.853 -0.0901  0.0425 -0.0147
 1188ERGO    R316912   3.265   2.425   7.086  0.0107 -0.0206 -0.0353
 1188ERGO    R416913   3.430   2.655   7.158  0.1389 -0.1032 -0.0649
 1188ERGO    R516914   3.474   2.446   7.199  0.0913 -0.1324 -0.1611
 1188ERGO    C116915   3.474   2.582   7.555  0.3668 -0.2473 -0.1135
 1188ERGO    C216916   3.449   2.656   7.945 -0.1690 -0.0478  0.3275
 1189ERGO   ROH16917   3.651  15.260   6.587  0.0887  0.0807  0.0421
 1189ERGO    R116918   3.526  15.027   6.686  0.2236  0.0522  0.1497
 1189ERGO    R216919   3.502  14.973   6.956  0.0576  0.2731  0.1832
 1189ERGO    R316920   3.238  14.949   6.895  0.1250 -0.0199 -0.0111
 1189ERGO    R416921   3.276  14.781   7.132  0.0799  0.2630  0.2000
 1189ERGO    R516922   3.187  14.720   6.943  0.2867 -0.0163  0.1880
 1189ERGO    C116923   2.897  14.645   7.178  0.1561 -0.0179  0.0274
 1189ERGO    C216924   2.675  14.536   7.332  0.2871 -0.0323  0.1809
 1190ERGO   ROH16925  16.153   2.532   6.290 -0.1240  0.2179  0.0135
 1190ERGO    R116926  16.149   2.391   6.536 -0.3878  0.3000  0.0602
 1190ERGO    R216927  16.380   2.300   6.659 -0.5568 -0.2806 -0.0187
 1190ERGO    R316928  16.283   2.441   6.870 -0.0929  0.0596 -0.0188
 1190ERGO    R416929  16.414   2.208   6.990 -0.4029 -0.0954  0.0186
 1190ERGO    R516930  16.210   2.274   7.025 -0.2537  0.3075  0.1783
 1190ERGO    C116931  16.344   2.286   7.382  0.1220  0.3318  0.0401
 1190ERGO    C216932  16.283   2.243   7.728  0.1652  0.1729  0.2634
 1191ERGO   ROH16933  12.808  12.691   6.252  0.2807 -0.2284  0.0557
 1191ERGO    R116934  12.627  12.659   6.467  0.1167 -0.1517 -0.0682
 1191ERGO    R216935  12.596  12.419   6.601 -0.0412 -0.1251 -0.0551
 1191ERGO    R316936  12.648  12.571   6.820 -0.1591 -0.1085 -0.0380
 1191ERGO    R416937  12.512  12.334   6.925 -0.1018 -0.1632 -0.0808
 1191ERGO    R516938  12.457  12.542   6.960 -0.1891 -0.1831 -0.0928
 1191ERGO    C116939  12.513  12.428   7.319 -0.2477 -0.1698 -0.0797
 1191ERGO    C216940  12.451  12.352   7.639  0.3167 -0.1338  0.2067
 1192ERGO   ROH16941   7.325  11.236   6.502 -0.2100 -0.0429 -0.1725
 1192ERGO    R116942   7.217  11.064   6.699 -0.0673 -0.0041 -0.0594
 1192ERGO    R216943   7.375  10.932   6.883  0.0577  0.1106 -0.0850
 1192ERGO    R316944   7.208  11.051   7.063  0.1051  0.1241 -0.0488
 1192ERGO    R416945   7.381  10.878   7.225 -0.0028 -0.0442 -0.1070
 1192ERGO    R516946   7.163  10.880   7.224 -0.0038  0.0754 -0.1279
 1192ERGO    C116947   7.229  10.958   7.592  0.0066 -0.1218 -0.0859
 1192ERGO    C216948   7.247  10.964   7.997  0.0261  0.2125 -0.0661
 1193ERGO   ROH16949  16.479   5.002   6.335  0.2182  0.0884  0.0168
 1193ERGO    R116950  16.636   5.072   6.559  0.1519  0.2287  0.0215
 1193ERGO    R216951  16.545   5.240   6.758 -0.0334  0.0906  0.0613
 1193ERGO    R316952  16.614   5.034   6.921  0.2128  0.1338  0.0145
 1193ERGO    R416953  16.527   5.246   7.103  0.0578  0.0203  0.0670
 1193ERGO    R516954  16.716   5.138   7.110  0.1630  0.2040 -0.0002
 1193ERGO    C116955  16.581   5.055   7.457  0.3420  0.0198  0.0264
 1193ERGO    C216956  16.298   5.146   7.729  0.0663  0.1727  0.1137
 1194ERGO   ROH16957   9.465   6.484   6.262 -0.1526  0.1555  0.0641
 1194ERGO    R116958   9.449   6.381   6.525 -0.1493  0.1075  0.0453
 1194ERGO    R216959   9.669   6.364   6.691 -0.1345  0.0118  0.0137
 1194ERGO    R316960   9.511   6.505   6.862 -0.0728  0.0222  0.0633
 1194ERGO    R416961   9.686   6.346   7.036  0.0647  0.1116  0.0107
 1194ERGO    R516962   9.468   6.354   7.042  0.0646  0.0609  0.1314
 1194ERGO    C116963   9.548   6.469   7.397  0.2387  0.1794  0.0556
 1194ERGO    C216964   9.586   6.450   7.752 -0.1771 -0.0421  0.0608
 1195ERGO   ROH16965   0.305   3.810   6.423 -0.0999  0.0556  0.0140
 1195ERGO    R116966   0.443   3.876   6.661  0.0099 -0.0786 -0.0109
 1195ERGO    R216967   0.313   3.965   6.888  0.1394  0.0799  0.0021
 1195ERGO    R316968   0.447   3.759   7.006 -0.0667 -0.0607 -0.0036
 1195ERGO    R416969   0.387   3.944   7.225  0.1472  0.0132 -0.0033
 1195ERGO    R516970   0.583   3.865   7.173  0.0610 -0.1975 -0.0184
 1195ERGO    C116971   0.555   3.740   7.532 -0.0418 -0.1576 -0.0119
 1195ERGO    C216972   0.495   3.537   7.830  0.2202 -0.2362 -0.1816
 1196ERGO   ROH16973  10.898  14.954   6.547 -0.2681  0.0189  0.2282
 1196ERGO    R116974  11.090  14.930   6.753 -0.1834  0.0080  0.1487
 1196ERGO    R216975  11.227  15.148   6.854 -0.0835 -0.0080  0.0516
 1196ERGO    R316976  11.132  15.057   7.092 -0.0034  0.0587  0.1082
 1196ERGO    R416977  11.360  15.226   7.164  0.0537  0.0297 -0.0163
 1196ERGO    R516978  11.328  15.019   7.224  0.0407  0.0505  0.0379
 1196ERGO    C116979  11.349  15.186   7.567  0.2089  0.1142 -0.0028
 1196ERGO    C216980  11.281  15.388   7.761 -0.4377  0.3339 -0.0036
 1197ERGO   ROH16981   9.743  10.431   6.239  0.2293  0.1008  0.0154
 1197ERGO    R116982   9.824  10.340   6.494  0.1509  0.0423  0.0199
 1197ERGO    R216983   9.793  10.490   6.723 -0.0410 -0.0644  0.0659
 1197ERGO    R316984   9.665  10.268   6.813  0.0295 -0.1681 -0.0859
 1197ERGO    R416985   9.714  10.429   7.054 -0.3249 -0.1572 -0.0164
 1197ERGO    R516986   9.770  10.220   7.023 -0.1422 -0.1139  0.0142
 1197ERGO    C116987   9.547  10.184   7.331 -0.4240 -0.3086 -0.2069
 1197ERGO    C216988   9.461  10.038   7.670  0.2111  0.1001 -0.1911
 1198ERGO   ROH16989   4.923  11.745   6.487  0.3077 -0.0893 -0.1347
 1198ERGO    R116990   4.840  11.586   6.706  0.0817  0.0696 -0.1017
 1198ERGO    R216991   5.017  11.443   6.861 -0.1178 -0.1462 -0.0703
 1198ERGO    R316992   4.899  11.579   7.065  0.0655  0.0620 -0.0987
 1198ERGO    R416993   5.050  11.364   7.196 -0.3882 -0.2565 -0.0669
 1198ERGO    R516994   4.838  11.409   7.222 -0.3220  0.1512 -0.1398
 1198ERGO    C116995   4.959  11.446   7.582 -0.3735 -0.1253 -0.0915
 1198ERGO    C216996   4.961  11.474   7.957  0.3346 -0.0388  0.3420
 1199ERGO   ROH16997  10.543  16.179   6.584  0.0289 -0.1151  0.1186
 1199ERGO    R116998  10.476  16.331   6.813  0.1033 -0.0151  0.0743
 1199ERGO    R216999  10.342  16.224   7.030  0.0246  0.1199  0.0933
 1199ERGO    R317000  10.553  16.324   7.168  0.0746  0.0316  0.0816
 1199ERGO    R417001  10.363  16.238   7.374  0.0792  0.0515  0.0930
 1199ERGO    R517002  10.454  16.435   7.356  0.1354  0.0275  0.1160
 1199ERGO    C117003  10.574  16.339   7.705  0.1579 -0.0712  0.0818
 1199ERGO    C217004  10.607  16.175   7.957 -0.0153  0.2161  0.2587
 1200ERGO   ROH17005   5.301   3.044   6.745 -0.0962  0.0886  0.0084
 1200ERGO    R117006   5.220   2.985   7.010 -0.0392  0.0673  0.0208
 1200ERGO    R217007   5.401   2.955   7.217  0.0005  0.1275 -0.0054
 1200ERGO    R317008   5.247   3.145   7.335 -0.0424  0.0809  0.0144
 1200ERGO    R417009   5.373   3.003   7.558 -0.0225  0.0774  0.0001
 1200ERGO    R517010   5.160   3.038   7.531 -0.0284  0.0378 -0.0028
 1200ERGO    C117011   5.211   3.209   7.868 -0.0761  0.0044  0.0220
 1200ERGO    C217012   5.016   3.247   8.255  0.2179 -0.1743  0.1788
 1201ERGO   ROH17013   5.256   4.264   6.471  0.0853 -0.0146 -0.0542
 1201ERGO    R117014   5.203   4.408   6.710  0.1513 -0.0162 -0.0391
 1201ERGO    R217015   5.007   4.332   6.889  0.0333  0.1247 -0.1102
 1201ERGO    R317016   5.212   4.339   7.067 -0.0083 -0.0991 -0.0497
 1201ERGO    R417017   4.972   4.306   7.232 -0.1260  0.3958 -0.1025
 1201ERGO    R517018   5.125   4.460   7.254  0.1230  0.1662 -0.1530
 1201ERGO    C117019   5.145   4.297   7.598 -0.2579  0.3437 -0.0412
 1201ERGO    C217020   5.113   4.098   7.900  0.2531  0.0065  0.1725
 1202ERGO   ROH17021  17.330  17.168   6.553 -0.2536 -0.0478  0.0556
 1202ERGO    R117022  17.207  17.155   6.808 -0.1703  0.1110  0.1056
 1202ERGO    R217023  17.249  16.945   6.983 -0.2995  0.0983  0.1266
 1202ERGO    R317024  17.318  17.144   7.155 -0.0455  0.0672  0.0639
 1202ERGO    R417025  17.268  16.914   7.327 -0.2048  0.1546  0.1265
 1202ERGO    R517026  17.178  17.110   7.346 -0.0077  0.2434  0.1210
 1202ERGO    C117027  17.345  17.083   7.688  0.0885  0.1583  0.0674
 1202ERGO    C217028  17.357  17.256   8.057  0.3627  0.0678 -0.2117
 1203ERGO   ROH17029   9.508  16.489   7.023  0.1428 -0.1432  0.0434
 1203ERGO    R117030   9.540  16.369   7.277  0.0036 -0.0330  0.1143
 1203ERGO    R217031   9.729  16.455   7.460  0.0168 -0.0630  0.1128
 1203ERGO    R317032   9.514  16.474   7.625 -0.0096  0.1644  0.0553
 1203ERGO    R417033   9.745  16.452   7.805 -0.0842 -0.2127  0.1173
 1203ERGO    R517034   9.566  16.327   7.807 -0.2571  0.0234  0.0180
 1203ERGO    C117035   9.552  16.469   8.161 -0.1677 -0.0864  0.0660
 1203ERGO    C217036   9.498  16.674   8.435 -0.1416  0.1608  0.0565
 1204ERGO   ROH17037  14.300   3.874   6.440 -0.1311 -0.1157 -0.0656
 1204ERGO    R117038  14.248   3.832   6.715  0.1153  0.0245  0.0045
 1204ERGO    R217039  14.155   3.591   6.814 -0.1479  0.1887  0.1560
 1204ERGO    R317040  14.372   3.611   6.977  0.0732 -0.1135 -0.0891
 1204ERGO    R417041  14.161   3.503   7.148 -0.0023  0.4794  0.2340
 1204ERGO    R517042  14.283   3.679   7.188  0.4205  0.2754 -0.0496
 1204ERGO    C117043  14.368   3.470   7.495  0.2902  0.3650  0.0494
 1204ERGO    C217044  14.572   3.475   7.776  0.3388  0.3774 -0.4843
 1205ERGO   ROH17045  14.421   7.437   6.605 -0.1015 -0.1166  0.0261
 1205ERGO    R117046  14.550   7.374   6.849 -0.1090  0.1174  0.0915
 1205ERGO    R217047  14.500   7.512   7.084 -0.4756  0.0347  0.0654
 1205ERGO    R317048  14.450   7.263   7.181 -0.0795 -0.0617  0.0408
 1205ERGO    R417049  14.405   7.442   7.409 -0.5245 -0.1356  0.0167
 1205ERGO    R517050  14.536   7.268   7.404 -0.2038  0.0964  0.0865
 1205ERGO    C117051  14.303   7.168   7.689 -0.1810 -0.3253 -0.0347
 1205ERGO    C217052  14.246   7.262   7.933  0.1322 -0.0170 -0.2894
 1206ERGO   ROH17053  15.000   9.033   6.189 -0.2871 -0.0325 -0.1273
 1206ERGO    R117054  14.989   9.207   6.413 -0.1581  0.0226 -0.1640
 1206ERGO    R217055  14.764   9.232   6.571 -0.0380 -0.0018  0.0076
 1206ERGO    R317056  14.938   9.172   6.771  0.1380  0.1033 -0.1103
 1206ERGO    R417057  14.746   9.357   6.893 -0.0511 -0.2075  0.0890
 1206ERGO    R517058  14.963   9.377   6.892 -0.0705  0.0725 -0.0055
 1206ERGO    C117059  14.899   9.374   7.268  0.1067 -0.2287  0.0258
 1206ERGO    C217060  14.983   9.328   7.591 -0.1240  0.1449  0.2223
 1207ERGO   ROH17061   1.602   3.820   6.442 -0.1781  0.0342 -0.1064
 1207ERGO    R117062   1.561   3.902   6.709 -0.1996 -0.0074 -0.0974
 1207ERGO    R217063   1.468   3.731   6.905  0.0062 -0.1000 -0.0802
 1207ERGO    R317064   1.692   3.810   7.037 -0.0408  0.1138 -0.1250
 1207ERGO    R417065   1.506   3.728   7.248  0.1104 -0.1585 -0.0915
 1207ERGO    R517066   1.609   3.919   7.233 -0.1074 -0.0347 -0.0678
 1207ERGO    C117067   1.739   3.801   7.572  0.1269  0.0081 -0.1401
 1207ERGO    C217068   1.931   3.763   7.919  0.4286 -0.1605  0.1487
 1208ERGO   ROH17069   0.858  16.335   6.231 -0.1287 -0.1052 -0.0650
 1208ERGO    R117070   0.962  16.362   6.492 -0.0421 -0.2271 -0.0875
 1208ERGO    R217071   0.805  16.429   6.709  0.0695 -0.1232 -0.0460
 1208ERGO    R317072   0.910  16.202   6.815 -0.0951 -0.2245 -0.0922
 1208ERGO    R417073   0.790  16.343   7.043  0.2651 -0.0154 -0.0074
 1208ERGO    R517074   0.995  16.271   7.029  0.1801 -0.2612 -0.1798
 1208ERGO    C117075   0.880  16.081   7.338  0.2246 -0.0481 -0.0284
 1208ERGO    C217076   0.989  16.107   7.724 -0.1342 -0.2471 -0.1657
 1209ERGO   ROH17077   1.469   5.870   6.491  0.1177  0.2040 -0.1247
 1209ERGO    R117078   1.380   5.918   6.756  0.1364  0.0172 -0.0837
 1209ERGO    R217079   1.387   5.723   6.952  0.1523 -0.1241 -0.2189
 1209ERGO    R317080   1.527   5.912   7.089  0.1625 -0.2172 -0.0990
 1209ERGO    R417081   1.385   5.760   7.296 -0.1499 -0.0836 -0.2213
 1209ERGO    R517082   1.381   5.976   7.268  0.0405 -0.0870 -0.2467
 1209ERGO    C117083   1.516   5.958   7.624 -0.3162 -0.1475 -0.1102
 1209ERGO    C217084   1.523   5.793   7.935 -0.0534  0.1892 -0.0797
 1210ERGO   ROH17085   5.936   0.144   6.662  0.0375  0.0815  0.1299
 1210ERGO    R117086   6.009   0.272   6.904 -0.0920  0.1440  0.1369
 1210ERGO    R217087   5.822   0.364   7.085 -0.1878 -0.0233  0.1254
 1210ERGO    R317088   5.963   0.211   7.260 -0.0622  0.0984  0.1330
 1210ERGO    R417089   5.892   0.450   7.413 -0.3142  0.0220  0.1410
 1210ERGO    R517090   6.092   0.368   7.387 -0.2290  0.2152  0.1616
 1210ERGO    C117091   6.065   0.356   7.767 -0.2699  0.1627  0.1571
 1210ERGO    C217092   6.003   0.311   8.120 -0.0199 -0.1499  0.1115
 1211ERGO   ROH17093  16.018  17.622   6.415  0.0192 -0.1273  0.1273
 1211ERGO    R117094  16.134  17.723   6.653  0.1480 -0.0244  0.0227
 1211ERGO    R217095  15.997  17.731   6.893  0.2402  0.1745  0.0728
 1211ERGO    R317096  16.214  17.594   6.984  0.2228  0.1467  0.0715
 1211ERGO    R417097  16.084  17.698   7.226  0.1917  0.0840  0.0766
 1211ERGO    R517098  16.293  17.724   7.169  0.1987  0.0940  0.1168
 1211ERGO    C117099  16.338  17.550   7.505  0.1472  0.0051  0.0776
 1211ERGO    C217100  16.355  17.481   7.866  0.0677 -0.1769  0.2520
 1212ERGO   ROH17101  17.680   2.763   6.450  0.0090  0.0312 -0.1066
 1212ERGO    R117102  17.825   2.949   6.606 -0.0934  0.0421 -0.0231
 1212ERGO    R217103  17.768   2.995   6.873 -0.0979 -0.1338  0.0086
 1212ERGO    R317104  18.032   2.937   6.905 -0.0573  0.0149 -0.0495
 1212ERGO    R417105  17.966   3.110   7.132 -0.1427 -0.1502  0.0503
 1212ERGO    R517106  18.128   3.140   6.989 -0.1757  0.0294  0.0502
 1212ERGO    C117107  18.329   3.123   7.313 -0.1307 -0.0200  0.0199
 1212ERGO    C217108  18.422   3.182   7.643 -0.0613 -0.0115  0.0720
 1213ERGO   ROH17109   2.487   0.773   6.550  0.0700  0.0245  0.0335
 1213ERGO    R117110   2.378   0.833   6.805  0.0438  0.2222 -0.0224
 1213ERGO    R217111   2.367   0.648   7.009 -0.4522  0.2155 -0.0428
 1213ERGO    R317112   2.498   0.841   7.148 -0.1289 -0.0595  0.0474
 1213ERGO    R417113   2.369   0.678   7.354 -0.4501  0.0917 -0.0316
 1213ERGO    R517114   2.352   0.894   7.330 -0.0669  0.1346  0.0418
 1213ERGO    C117115   2.493   0.877   7.684 -0.1453 -0.2385  0.0596
 1213ERGO    C217116   2.786   0.779   7.975  0.4828 -0.0618 -0.0063
 1214ERGO   ROH17117   3.422  10.998   6.761 -0.0886 -0.0546 -0.1070
 1214ERGO    R117118   3.364  10.915   7.025  0.0255 -0.0409 -0.0770
 1214ERGO    R217119   3.425  11.067   7.246  0.0362  0.0129 -0.1182
 1214ERGO    R317120   3.161  11.036   7.302  0.0649 -0.0808 -0.0301
 1214ERGO    R417121   3.271  11.166   7.540  0.1197 -0.1352 -0.0230
 1214ERGO    R517122   3.155  10.982   7.535  0.1688 -0.1674 -0.0455
 1214ERGO    C117123   2.934  11.193   7.762  0.1954 -0.3094  0.1151
 1214ERGO    C217124   2.878  11.220   8.106  0.1245  0.0274  0.0978
 1215ERGO   ROH17125   0.750   6.117   6.529 -0.3090  0.1851  0.0352
 1215ERGO    R117126   0.852   6.048   6.784  0.0506  0.0188 -0.1435
 1215ERGO    R217127   0.689   6.013   7.005  0.3877  0.4043  0.1980
 1215ERGO    R317128   0.814   5.771   7.018 -0.0889  0.1348 -0.0322
 1215ERGO    R417129   0.728   5.825   7.292  0.3253  0.1984  0.0717
 1215ERGO    R517130   0.929   5.775   7.227  0.1509 -0.1935 -0.1609
 1215ERGO    C117131   0.867   5.489   7.472 -0.1584 -0.1745 -0.2179
 1215ERGO    C217132   0.809   5.228   7.736 -0.0753 -0.2425  0.3935
 1216ERGO   ROH17133   0.375   4.795   6.682 -0.1696 -0.0574  0.1031
 1216ERGO    R117134   0.329   4.939   6.922 -0.0430 -0.0488  0.1237
 1216ERGO    R217135   0.076   4.985   7.021  0.0012  0.0669  0.1900
 1216ERGO    R317136   0.178   4.871   7.246  0.0030  0.0037  0.1561
 1216ERGO    R417137  -0.062   5.011   7.337  0.2041  0.2919  0.2621
 1216ERGO    R517138   0.139   5.032   7.418  0.2766  0.0888  0.1435
 1216ERGO    C117139  -0.046   4.919   7.732  0.3240  0.3636  0.2722
 1216ERGO    C217140  -0.271   4.864   8.022  0.1152  0.0977  0.1157
 1217ERGO   ROH17141  12.022  16.188   6.071  0.2347  0.0678  0.0286
 1217ERGO    R117142  12.233  16.162   6.258  0.2076  0.1695  0.0733
 1217ERGO    R217143  12.423  16.358   6.297  0.1794  0.2031  0.0178
 1217ERGO    R317144  12.345  16.337   6.556  0.1451  0.3083  0.0173
 1217ERGO    R417145  12.633  16.396   6.569  0.2096  0.0331  0.0195
 1217ERGO    R517146  12.530  16.229   6.665  0.0407  0.1398  0.0360
 1217ERGO    C117147  12.682  16.398   6.971  0.1950  0.0330  0.0199
 1217ERGO    C217148  12.749  16.519   7.244 -0.2493 -0.1180 -0.0707
 1218ERGO   ROH17149   2.020  10.494   6.485 -0.1170 -0.0773  0.0642
 1218ERGO    R117150   1.927  10.318   6.687 -0.0606 -0.0648  0.1003
 1218ERGO    R217151   2.062  10.280   6.925 -0.0736  0.0632  0.1240
 1218ERGO    R317152   1.822  10.346   7.034 -0.1174 -0.0206  0.0810
 1218ERGO    R417153   1.975  10.230   7.256 -0.0398  0.2027  0.1554
 1218ERGO    R517154   1.776  10.169   7.189 -0.0057  0.0376  0.1868
 1218ERGO    C117155   1.698  10.262   7.550 -0.0612  0.2052  0.1333
 1218ERGO    C217156   1.600  10.373   7.813 -0.1138  0.1205 -0.0233
 1219ERGO   ROH17157   9.396   9.948   6.278  0.1578  0.0424 -0.0060
 1219ERGO    R117158   9.415   9.994   6.557  0.1050 -0.0225  0.0087
 1219ERGO    R217159   9.200  10.080   6.709  0.0987  0.0281 -0.0285
 1219ERGO    R317160   9.261   9.861   6.858 -0.0228 -0.0260 -0.0575
 1219ERGO    R417161   9.070  10.011   7.022  0.0873  0.0789 -0.0222
 1219ERGO    R517162   9.267   9.942   7.083  0.0514 -0.0516 -0.0496
 1219ERGO    C117163   9.051   9.766   7.344 -0.0335  0.0577 -0.0458
 1219ERGO    C217164   8.793   9.878   7.672  0.2110  0.1879  0.0009
 1220ERGO   ROH17165   6.584  11.841   6.616  0.1124  0.0169  0.1097
 1220ERGO    R117166   6.721  11.756   6.849  0.0365  0.0191  0.1571
 1220ERGO    R217167   6.766  11.923   7.065 -0.0285  0.0261  0.1738
 1220ERGO    R317168   6.644  11.724   7.203 -0.0818  0.0310  0.1314
 1220ERGO    R417169   6.775  11.886   7.408  0.0463 -0.1151  0.1560
 1220ERGO    R517170   6.797  11.672   7.380 -0.0623 -0.1097  0.0686
 1220ERGO    C117171   6.666  11.677   7.738  0.0398 -0.1925  0.1057
 1220ERGO    C217172   6.600  11.539   8.047 -0.1107 -0.2898  0.1218
 1221ERGO   ROH17173  14.611  14.873   6.144 -0.0490  0.2080 -0.0710
 1221ERGO    R117174  14.664  14.760   6.398 -0.0165  0.0992 -0.1258
 1221ERGO    R217175  14.809  14.893   6.592 -0.1027  0.0691 -0.0437
 1221ERGO    R317176  14.589  14.843   6.744 -0.0911 -0.1235 -0.0861
 1221ERGO    R417177  14.802  14.903   6.937 -0.2173  0.2514 -0.0497
 1221ERGO    R517178  14.675  14.726   6.935  0.0025  0.0852  0.0055
 1221ERGO    C117179  14.592  14.863   7.282 -0.2731  0.1768 -0.0928
 1221ERGO    C217180  14.574  14.704   7.624  0.2912  0.0109 -0.2763
 1222ERGO   ROH17181   4.363   1.784   6.407 -0.0542 -0.2264  0.1103
 1222ERGO    R117182   4.239   1.946   6.603  0.1295 -0.0322  0.0672
 1222ERGO    R217183   4.146   1.844   6.843 -0.0371  0.1261  0.0640
 1222ERGO    R317184   4.305   2.038   6.949  0.1996 -0.0609  0.0638
 1222ERGO    R417185   4.147   1.941   7.175 -0.0441  0.2262  0.0364
 1222ERGO    R517186   4.166   2.148   7.110  0.2773  0.1885 -0.0266
 1222ERGO    C117187   4.296   2.179   7.467  0.1741  0.1089  0.0201
 1222ERGO    C217188   4.225   2.158   7.824  0.1395 -0.2316  0.0442
 1223ERGO   ROH17189   7.042   1.291   6.401  0.2846  0.0002 -0.0060
 1223ERGO    R117190   6.958   1.239   6.666  0.0710 -0.1887 -0.1091
 1223ERGO    R217191   7.078   1.049   6.825  0.1497 -0.0774 -0.0462
 1223ERGO    R317192   7.104   1.257   6.999 -0.3035 -0.0963  0.0573
 1223ERGO    R417193   7.203   1.023   7.147  0.4930  0.0602 -0.1630
 1223ERGO    R517194   7.049   1.163   7.212  0.1285 -0.4056  0.0513
 1223ERGO    C117195   7.300   1.204   7.496  0.2675  0.1226 -0.1338
 1223ERGO    C217196   7.455   1.031   7.772  0.2709  0.0101 -0.0636
 1224ERGO   ROH17197   8.561   6.869   6.198 -0.3868  0.2706 -0.0373
 1224ERGO    R117198   8.593   6.751   6.454 -0.2388  0.1871 -0.0927
 1224ERGO    R217199   8.747   6.866   6.653 -0.0832  0.0982 -0.1579
 1224ERGO    R317200   8.518   6.843   6.798  0.0066  0.0983 -0.0144
 1224ERGO    R417201   8.733   6.817   6.995  0.1256  0.0701 -0.1522
 1224ERGO    R517202   8.569   6.678   6.964  0.0996  0.0832 -0.0598
 1224ERGO    C117203   8.510   6.766   7.330  0.3314  0.0540 -0.0141
 1224ERGO    C217204   8.561   6.971   7.616 -0.0142 -0.0216  0.0553
 1225ERGO   ROH17205  14.053  11.697   6.174 -0.0578  0.0267 -0.1051
 1225ERGO    R117206  13.951  11.719   6.437  0.1373  0.0433 -0.0293
 1225ERGO    R217207  13.698  11.634   6.506  0.0923  0.2780  0.1068
 1225ERGO    R317208  13.832  11.492   6.695  0.0747  0.0762 -0.0292
 1225ERGO    R417209  13.629  11.641   6.845  0.1884  0.0695  0.1325
 1225ERGO    R517210  13.843  11.639   6.883  0.1981 -0.0634  0.0746
 1225ERGO    C117211  13.715  11.512   7.219  0.2279 -0.2412  0.0198
 1225ERGO    C217212  13.599  11.506   7.602 -0.1867 -0.2616  0.0946
 1226ERGO   ROH17213   5.818  15.461   7.071 -0.1510  0.0686  0.0562
 1226ERGO    R117214   5.942  15.431   7.324 -0.1113  0.0702  0.0358
 1226ERGO    R217215   6.044  15.645   7.467 -0.1519  0.0765  0.0456
 1226ERGO    R317216   5.882  15.549   7.663 -0.0977  0.0110  0.0606
 1226ERGO    R417217   6.086  15.705   7.804 -0.0898  0.0244  0.0484
 1226ERGO    R517218   6.031  15.498   7.844 -0.0472  0.0028  0.0215
 1226ERGO    C117219   5.958  15.651   8.186 -0.0028 -0.0676  0.0641
 1226ERGO    C217220   5.760  15.682   8.533 -0.3982  0.1178  0.2563
 1227ERGO   ROH17221  17.095   4.227   6.589  0.0346 -0.1325 -0.1992
 1227ERGO    R117222  17.078   4.090   6.836 -0.0954 -0.1438 -0.2129
 1227ERGO    R217223  17.170   4.199   7.073  0.0028 -0.2502 -0.1984
 1227ERGO    R317224  16.917   4.143   7.158 -0.0520 -0.0263 -0.2110
 1227ERGO    R417225  17.064   4.210   7.402  0.0403 -0.3351 -0.1834
 1227ERGO    R517226  16.948   4.030   7.366 -0.1598 -0.1865 -0.2831
 1227ERGO    C117227  16.766   4.165   7.673  0.0108 -0.1744 -0.1866
 1227ERGO    C217228  16.634   4.105   8.024 -0.0245 -0.0748 -0.1118
 1228ERGO   ROH17229  11.749   9.016   6.192 -0.1264  0.1159 -0.0510
 1228ERGO    R117230  11.598   8.945   6.421 -0.2298  0.3571 -0.0411
 1228ERGO    R217231  11.714   8.846   6.651 -0.3809  0.0104 -0.1071
 1228ERGO    R317232  11.579   9.051   6.768  0.0913  0.2724  0.0049
 1228ERGO    R417233  11.661   8.878   6.991 -0.3671 -0.0951 -0.0947
 1228ERGO    R517234  11.459   8.947   6.948 -0.2023  0.4347 -0.0911
 1228ERGO    C117235  11.504   9.089   7.299  0.0841  0.0893  0.0176
 1228ERGO    C217236  11.429   9.060   7.695  0.2880 -0.0355  0.2036
 1229ERGO   ROH17237   1.930   5.185   6.716  0.1020 -0.0421  0.1038
 1229ERGO    R117238   2.060   5.081   6.945  0.1318  0.0774  0.1437
 1229ERGO    R217239   2.192   5.242   7.127  0.0290  0.1913  0.1285
 1229ERGO    R317240   2.029   5.117   7.306  0.0687  0.1457  0.1303
 1229ERGO    R417241   2.250   5.223   7.467  0.2070 -0.0852  0.0849
 1229ERGO    R517242   2.180   5.017   7.463  0.1026 -0.0432 -0.0246
 1229ERGO    C117243   2.131   5.095   7.833  0.3478 -0.2890  0.0611
 1229ERGO    C217244   2.155   5.132   8.244  0.1125 -0.2550  0.0892
 1230ERGO   ROH17245  10.200   4.627   6.325 -0.0501 -0.0402 -0.1590
 1230ERGO    R117246  10.178   4.632   6.607 -0.0611 -0.1362 -0.1571
 1230ERGO    R217247  10.142   4.403   6.758  0.1895 -0.2223 -0.2131
 1230ERGO    R317248  10.362   4.493   6.888  0.0918 -0.0071 -0.1936
 1230ERGO    R417249  10.234   4.311   7.078  0.2873 -0.1657 -0.2253
 1230ERGO    R517250  10.292   4.517   7.115  0.0668 -0.1135 -0.1942
 1230ERGO    C117251  10.495   4.342   7.387  0.2525  0.0690 -0.2142
 1230ERGO    C217252  10.609   4.272   7.660  0.2323 -0.0172  0.1121
 1231ERGO   ROH17253   9.474   8.956   6.318 -0.0563 -0.2087  0.0233
 1231ERGO    R117254   9.314   8.993   6.548 -0.0236 -0.0686  0.0249
 1231ERGO    R217255   9.154   8.792   6.652 -0.2293  0.0802  0.0045
 1231ERGO    R317256   9.292   8.846   6.881 -0.1755 -0.0796  0.0105
 1231ERGO    R417257   9.039   8.731   6.972 -0.1535 -0.1403 -0.0089
 1231ERGO    R517258   9.125   8.921   7.035 -0.1377 -0.1846  0.1028
 1231ERGO    C117259   9.101   8.745   7.373 -0.0587 -0.4186 -0.0111
 1231ERGO    C217260   8.986   8.743   7.641  0.4812  0.1156  0.0914
 1232ERGO   ROH17261   9.082   8.345   6.469  0.1199  0.2345  0.0871
 1232ERGO    R117262   9.131   8.223   6.720  0.1075  0.1771  0.0624
 1232ERGO    R217263   9.239   8.360   6.934  0.0600  0.1410  0.1152
 1232ERGO    R317264   9.017   8.268   7.062  0.0554  0.0733  0.0579
 1232ERGO    R417265   9.197   8.354   7.277 -0.0310  0.1141  0.1034
 1232ERGO    R517266   9.102   8.159   7.258  0.0319  0.0920  0.0740
 1232ERGO    C117267   8.964   8.264   7.597 -0.0882  0.0350  0.0427
 1232ERGO    C217268   8.985   8.251   7.901 -0.1286  0.0367 -0.3223
 1233ERGO   ROH17269   3.838   6.416   6.647 -0.0071 -0.1083  0.0602
 1233ERGO    R117270   3.728   6.581   6.848  0.1880  0.0268  0.0575
 1233ERGO    R217271   3.518   6.501   7.009 -0.0463  0.3495 -0.0785
 1233ERGO    R317272   3.689   6.568   7.210 -0.0225 -0.0265  0.0338
 1233ERGO    R417273   3.428   6.533   7.341 -0.1083  0.1879 -0.0781
 1233ERGO    R517274   3.559   6.708   7.354  0.1070  0.0192  0.1074
 1233ERGO    C117275   3.536   6.614   7.723 -0.1220 -0.2592  0.0275
 1233ERGO    C217276   3.296   6.577   8.118 -0.2058  0.1063  0.3072
 1234ERGO   ROH17277  10.047   7.075   6.163  0.0039  0.2111 -0.0301
 1234ERGO    R117278   9.912   7.281   6.301 -0.1334  0.0871  0.0224
 1234ERGO    R217279   9.654   7.254   6.395 -0.0594 -0.1640  0.1498
 1234ERGO    R317280   9.766   7.327   6.632 -0.0177 -0.0353  0.0926
 1234ERGO    R417281   9.477   7.340   6.680 -0.0174 -0.2849  0.2142
 1234ERGO    R517282   9.622   7.499   6.716 -0.1373 -0.1485  0.1310
 1234ERGO    C117283   9.480   7.458   7.067  0.0463 -0.2345  0.1979
 1234ERGO    C217284   9.394   7.284   7.229  0.1092  0.2046  0.0514
 1235ERGO   ROH17285   8.233  17.207   6.649  0.1186  0.0601  0.1170
 1235ERGO    R117286   8.201  17.049   6.881  0.3740  0.0381  0.1406
 1235ERGO    R217287   8.344  17.095   7.114  0.2093  0.3945  0.1847
 1235ERGO    R317288   8.097  17.103   7.226  0.1413 -0.0980  0.0916
 1235ERGO    R417289   8.277  17.058   7.451  0.1714  0.5029  0.1889
 1235ERGO    R517290   8.103  16.938   7.399  0.4652  0.0504  0.2211
 1235ERGO    C117291   8.006  17.044   7.752  0.0854  0.1036  0.1039
 1235ERGO    C217292   8.018  16.939   8.150 -0.2415 -0.0765 -0.1720
 1236ERGO   ROH17293  13.147  12.325   6.361 -0.1616  0.0637  0.2284
 1236ERGO    R117294  13.047  12.399   6.615 -0.1244  0.0305  0.2534
 1236ERGO    R217295  12.949  12.214   6.796  0.0221 -0.0077  0.2968
 1236ERGO    R317296  13.130  12.329   6.963  0.0140  0.0959  0.2342
 1236ERGO    R417297  12.912  12.242   7.139  0.0776  0.0557  0.2973
 1236ERGO    R517298  12.997  12.442   7.126  0.0036  0.0847  0.2343
 1236ERGO    C117299  13.061  12.365   7.495  0.1023  0.1898  0.2388
 1236ERGO    C217300  12.897  12.124   7.721  0.3267 -0.1568 -0.2556
 1237ERGO   ROH17301  16.386   8.637   6.446 -0.2199  0.3241 -0.0418
 1237ERGO    R117302  16.251   8.694   6.688 -0.1698  0.0759  0.0466
 1237ERGO    R217303  16.256   8.523   6.905  0.1998  0.0341  0.0070
 1237ERGO    R317304  16.342   8.745   7.037 -0.0482  0.1339  0.0073
 1237ERGO    R417305  16.178   8.600   7.233  0.1193 -0.0613  0.0113
 1237ERGO    R517306  16.156   8.809   7.173 -0.1218 -0.0817  0.0143
 1237ERGO    C117307  16.214   8.853   7.547 -0.1603 -0.0231  0.0141
 1237ERGO    C217308  16.262   8.880   7.826  0.2235  0.0599 -0.0425
 1238ERGO   ROH17309  10.375  15.734   6.778 -0.2141 -0.1705  0.0486
 1238ERGO    R117310  10.471  15.661   7.035 -0.2023 -0.2757  0.0153
 1238ERGO    R217311  10.489  15.841   7.244  0.1385 -0.2721 -0.0075
 1238ERGO    R317312  10.339  15.655   7.374 -0.0676 -0.0540  0.0717
 1238ERGO    R417313  10.434  15.835   7.585  0.2146 -0.1349  0.0074
 1238ERGO    R517314  10.456  15.619   7.580 -0.0651 -0.1626  0.0475
 1238ERGO    C117315  10.262  15.658   7.906  0.0651  0.1497  0.0905
 1238ERGO    C217316  10.134  15.648   8.183 -0.2100 -0.1912  0.1407
 1239ERGO   ROH17317   9.642  16.941   7.088  0.2190 -0.1071 -0.0989
 1239ERGO    R117318   9.622  17.063   7.342  0.1636 -0.0356 -0.1375
 1239ERGO    R217319   9.584  16.918   7.575  0.0298  0.0371 -0.1156
 1239ERGO    R317320   9.806  17.052   7.656  0.0422 -0.0142 -0.0639
 1239ERGO    R417321   9.694  16.936   7.901 -0.0052 -0.0598 -0.0983
 1239ERGO    R517322   9.744  17.146   7.868  0.0302 -0.0553 -0.0459
 1239ERGO    C117323   9.967  17.073   8.168 -0.0140 -0.1647 -0.0396
 1239ERGO    C217324  10.044  17.322   8.560 -0.3135 -0.0960  0.2701
 1240ERGO   ROH17325   2.181   1.766   6.662 -0.4605  0.1989 -0.0824
 1240ERGO    R117326   2.317   1.830   6.902 -0.2775 -0.0065 -0.1292
 1240ERGO    R217327   2.261   2.056   7.050  0.1229  0.0875 -0.1119
 1240ERGO    R317328   2.229   1.877   7.252 -0.0856  0.1387 -0.0980
 1240ERGO    R417329   2.235   2.139   7.384  0.0823  0.1594 -0.1329
 1240ERGO    R517330   2.360   1.966   7.432 -0.0687  0.0619 -0.0691
 1240ERGO    C117331   2.189   2.019   7.769 -0.1371  0.2494 -0.1321
 1240ERGO    C217332   2.067   2.253   8.013 -0.1571 -0.1561  0.0658
 1241ERGO   ROH17333   8.689   0.336   6.858  0.3146  0.0641 -0.1332
 1241ERGO    R117334   8.821   0.445   7.084  0.2530 -0.1086 -0.0133
 1241ERGO    R217335   8.686   0.569   7.290  0.2251  0.0458 -0.1335
 1241ERGO    R317336   8.819   0.389   7.443 -0.1260 -0.1222 -0.0108
 1241ERGO    R417337   8.775   0.619   7.620  0.4148  0.1639 -0.2001
 1241ERGO    R517338   8.966   0.522   7.577  0.2097 -0.3035 -0.1728
 1241ERGO    C117339   8.953   0.478   7.956  0.1956  0.0749 -0.1237
 1241ERGO    C217340   8.813   0.585   8.186  0.0956  0.0659 -0.0708
 1242ERGO   ROH17341  13.933  14.311   6.623  0.1168 -0.1014  0.0236
 1242ERGO    R117342  13.826  14.274   6.883  0.0614 -0.1577 -0.0069
 1242ERGO    R217343  13.855  14.038   7.024  0.1714 -0.1323  0.0138
 1242ERGO    R317344  13.956  14.204   7.215  0.0067 -0.0565  0.0365
 1242ERGO    R417345  13.787  14.015   7.362 -0.1813  0.0476 -0.0407
 1242ERGO    R517346  13.776  14.232   7.370 -0.1497  0.0549 -0.1609
 1242ERGO    C117347  13.841  14.156   7.738 -0.5414  0.2233 -0.0513
 1242ERGO    C217348  14.043  14.085   7.986  0.0403 -0.1048  0.1206
 1243ERGO   ROH17349  15.143  11.939   5.976 -0.0256 -0.1247 -0.0625
 1243ERGO    R117350  15.325  11.943   6.192 -0.0802 -0.0566 -0.0164
 1243ERGO    R217351  15.344  12.156   6.368 -0.2103 -0.0515 -0.0023
 1243ERGO    R317352  15.304  11.963   6.555 -0.1807 -0.0755 -0.0217
 1243ERGO    R417353  15.440  12.178   6.699 -0.0992 -0.1278 -0.0297
 1243ERGO    R517354  15.501  11.970   6.690 -0.1378 -0.1337 -0.0847
 1243ERGO    C117355  15.459  12.010   7.067 -0.0065 -0.1947 -0.0638
 1243ERGO    C217356  15.399  11.935   7.341 -0.0298 -0.3291  0.0763
 1244ERGO   ROH17357  10.542   3.882   6.219 -0.2409 -0.0388  0.0105
 1244ERGO    R117358  10.712   4.027   6.393 -0.0570 -0.1024 -0.1140
 1244ERGO    R217359  10.617   4.175   6.606  0.1359  0.1268 -0.1825
 1244ERGO    R317360  10.792   4.023   6.748  0.0134  0.0343 -0.1280
 1244ERGO    R417361  10.679   4.208   6.944 -0.0984 -0.0434 -0.1198
 1244ERGO    R517362  10.891   4.176   6.904 -0.0741 -0.0543  0.0152
 1244ERGO    C117363  10.880   4.085   7.274 -0.3499 -0.2292 -0.0322
 1244ERGO    C217364  11.092   4.052   7.605  0.1551 -0.1643  0.0115
 1245ERGO   ROH17365   3.752   4.996   6.588 -0.0559  0.0547 -0.0369
 1245ERGO    R117366   3.623   5.017   6.838  0.0516  0.1343  0.0128
 1245ERGO    R217367   3.586   4.800   7.006 -0.1227  0.1314 -0.0260
 1245ERGO    R317368   3.711   4.959   7.187  0.1120 -0.0422 -0.0309
 1245ERGO    R417369   3.542   4.782   7.348  0.0383  0.0495 -0.0088
 1245ERGO    R517370   3.545   5.000   7.355  0.2336  0.0453  0.0687
 1245ERGO    C117371   3.634   4.921   7.717  0.3524 -0.1612 -0.0035
 1245ERGO    C217372   3.547   4.965   8.011 -0.0667 -0.5994 -0.0369
 1246ERGO   ROH17373   5.032   2.612   6.708  0.0466 -0.1514  0.0404
 1246ERGO    R117374   4.998   2.539   6.979 -0.1087  0.0081  0.0649
 1246ERGO    R217375   5.203   2.553   7.164 -0.1221 -0.2026  0.0948
 1246ERGO    R317376   5.024   2.704   7.303  0.0601  0.1082  0.0022
 1246ERGO    R417377   5.203   2.596   7.507 -0.1999 -0.1732  0.0919
 1246ERGO    R517378   4.986   2.581   7.504 -0.2301  0.1835 -0.0007
 1246ERGO    C117379   5.035   2.762   7.837 -0.0741  0.1358  0.0033
 1246ERGO    C217380   5.176   2.740   8.183 -0.3605 -0.0867  0.0375
 1247ERGO   ROH17381  14.382   3.134   6.661 -0.1607 -0.0874  0.0641
 1247ERGO    R117382  14.268   3.070   6.913  0.0517 -0.3070  0.1069
 1247ERGO    R217383  14.382   2.886   7.085  0.4854 -0.0739  0.0773
 1247ERGO    R317384  14.368   3.092   7.262  0.1292 -0.0873  0.0730
 1247ERGO    R417385  14.314   2.853   7.422  0.2025 -0.1487  0.0163
 1247ERGO    R517386  14.190   3.032   7.410  0.0431 -0.2603 -0.0926
 1247ERGO    C117387  14.262   3.028   7.785 -0.2966 -0.2047 -0.0232
 1247ERGO    C217388  14.201   2.872   8.141 -0.2155  0.2758  0.1100
 1248ERGO   ROH17389   8.182   4.303   6.563  0.1690  0.0424  0.0446
 1248ERGO    R117390   8.193   4.166   6.810  0.1768  0.1694  0.1151
 1248ERGO    R217391   8.325   3.925   6.842 -0.0896  0.0233  0.1567
 1248ERGO    R317392   8.453   4.059   7.041  0.2128 -0.0110 -0.0090
 1248ERGO    R417393   8.510   3.776   7.093  0.0056 -0.0365  0.0523
 1248ERGO    R517394   8.426   3.919   7.234  0.2621  0.0949  0.0722
 1248ERGO    C117395   8.738   3.815   7.426  0.3450 -0.1034 -0.1641
 1248ERGO    C217396   8.980   3.555   7.555  0.2394  0.0436  0.4416
 1249ERGO   ROH17397   2.437   4.382   6.701 -0.2250 -0.0747  0.1395
 1249ERGO    R117398   2.508   4.273   6.953  0.0525 -0.1207  0.0452
 1249ERGO    R217399   2.741   4.341   7.084 -0.0660  0.2931  0.0544
 1249ERGO    R317400   2.572   4.402   7.288 -0.1766 -0.2322  0.1348
 1249ERGO    R417401   2.830   4.352   7.418  0.0303  0.4423  0.0248
 1249ERGO    R517402   2.640   4.258   7.466  0.2947 -0.1086  0.0705
 1249ERGO    C117403   2.723   4.417   7.803 -0.0173  0.0360  0.0830
 1249ERGO    C217404   2.844   4.455   8.090  0.1775  0.0644  0.0529
 1250ERGO   ROH17405  15.874  13.400   6.227  0.1493  0.3688 -0.1122
 1250ERGO    R117406  15.949  13.525   6.469  0.0270  0.3060 -0.0407
 1250ERGO    R217407  15.794  13.719   6.591 -0.1225  0.1482  0.0268
 1250ERGO    R317408  15.812  13.553   6.806 -0.0477  0.0579 -0.0487
 1250ERGO    R417409  15.669  13.788   6.906 -0.2257 -0.0881  0.0404
 1250ERGO    R517410  15.849  13.700   6.991 -0.1808 -0.0060  0.0286
 1250ERGO    C117411  15.614  13.673   7.291 -0.2159 -0.3105 -0.0226
 1250ERGO    C217412  15.413  13.579   7.552  0.0455  0.0732 -0.0217
 1251ERGO   ROH17413  17.503  14.453   6.552  0.0399  0.1934  0.2424
 1251ERGO    R117414  17.405  14.607   6.769  0.0550  0.1916  0.2506
 1251ERGO    R217415  17.279  14.493   6.987  0.0019  0.1960  0.2234
 1251ERGO    R317416  17.468  14.630   7.126  0.0222  0.1309  0.2604
 1251ERGO    R417417  17.317  14.483   7.330 -0.0460  0.1575  0.2276
 1251ERGO    R517418  17.356  14.698   7.327  0.0151  0.1460  0.2507
 1251ERGO    C117419  17.517  14.606   7.661 -0.0550  0.0739  0.2650
 1251ERGO    C217420  17.624  14.539   7.937 -0.0088 -0.0717  0.1929
 1252ERGO   ROH17421   8.006   3.000   6.790  0.1853 -0.4383  0.2038
 1252ERGO    R117422   7.816   3.093   6.978  0.2470  0.0026  0.0581
 1252ERGO    R217423   7.705   2.929   7.171 -0.3924  0.2073 -0.1160
 1252ERGO    R317424   7.795   3.122   7.340 -0.0200 -0.1002  0.0541
 1252ERGO    R417425   7.672   2.922   7.515 -0.4339 -0.0184 -0.1230
 1252ERGO    R517426   7.627   3.135   7.510 -0.0167  0.0867  0.0492
 1252ERGO    C117427   7.736   3.099   7.874 -0.1085 -0.4386  0.0324
 1252ERGO    C217428   7.559   3.071   8.176 -0.0472  0.0684  0.0904
 1253ERGO   ROH17429   3.457  11.428   6.690  0.2350  0.1426 -0.0154
 1253ERGO    R117430   3.561  11.484   6.948  0.1409  0.3278 -0.0163
 1253ERGO    R217431   3.467  11.693   7.104 -0.2817  0.1247  0.0140
 1253ERGO    R317432   3.432  11.495   7.287  0.1352  0.0221 -0.0053
 1253ERGO    R417433   3.463  11.739   7.446 -0.3461  0.0774  0.0198
 1253ERGO    R517434   3.577  11.555   7.468  0.0361  0.2988 -0.0118
 1253ERGO    C117435   3.427  11.581   7.818  0.0077 -0.0465  0.0050
 1253ERGO    C217436   3.363  11.402   8.116  0.0805  0.3113  0.0008
 1254ERGO   ROH17437   0.240   4.751   8.008  0.0338 -0.1166  0.1289
 1254ERGO    R117438   0.323   4.569   8.209  0.1738 -0.0036  0.1754
 1254ERGO    R217439   0.337   4.297   8.166 -0.0805 -0.0529  0.3839
 1254ERGO    R317440   0.592   4.329   8.253  0.0663 -0.1563  0.0137
 1254ERGO    R417441   0.525   4.051   8.319  0.0200 -0.1068  0.1778
 1254ERGO    R517442   0.601   4.201   8.456  0.2930 -0.1095  0.0351
 1254ERGO    C117443   0.874   3.937   8.490  0.2163 -0.2352 -0.2898
 1254ERGO    C217444   1.050   3.704   8.541  0.0142  0.2449  0.4925
 1255ERGO   ROH17445  12.349  11.492   6.139  0.0757 -0.2705  0.1224
 1255ERGO    R117446  12.366  11.537   6.418  0.0210 -0.2093  0.1155
 1255ERGO    R217447  12.147  11.524   6.585  0.0052 -0.2574  0.0860
 1255ERGO    R317448  12.302  11.347   6.722  0.0505 -0.1724  0.1462
 1255ERGO    R417449  12.121  11.461   6.924  0.0991 -0.0535  0.1327
 1255ERGO    R517450  12.339  11.453   6.933  0.1062 -0.0407  0.0746
 1255ERGO    C117451  12.253  11.258   7.250  0.1964  0.1451  0.2163
 1255ERGO    C217452  12.320  11.205   7.529 -0.1965 -0.0187 -0.2129
 1256ERGO   ROH17453  11.634  13.334   6.715  0.0220  0.2232  0.0056
 1256ERGO    R117454  11.608  13.199   6.962 -0.1316  0.2202 -0.0114
 1256ERGO    R217455  11.826  13.126   7.116 -0.2043 -0.1445 -0.0730
 1256ERGO    R317456  11.695  13.264   7.310  0.0511  0.0307 -0.0193
 1256ERGO    R417457  11.869  13.079   7.456 -0.0294 -0.1009 -0.0882
 1256ERGO    R517458  11.654  13.102   7.481  0.0060  0.1108  0.0467
 1256ERGO    C117459  11.771  13.181   7.835  0.3123  0.0888 -0.0467
 1256ERGO    C217460  11.968  13.058   7.986  0.2018 -0.2196  0.1221
 1257ERGO   ROH17461   9.937   5.541   6.433  0.0451  0.3837  0.0228
 1257ERGO    R117462  10.122   5.588   6.642  0.0757  0.0881  0.0651
 1257ERGO    R217463  10.048   5.596   6.908  0.0624  0.0185  0.0588
 1257ERGO    R317464  10.241   5.408   6.935 -0.1226 -0.1878 -0.0181
 1257ERGO    R417465  10.228   5.537   7.197  0.3728  0.1037 -0.1124
 1257ERGO    R517466  10.406   5.510   7.075  0.1900 -0.2297 -0.3331
 1257ERGO    C117467  10.515   5.325   7.390  0.3798 -0.0404 -0.2843
 1257ERGO    C217468  10.562   5.250   7.679 -0.2603  0.2182  0.0517
 1258ERGO   ROH17469   7.990   7.535   5.986  0.2375  0.0563  0.1165
 1258ERGO    R117470   8.147   7.590   6.215  0.1376  0.0980  0.1765
 1258ERGO    R217471   8.097   7.804   6.382  0.0823  0.1479  0.0996
 1258ERGO    R317472   8.093   7.611   6.574 -0.0286  0.1962  0.1463
 1258ERGO    R417473   8.103   7.864   6.722  0.2188  0.2218  0.0845
 1258ERGO    R517474   8.239   7.695   6.745  0.0839  0.1151  0.0894
 1258ERGO    C117475   8.103   7.718   7.101  0.1941  0.3102  0.1196
 1258ERGO    C217476   8.103   7.834   7.431 -0.0765  0.1771 -0.1851
 1259ERGO   ROH17477  13.622   1.433   6.390  0.0596 -0.1211 -0.1076
 1259ERGO    R117478  13.738   1.395   6.645  0.1243 -0.1757 -0.1457
 1259ERGO    R217479  13.979   1.509   6.718  0.0336 -0.0136 -0.1102
 1259ERGO    R317480  13.834   1.605   6.926 -0.0200 -0.2628 -0.0287
 1259ERGO    R417481  14.101   1.558   7.038  0.1093  0.1000 -0.1550
 1259ERGO    R517482  13.912   1.482   7.116  0.2467 -0.1916 -0.0849
 1259ERGO    C117483  14.034   1.677   7.420  0.1031 -0.0677 -0.1046
 1259ERGO    C217484  14.168   1.657   7.707  0.0189  0.1377  0.1228
 1260ERGO   ROH17485  15.647  11.642   6.368 -0.0397  0.1743 -0.0643
 1260ERGO    R117486  15.741  11.537   6.614 -0.0010  0.1379 -0.0953
 1260ERGO    R217487  15.925  11.670   6.771 -0.0711  0.1717 -0.0463
 1260ERGO    R317488  15.736  11.637   6.963 -0.0621  0.0194 -0.0610
 1260ERGO    R417489  15.984  11.677   7.112 -0.0769  0.0656 -0.0421
 1260ERGO    R517490  15.845  11.512   7.135 -0.0106 -0.0032 -0.1075
 1260ERGO    C117491  15.840  11.651   7.490 -0.0718 -0.1392 -0.0534
 1260ERGO    C217492  15.689  11.942   7.727  0.0875 -0.0693 -0.0921
 1261ERGO   ROH17493  17.200  15.930   6.268 -0.0756 -0.1221 -0.2388
 1261ERGO    R117494  17.118  16.015   6.526  0.0134 -0.0475 -0.2339
 1261ERGO    R217495  16.854  16.068   6.588  0.0317 -0.0262 -0.1568
 1261ERGO    R317496  16.900  15.890   6.789  0.1018  0.0281 -0.1253
 1261ERGO    R417497  16.715  16.086   6.904  0.0302 -0.0288 -0.1579
 1261ERGO    R517498  16.907  16.024   6.987  0.0515  0.0615 -0.1495
 1261ERGO    C117499  16.677  15.930   7.276  0.0951  0.0207 -0.1290
 1261ERGO    C217500  16.620  15.855   7.673  0.0243  0.3788 -0.2476
 1262ERGO   ROH17501   3.180  12.271   6.504  0.1951 -0.0153  0.1005
 1262ERGO    R117502   3.076  12.403   6.731  0.1806 -0.0678  0.1229
 1262ERGO    R217503   2.808  12.467   6.756  0.1881 -0.0602  0.1109
 1262ERGO    R317504   2.830  12.330   6.989  0.1505 -0.1159  0.0837
 1262ERGO    R417505   2.562  12.448   6.998  0.0941 -0.2076  0.0067
 1262ERGO    R517506   2.717  12.466   7.150  0.0356 -0.1906  0.0760
 1262ERGO    C117507   2.439  12.308   7.358  0.0040 -0.3456 -0.0796
 1262ERGO    C217508   2.240  12.352   7.620 -0.0059  0.0683 -0.0810
 1263ERGO   ROH17509   6.132  13.894   6.653  0.2227 -0.0521 -0.1098
 1263ERGO    R117510   6.251  13.923   6.908  0.0500  0.0693 -0.0399
 1263ERGO    R217511   6.173  14.117   7.088 -0.1761  0.0654 -0.1219
 1263ERGO    R317512   6.142  13.905   7.255 -0.1579  0.0763 -0.1063
 1263ERGO    R417513   6.188  14.133   7.433 -0.0681  0.0581 -0.1265
 1263ERGO    R517514   6.298  13.945   7.432 -0.1026  0.0472 -0.1558
 1263ERGO    C117515   6.167  13.942   7.790  0.0119  0.0640 -0.1144
 1263ERGO    C217516   6.253  14.017   8.043 -0.0952  0.2681  0.0746
 1264ERGO   ROH17517   6.310  11.384   6.636  0.1624  0.2129  0.0089
 1264ERGO    R117518   6.318  11.486   6.900  0.0878  0.1158  0.0500
 1264ERGO    R217519   6.105  11.463   7.075  0.0151  0.0999 -0.0341
 1264ERGO    R317520   6.292  11.350   7.237 -0.0684 -0.0026 -0.0096
 1264ERGO    R417521   6.085  11.449   7.420  0.0830  0.3329 -0.0199
 1264ERGO    R517522   6.298  11.493   7.429  0.1323  0.1082 -0.0991
 1264ERGO    C117523   6.249  11.335   7.773  0.0443  0.3723  0.0113
 1264ERGO    C217524   6.284  11.163   8.057 -0.0644  0.2366  0.2840
 1265ERGO   ROH17525  10.185   9.384   6.215  0.1317  0.3112 -0.1134
 1265ERGO    R117526  10.293   9.346   6.474  0.0344  0.0450 -0.1091
 1265ERGO    R217527  10.284   9.543   6.668  0.2267 -0.0480 -0.0089
 1265ERGO    R317528  10.166   9.347   6.815 -0.0359  0.0124 -0.1338
 1265ERGO    R417529  10.194   9.571   7.001  0.4022 -0.1758  0.0513
 1265ERGO    R517530  10.264   9.367   7.032  0.0888 -0.3261 -0.1490
 1265ERGO    C117531  10.030   9.403   7.332  0.2576 -0.1937 -0.0307
 1265ERGO    C217532   9.941   9.388   7.618 -0.0908  0.1932 -0.0255
 1266ERGO   ROH17533   5.885  16.413   6.655  0.1103 -0.1406 -0.0318
 1266ERGO    R117534   5.877  16.534   6.911  0.1403 -0.0607 -0.0682
 1266ERGO    R217535   5.641  16.610   7.033  0.1530 -0.0376 -0.0574
 1266ERGO    R317536   5.734  16.455   7.236  0.1930  0.0316 -0.0224
 1266ERGO    R417537   5.585  16.671   7.368  0.0038 -0.0652 -0.0766
 1266ERGO    R517538   5.791  16.612   7.408  0.0316  0.0762 -0.0083
 1266ERGO    C117539   5.639  16.561   7.754 -0.0456 -0.0161 -0.0551
 1266ERGO    C217540   5.632  16.654   8.122 -0.0208  0.0769 -0.0763
 1267ERGO   ROH17541   0.301  11.105   6.461 -0.3240  0.1760 -0.5861
 1267ERGO    R117542   0.042  11.056   6.564 -0.2295  0.2059 -0.3268
 1267ERGO    R217543  -0.004  10.993   6.829  0.0202  0.2805 -0.2656
 1267ERGO    R317544  -0.175  11.204   6.816  0.0070  0.2770 -0.1607
 1267ERGO    R417545  -0.338  10.982   6.917 -0.0072  0.1801 -0.3791
 1267ERGO    R517546  -0.383  11.107   6.745  0.0371  0.3089 -0.3012
 1267ERGO    C117547  -0.693  11.173   6.957 -0.0357  0.1183 -0.3467
 1267ERGO    C217548  -0.906  11.166   7.209 -0.1777 -0.0691  0.4232
 1268ERGO   ROH17549   0.190   1.699   6.605 -0.0668  0.0146 -0.1305
 1268ERGO    R117550   0.135   1.775   6.872  0.2080  0.0732 -0.0882
 1268ERGO    R217551  -0.098   1.703   7.002  0.0943  0.5541 -0.0173
 1268ERGO    R317552   0.074   1.605   7.188 -0.0414  0.1227 -0.1066
 1268ERGO    R417553  -0.170   1.668   7.338  0.1232  0.5922 -0.0063
 1268ERGO    R517554   0.031   1.737   7.383  0.2970  0.1556 -0.0454
 1268ERGO    C117555  -0.051   1.555   7.708  0.0124  0.2094 -0.0836
 1268ERGO    C217556  -0.197   1.668   8.091 -0.0001 -0.0230  0.0186
 1269ERGO   ROH17557   3.784   4.545   6.649  0.0744 -0.1331  0.0612
 1269ERGO    R117558   3.752   4.392   6.885 -0.0929  0.0046  0.1292
 1269ERGO    R217559   3.957   4.353   7.067 -0.1253 -0.1626  0.1317
 1269ERGO    R317560   3.776   4.452   7.243  0.0008  0.1311  0.1021
 1269ERGO    R417561   3.991   4.345   7.411 -0.1081 -0.0302  0.1339
 1269ERGO    R517562   3.779   4.297   7.426 -0.1614  0.2173  0.1781
 1269ERGO    C117563   3.840   4.433   7.777  0.0203  0.3227  0.1073
 1269ERGO    C217564   3.836   4.450   8.060 -0.0472  0.0277 -0.3290
 1270ERGO   ROH17565   1.528   8.007   6.697 -0.0266  0.0821  0.0245
 1270ERGO    R117566   1.477   8.121   6.951 -0.0744  0.0059  0.0497
 1270ERGO    R217567   1.346   7.985   7.152  0.0665 -0.1285  0.0534
 1270ERGO    R317568   1.567   8.049   7.296  0.0421  0.0258  0.0239
 1270ERGO    R417569   1.351   8.034   7.494  0.1371 -0.4492  0.1015
 1270ERGO    R517570   1.487   8.202   7.463 -0.0948 -0.2361  0.2039
 1270ERGO    C117571   1.561   8.123   7.829  0.1553 -0.4912  0.1019
 1270ERGO    C217572   1.394   8.118   8.068  0.2681  0.1303  0.0047
 1271ERGO   ROH17573   6.661   8.490   6.241 -0.3245  0.1074 -0.1237
 1271ERGO    R117574   6.775   8.446   6.497 -0.1570 -0.0068 -0.2162
 1271ERGO    R217575   6.724   8.611   6.713  0.1916  0.0520 -0.1704
 1271ERGO    R317576   6.653   8.378   6.832  0.0468  0.1258 -0.1145
 1271ERGO    R417577   6.678   8.570   7.053  0.2362  0.1408 -0.1535
 1271ERGO    R517578   6.777   8.376   7.037  0.0891  0.0679 -0.1428
 1271ERGO    C117579   6.585   8.326   7.363  0.1261  0.2618 -0.0912
 1271ERGO    C217580   6.544   8.132   7.602 -0.3544 -0.0102  0.1553
 1272ERGO   ROH17581   0.715  14.300   6.494 -0.0791  0.0091  0.0994
 1272ERGO    R117582   0.725  14.430   6.745 -0.1993  0.0610  0.0770
 1272ERGO    R217583   0.577  14.346   6.962 -0.0591 -0.0900  0.1112
 1272ERGO    R317584   0.820  14.343   7.085 -0.0323  0.2309  0.0774
 1272ERGO    R417585   0.629  14.258   7.292  0.1149 -0.2031  0.0556
 1272ERGO    R517586   0.774  14.421   7.307 -0.1404  0.0314  0.1312
 1272ERGO    C117587   0.887  14.203   7.600  0.2415  0.0324 -0.0086
 1272ERGO    C217588   1.118  14.022   7.712 -0.2393  0.0234 -0.0582
 1273ERGO   ROH17589  15.942   7.020   6.759 -0.2120 -0.0638 -0.0081
 1273ERGO    R117590  15.820   7.038   7.014 -0.0935 -0.1941  0.0595
 1273ERGO    R217591  15.868   6.854   7.215  0.2704 -0.1081  0.0621
 1273ERGO    R317592  15.932   7.076   7.358  0.0554  0.0028 -0.0090
 1273ERGO    R417593  15.939   6.857   7.553  0.2590  0.0741  0.0634
 1273ERGO    R517594  15.827   7.043   7.570  0.0812 -0.0269 -0.0018
 1273ERGO    C117595  16.042   7.067   7.884  0.0504  0.2843 -0.0026
 1273ERGO    C217596  16.150   6.969   8.164  0.1022  0.1131  0.0715
 1274ERGO   ROH17597  10.595   2.622   6.273  0.0556  0.0212 -0.0539
 1274ERGO    R117598  10.639   2.461   6.502 -0.1237  0.0386 -0.0063
 1274ERGO    R217599  10.884   2.446   6.628 -0.1284 -0.2274 -0.0277
 1274ERGO    R317600  10.739   2.515   6.848 -0.0220  0.0258 -0.0328
 1274ERGO    R417601  10.983   2.392   6.955 -0.3374 -0.6483 -0.0265
 1274ERGO    R517602  10.778   2.336   7.003 -0.5041 -0.1645 -0.1115
 1274ERGO    C117603  10.905   2.425   7.351 -0.3593 -0.6557 -0.0307
 1274ERGO    C217604  11.140   2.432   7.584 -0.1846  0.0769  0.2351
 1275ERGO   ROH17605  10.656  14.484   6.445  0.1246 -0.1310  0.0891
 1275ERGO    R117606  10.739  14.455   6.714  0.0106 -0.2644  0.1117
 1275ERGO    R217607  10.797  14.670   6.876  0.3383 -0.3494  0.1202
 1275ERGO    R317608  10.615  14.554   7.041  0.0932 -0.0404  0.0761
 1275ERGO    R417609  10.794  14.702   7.220  0.2228 -0.2368  0.1087
 1275ERGO    R517610  10.742  14.491   7.234 -0.0847 -0.1611  0.1547
 1275ERGO    C117611  10.622  14.611   7.576 -0.0745  0.1187  0.0607
 1275ERGO    C217612  10.523  14.728   7.850 -0.1352  0.0123 -0.1599
 1276ERGO   ROH17613  10.389  13.084   6.790  0.0834  0.1801  0.1540
 1276ERGO    R117614  10.460  13.164   7.052  0.0625  0.0972  0.1852
 1276ERGO    R217615  10.361  13.039   7.277  0.0551  0.0169  0.1380
 1276ERGO    R317616  10.624  13.011   7.339  0.0525  0.0108  0.1455
 1276ERGO    R417617  10.491  13.060   7.597  0.0270 -0.1206  0.1586
 1276ERGO    R517618  10.660  13.170   7.515  0.0244 -0.0674  0.2232
 1276ERGO    C117619  10.814  13.045   7.841  0.0082 -0.2066  0.1778
 1276ERGO    C217620  10.913  13.095   8.174  0.0243  0.0678 -0.1983
 1277ERGO   ROH17621   3.278  10.114   6.530  0.0975  0.0605  0.0032
 1277ERGO    R117622   3.440  10.006   6.735  0.0379  0.0587  0.0508
 1277ERGO    R217623   3.586  10.164   6.909 -0.1116  0.0630  0.1801
 1277ERGO    R317624   3.453  10.022   7.098 -0.1548 -0.0530  0.0630
 1277ERGO    R417625   3.706  10.095   7.226 -0.1459 -0.2190  0.1339
 1277ERGO    R517626   3.623   9.895   7.209 -0.1948 -0.1832 -0.0275
 1277ERGO    C117627   3.649   9.922   7.588 -0.2065 -0.4920 -0.0029
 1277ERGO    C217628   3.627   9.990   7.801 -0.0764 -0.0457 -0.1334
 1278ERGO   ROH17629   5.841  12.808   6.503  0.0338  0.0625 -0.0201
 1278ERGO    R117630   5.732  12.849   6.761  0.0687  0.0007  0.0053
 1278ERGO    R217631   5.674  12.640   6.932  0.0316 -0.0463 -0.0595
 1278ERGO    R317632   5.832  12.780   7.104  0.0854 -0.1453 -0.0290
 1278ERGO    R417633   5.662  12.614   7.277 -0.1060  0.0230 -0.0586
 1278ERGO    R517634   5.688  12.830   7.289  0.0644  0.0026 -0.0868
 1278ERGO    C117635   5.804  12.729   7.639 -0.1355 -0.0297 -0.0295
 1278ERGO    C217636   5.623  12.649   7.977 -0.2545  0.2680  0.0360
 1279ERGO   ROH17637  17.156   0.851   7.002 -0.1001  0.2656  0.1710
 1279ERGO    R117638  17.001   0.760   7.220  0.0095  0.2160  0.2289
 1279ERGO    R217639  17.072   0.541   7.372  0.0489  0.1366  0.0973
 1279ERGO    R317640  17.048   0.716   7.578  0.2163  0.0598  0.1846
 1279ERGO    R417641  17.059   0.452   7.706 -0.1657 -0.0316  0.0468
 1279ERGO    R517642  16.906   0.605   7.735  0.0207  0.1565  0.0806
 1279ERGO    C117643  17.029   0.566   8.094 -0.1333 -0.2015  0.0993
 1279ERGO    C217644  16.866   0.595   8.418  0.1567  0.2809  0.0225
 1280ERGO   ROH17645  11.911   2.369   6.002 -0.0057 -0.1493 -0.1519
 1280ERGO    R117646  11.841   2.230   6.239  0.0551 -0.1136 -0.1127
 1280ERGO    R217647  12.012   2.054   6.364  0.1464  0.0222 -0.0433
 1280ERGO    R317648  11.965   2.211   6.581  0.0420  0.0654 -0.0973
 1280ERGO    R417649  12.031   1.949   6.693  0.0282  0.0988 -0.0117
 1280ERGO    R517650  11.853   2.067   6.736 -0.0027  0.0876 -0.1089
 1280ERGO    C117651  11.997   2.036   7.088 -0.1388  0.1839 -0.0439
 1280ERGO    C217652  12.148   2.081   7.312  0.0884  0.0481 -0.0153
 1281ERGO   ROH17653   7.904  13.301   6.538 -0.0709 -0.0478 -0.1174
 1281ERGO    R117654   7.781  13.198   6.771 -0.1350  0.0332 -0.1152
 1281ERGO    R217655   7.924  13.127   6.997 -0.1725 -0.0954 -0.1309
 1281ERGO    R317656   7.751  13.297   7.120 -0.0306  0.0339 -0.1065
 1281ERGO    R417657   7.879  13.150   7.339 -0.1528 -0.1022 -0.1275
 1281ERGO    R517658   7.665  13.171   7.304 -0.1360  0.0817 -0.1233
 1281ERGO    C117659   7.691  13.323   7.653 -0.0081  0.0152 -0.1028
 1281ERGO    C217660   7.734  13.588   8.040  0.3439 -0.3134  0.1294
 1282ERGO   ROH17661   7.631   5.275   6.113  0.0541  0.3552 -0.0060
 1282ERGO    R117662   7.509   5.173   6.348  0.1873  0.1428 -0.0249
 1282ERGO    R217663   7.650   5.122   6.579  0.2690  0.2263 -0.0539
 1282ERGO    R317664   7.463   5.284   6.691  0.0962 -0.0146  0.0143
 1282ERGO    R417665   7.562   5.120   6.913  0.2839  0.0138 -0.0499
 1282ERGO    R517666   7.354   5.146   6.854  0.2523 -0.1905 -0.0289
 1282ERGO    C117667   7.336   5.272   7.213  0.1303 -0.3361  0.0164
 1282ERGO    C217668   7.118   5.191   7.519  0.1921  0.1155  0.1026
 1283ERGO   ROH17669   4.563   7.244   6.496 -0.0026 -0.2445  0.0187
 1283ERGO    R117670   4.453   7.183   6.750 -0.0221 -0.0602  0.0568
 1283ERGO    R217671   4.545   6.974   6.905 -0.1825 -0.0909  0.1194
 1283ERGO    R317672   4.574   7.168   7.093  0.0156 -0.0451  0.0432
 1283ERGO    R417673   4.499   6.928   7.244 -0.0359  0.0511  0.1590
 1283ERGO    R517674   4.400   7.122   7.252  0.0737  0.1029  0.1462
 1283ERGO    C117675   4.499   7.084   7.619  0.2354  0.1767  0.1106
 1283ERGO    C217676   4.484   7.043   8.003 -0.2398  0.1148 -0.5201
 1284ERGO   ROH17677  15.298   6.417   6.675  0.0126 -0.1677 -0.0616
 1284ERGO    R117678  15.467   6.306   6.873 -0.0327 -0.1318 -0.0021
 1284ERGO    R217679  15.619   6.461   7.044 -0.0296 -0.1010 -0.0301
 1284ERGO    R317680  15.492   6.317   7.236 -0.0814 -0.0180 -0.0024
 1284ERGO    R417681  15.696   6.470   7.381  0.0416 -0.1444 -0.0453
 1284ERGO    R517682  15.665   6.254   7.388 -0.0917 -0.1243 -0.0358
 1284ERGO    C117683  15.621   6.339   7.757  0.0344 -0.0917 -0.0281
 1284ERGO    C217684  15.568   6.337   8.137 -0.1380 -0.1646  0.0692
 1285ERGO   ROH17685  11.236   7.177   6.419 -0.0773 -0.0277  0.0453
 1285ERGO    R117686  11.052   7.026   6.572 -0.1021  0.0053  0.0498
 1285ERGO    R217687  11.075   6.995   6.845 -0.0569 -0.0636  0.0428
 1285ERGO    R317688  10.820   7.089   6.845 -0.0215  0.0334  0.1105
 1285ERGO    R417689  10.844   6.939   7.096 -0.1165 -0.2394 -0.0505
 1285ERGO    R517690  10.692   6.912   6.943 -0.1043 -0.0175 -0.0967
 1285ERGO    C117691  10.470   6.995   7.242 -0.1180 -0.2507 -0.0413
 1285ERGO    C217692  10.372   6.973   7.583  0.0817  0.2030  0.0773
 1286ERGO   ROH17693   0.660  13.176   6.179 -0.2433 -0.3015  0.0618
 1286ERGO    R117694   0.671  13.296   6.435 -0.2012 -0.1437 -0.0118
 1286ERGO    R217695   0.479  13.251   6.628 -0.1703 -0.0278  0.0509
 1286ERGO    R317696   0.694  13.182   6.780 -0.1429  0.0658  0.0544
 1286ERGO    R417697   0.484  13.252   6.973 -0.1033  0.1802  0.0505
 1286ERGO    R517698   0.686  13.334   6.965 -0.1077  0.1760 -0.0359
 1286ERGO    C117699   0.688  13.187   7.317 -0.0386  0.3892  0.0537
 1286ERGO    C217700   0.567  13.296   7.701  0.2016 -0.3316 -0.0858
 1287ERGO   ROH17701  11.943   3.320   6.121  0.1610  0.1305  0.0158
 1287ERGO    R117702  12.086   3.219   6.343  0.1041  0.1503  0.0616
 1287ERGO    R217703  12.308   3.345   6.448  0.0225  0.2094  0.1660
 1287ERGO    R317704  12.166   3.332   6.680 -0.0669  0.1379  0.1075
 1287ERGO    R417705  12.446   3.345   6.765 -0.0939  0.0164  0.2181
 1287ERGO    R517706  12.299   3.195   6.824 -0.1595  0.0295  0.0914
 1287ERGO    C117707  12.392   3.333   7.167 -0.2458 -0.1631  0.1935
 1287ERGO    C217708  12.409   3.391   7.493 -0.2055 -0.0478 -0.1980
 1288ERGO   ROH17709   7.242  15.666   6.591 -0.0714  0.1187 -0.0501
 1288ERGO    R117710   7.115  15.569   6.824 -0.0807  0.1798 -0.0294
 1288ERGO    R217711   7.256  15.481   7.045 -0.0821 -0.0063 -0.0996
 1288ERGO    R317712   7.100  15.662   7.175  0.1306  0.1096 -0.0006
 1288ERGO    R417713   7.183  15.472   7.383 -0.0721 -0.0903 -0.0995
 1288ERGO    R517714   6.979  15.531   7.335 -0.0096  0.1674 -0.0587
 1288ERGO    C117715   6.995  15.636   7.702  0.1334 -0.0304 -0.0065
 1288ERGO    C217716   6.921  15.694   8.009 -0.0706 -0.0325  0.4569
 1289ERGO   ROH17717   1.200   1.784   7.825 -0.3305 -0.2046  0.1326
 1289ERGO    R117718   1.336   1.973   7.985 -0.0650 -0.1711 -0.1246
 1289ERGO    R217719   1.283   2.006   8.254 -0.1583  0.3970 -0.2015
 1289ERGO    R317720   1.550   1.965   8.280 -0.2394 -0.0638  0.0069
 1289ERGO    R417721   1.480   2.135   8.507 -0.0879  0.2682 -0.1891
 1289ERGO    R517722   1.636   2.174   8.360  0.0844 -0.1396 -0.1254
 1289ERGO    C117723   1.845   2.171   8.679 -0.1232 -0.2393  0.0137
 1289ERGO    C217724   2.009   1.975   9.040 -0.1186 -0.0052 -0.0507
 1290ERGO   ROH17725   8.226  12.225   6.755  0.0030  0.2744  0.1921
 1290ERGO    R117726   8.412  12.030   6.842 -0.0117  0.2214  0.1065
 1290ERGO    R217727   8.585  12.073   7.053 -0.0283  0.1042  0.1472
 1290ERGO    R317728   8.475  11.843   7.148 -0.0474  0.0584  0.0148
 1290ERGO    R417729   8.691  11.905   7.336 -0.2464  0.0997  0.2282
 1290ERGO    R517730   8.662  11.717   7.229 -0.0870  0.1054  0.1765
 1290ERGO    C117731   8.650  11.591   7.589 -0.3912  0.0540  0.1510
 1290ERGO    C217732   8.774  11.676   7.813  0.4220 -0.1777 -0.0692
 1291ERGO   ROH17733  11.314  16.837   6.352 -0.0249  0.0392 -0.0301
 1291ERGO    R117734  11.308  16.793   6.631 -0.0445  0.1034 -0.0201
 1291ERGO    R217735  11.529  16.707   6.773 -0.0856  0.0212 -0.0040
 1291ERGO    R317736  11.478  16.927   6.924  0.0279  0.0816 -0.0522
 1291ERGO    R417737  11.572  16.725   7.115  0.0208  0.1096 -0.0214
 1291ERGO    R517738  11.386  16.839   7.127  0.0604  0.1706  0.0009
 1291ERGO    C117739  11.549  16.942   7.457  0.1894  0.2179 -0.0767
 1291ERGO    C217740  11.532  17.018   7.685  0.1209 -0.1125  0.1384
 1292ERGO   ROH17741   6.888  16.647   6.450 -0.0876 -0.0339  0.0101
 1292ERGO    R117742   6.754  16.621   6.698  0.0038 -0.0801  0.0580
 1292ERGO    R217743   6.842  16.452   6.899  0.1012 -0.0989  0.0177
 1292ERGO    R317744   6.834  16.678   7.049  0.1314 -0.1092  0.0299
 1292ERGO    R417745   6.750  16.466   7.231  0.0133 -0.0648 -0.0096
 1292ERGO    R517746   6.642  16.650   7.189  0.0937 -0.0394 -0.0258
 1292ERGO    C117747   6.688  16.686   7.566 -0.0095 -0.0542 -0.0141
 1292ERGO    C217748   6.598  16.656   7.984 -0.1201  0.2505 -0.0297
 1293ERGO   ROH17749   7.113  17.019   6.527  0.1884  0.1614  0.1784
 1293ERGO    R117750   7.103  16.934   6.797 -0.1281  0.0560  0.1386
 1293ERGO    R217751   7.272  17.034   6.991 -0.0018 -0.3838  0.2719
 1293ERGO    R317752   7.039  17.087   7.121  0.0328  0.0546  0.1712
 1293ERGO    R417753   7.233  17.037   7.334 -0.2053 -0.6005  0.2527
 1293ERGO    R517754   7.041  16.938   7.309 -0.4340 -0.1260  0.0444
 1293ERGO    C117755   6.992  17.088   7.656 -0.2913 -0.3152  0.1470
 1293ERGO    C217756   6.939  17.157   8.000 -0.0493 -0.1148  0.4220
 1294ERGO   ROH17757   9.884  13.373   6.537 -0.4060 -0.1324  0.0224
 1294ERGO    R117758   9.849  13.367   6.818 -0.2463 -0.1892  0.0419
 1294ERGO    R217759   9.758  13.143   6.952  0.0256 -0.2809  0.0727
 1294ERGO    R317760   9.984  13.178   7.098  0.0759 -0.0951 -0.0447
 1294ERGO    R417761   9.781  13.100   7.294  0.2298 -0.2614  0.0629
 1294ERGO    R517762   9.909  13.276   7.302  0.0950 -0.1524 -0.0060
 1294ERGO    C117763  10.007  13.107   7.630  0.3959 -0.0754 -0.0530
 1294ERGO    C217764  10.167  13.063   7.984 -0.2205  0.0713 -0.2342
 1295ERGO   ROH17765   6.797   0.604   6.837 -0.0419  0.0832  0.1060
 1295ERGO    R117766   6.887   0.740   7.069 -0.4360  0.2277  0.1774
 1295ERGO    R217767   6.740   0.747   7.303 -0.3266 -0.6335  0.2857
 1295ERGO    R317768   6.970   0.651   7.412  0.1869  0.1967  0.0351
 1295ERGO    R417769   6.847   0.812   7.625 -0.5192 -0.6320  0.3530
 1295ERGO    R517770   7.051   0.831   7.548 -0.5721  0.4049  0.2832
 1295ERGO    C117771   7.126   0.759   7.915 -0.1493  0.1483  0.1570
 1295ERGO    C217772   7.213   0.927   8.235  0.1571 -0.3162  0.1679
 1296ERGO   ROH17773   5.098  10.271   6.395  0.0723  0.1412  0.1010
 1296ERGO    R117774   5.233  10.312   6.640  0.0996  0.0336  0.1040
 1296ERGO    R217775   5.164  10.512   6.817  0.1801  0.0158  0.1562
 1296ERGO    R317776   5.148  10.306   6.993  0.1157 -0.0215  0.1070
 1296ERGO    R417777   5.084  10.544   7.152  0.0717 -0.0539  0.1375
 1296ERGO    R517778   5.236  10.394   7.198  0.0519 -0.0683  0.1553
 1296ERGO    C117779   5.023  10.368   7.512 -0.0518 -0.1295  0.0805
 1296ERGO    C217780   5.039  10.353   7.907 -0.0416 -0.0525  0.2448
 1297ERGO   ROH17781  13.598   2.551   6.383  0.0103 -0.0669  0.0830
 1297ERGO    R117782  13.747   2.523   6.622 -0.0337 -0.0346  0.1135
 1297ERGO    R217783  13.837   2.740   6.767 -0.0564 -0.0178  0.0946
 1297ERGO    R317784  13.707   2.616   6.971 -0.0923  0.0172  0.0942
 1297ERGO    R417785  13.921   2.771   7.101 -0.1011  0.0342  0.1020
 1297ERGO    R517786  13.881   2.557   7.125 -0.1126  0.0353  0.1290
 1297ERGO    C117787  13.848   2.672   7.487 -0.1610  0.0974  0.1060
 1297ERGO    C217788  13.781   2.729   7.812  0.2696 -0.0753 -0.0901
 1298ERGO   ROH17789   9.555  12.377   6.458 -0.0269 -0.1359  0.0123
 1298ERGO    R117790   9.575  12.410   6.738 -0.0522 -0.0587  0.0039
 1298ERGO    R217791   9.421  12.267   6.916 -0.0090 -0.0643  0.0274
 1298ERGO    R317792   9.662  12.202   7.024  0.0060  0.0448  0.0648
 1298ERGO    R417793   9.465  12.117   7.225 -0.0088 -0.1828 -0.0288
 1298ERGO    R517794   9.636  12.247   7.258 -0.0992 -0.0793  0.0836
 1298ERGO    C117795   9.717  11.968   7.505  0.0055 -0.1493 -0.0264
 1298ERGO    C217796   9.630  11.781   7.808  0.0085 -0.2048 -0.0555
 1299ERGO   ROH17797  14.587  10.949   6.183 -0.1164 -0.0954  0.1196
 1299ERGO    R117798  14.586  10.862   6.453 -0.0826 -0.1544  0.1031
 1299ERGO    R217799  14.613  11.038   6.665  0.2027 -0.2206  0.1398
 1299ERGO    R317800  14.382  10.921   6.748  0.1114  0.0051  0.2048
 1299ERGO    R417801  14.519  10.997   6.996  0.3020 -0.2512  0.1627
 1299ERGO    R517802  14.444  10.799   6.945  0.0590 -0.1404  0.1231
 1299ERGO    C117803  14.248  10.863   7.266  0.2742 -0.0571  0.2370
 1299ERGO    C217804  14.154  10.744   7.547  0.1576  0.0826 -0.1057
 1300ERGO   ROH17805   7.235  10.463   6.404 -0.1989 -0.0554  0.0336
 1300ERGO    R117806   7.223  10.364   6.669 -0.1211 -0.0066  0.0560
 1300ERGO    R217807   7.427  10.400   6.851 -0.0689  0.0314 -0.0083
 1300ERGO    R317808   7.230  10.506   7.004 -0.0278  0.0564  0.0273
 1300ERGO    R417809   7.433  10.414   7.196  0.0922  0.2303 -0.0173
 1300ERGO    R517810   7.220  10.363   7.196  0.1090  0.1633  0.1146
 1300ERGO    C117811   7.250  10.523   7.541  0.2245  0.3694  0.0109
 1300ERGO    C217812   7.333  10.486   7.863  0.0436  0.0035  0.0896
 1301ERGO   ROH17813   0.112   5.247   6.586  0.1410  0.2175 -0.0704
 1301ERGO    R117814   0.069   5.430   6.798  0.1188  0.1718 -0.0351
 1301ERGO    R217815  -0.169   5.442   6.939  0.1004  0.1481 -0.0631
 1301ERGO    R317816  -0.006   5.409   7.154  0.0714  0.0949 -0.0494
 1301ERGO    R417817  -0.271   5.450   7.269  0.0949  0.3153 -0.0678
 1301ERGO    R517818  -0.091   5.561   7.318  0.1725  0.2029 -0.0952
 1301ERGO    C117819  -0.178   5.422   7.662  0.0644  0.3626 -0.0578
 1301ERGO    C217820  -0.424   5.357   7.975  0.0436 -0.0971 -0.1860
 1302ERGO   ROH17821   3.416   1.277   6.454  0.5671 -0.0678  0.1156
 1302ERGO    R117822   3.255   1.315   6.683  0.3250 -0.0463 -0.0540
 1302ERGO    R217823   3.308   1.192   6.925  0.0313 -0.0818 -0.0013
 1302ERGO    R317824   3.301   1.446   7.019 -0.0050 -0.0871  0.0092
 1302ERGO    R417825   3.291   1.277   7.259  0.1002 -0.0909  0.0044
 1302ERGO    R517826   3.151   1.436   7.206  0.0497 -0.1254  0.0480
 1302ERGO    C117827   3.275   1.567   7.543  0.1063 -0.1012  0.0175
 1302ERGO    C217828   3.471   1.750   7.741 -0.0296  0.0303  0.4383
 1303ERGO   ROH17829   4.334  13.337   6.502 -0.0839  0.0903 -0.1078
 1303ERGO    R117830   4.232  13.233   6.745 -0.2377  0.1083 -0.1633
 1303ERGO    R217831   4.389  13.200   6.970 -0.2833 -0.2325 -0.1744
 1303ERGO    R317832   4.195  13.350   7.088 -0.0751 -0.0111 -0.1040
 1303ERGO    R417833   4.329  13.213   7.310 -0.2546 -0.2917 -0.1669
 1303ERGO    R517834   4.115  13.213   7.267 -0.2596  0.0223 -0.1599
 1303ERGO    C117835   4.112  13.361   7.619 -0.0424 -0.1183 -0.0965
 1303ERGO    C217836   4.036  13.455   7.967 -0.1081  0.1532 -0.0291
 1304ERGO   ROH17837   6.505   1.036   6.718 -0.1398 -0.1881  0.0780
 1304ERGO    R117838   6.621   1.105   6.966 -0.0043 -0.0160 -0.0300
 1304ERGO    R217839   6.645   1.367   7.052 -0.2132  0.0316 -0.1013
 1304ERGO    R317840   6.514   1.273   7.270  0.0648 -0.0731  0.0254
 1304ERGO    R417841   6.701   1.472   7.377 -0.1382  0.2275 -0.1762
 1304ERGO    R517842   6.680   1.265   7.442  0.1938  0.2220 -0.0825
 1304ERGO    C117843   6.609   1.444   7.771  0.1664  0.2432 -0.1008
 1304ERGO    C217844   6.514   1.463   8.103 -0.0541 -0.0974  0.0778
 1305ERGO   ROH17845   9.421   9.491   6.262 -0.0235  0.1460  0.2215
 1305ERGO    R117846   9.365   9.522   6.537  0.0932 -0.0349  0.2679
 1305ERGO    R217847   9.108   9.526   6.638  0.1240  0.1252  0.3500
 1305ERGO    R317848   9.202   9.328   6.798 -0.0105 -0.1051  0.1509
 1305ERGO    R417849   9.037   9.494   6.975  0.2347 -0.0774  0.3550
 1305ERGO    R517850   9.245   9.436   7.007  0.1899 -0.3191  0.2232
 1305ERGO    C117851   9.085   9.289   7.321  0.1728 -0.4117  0.1710
 1305ERGO    C217852   8.896   9.347   7.664  0.1069 -0.2220 -0.3471
 1306ERGO   ROH17853  11.310  15.768   6.539 -0.0043 -0.1214  0.0227
 1306ERGO    R117854  11.370  15.664   6.796 -0.3468 -0.1217  0.1063
 1306ERGO    R217855  11.571  15.767   6.955 -0.1144 -0.5371  0.0902
 1306ERGO    R317856  11.370  15.788   7.138 -0.1251  0.1005  0.0295
 1306ERGO    R417857  11.617  15.798   7.296 -0.1156 -0.5665  0.0938
 1306ERGO    R517858  11.449  15.663   7.326 -0.5332 -0.0829  0.0913
 1306ERGO    C117859  11.456  15.835   7.666 -0.1262  0.0148  0.0389
 1306ERGO    C217860  11.724  16.012   7.818  0.2313  0.3406  0.0418
 1307ERGO   ROH17861   5.711  14.426   6.951  0.2478 -0.2972 -0.1838
 1307ERGO    R117862   5.809  14.380   7.212  0.1583 -0.2373 -0.1394
 1307ERGO    R217863   5.705  14.505   7.435  0.0530 -0.2201 -0.2006
 1307ERGO    R317864   5.677  14.250   7.526  0.0650 -0.2102 -0.1665
 1307ERGO    R417865   5.686  14.415   7.768  0.0881 -0.1770 -0.1863
 1307ERGO    R517866   5.812  14.242   7.723  0.0869 -0.1827 -0.1783
 1307ERGO    C117867   5.649  14.123   8.047  0.1199 -0.1426 -0.1459
 1307ERGO    C217868   5.593  14.247   8.365  0.0618 -0.1311  0.1247
 1308ERGO   ROH17869  15.338   8.730   6.444 -0.1561 -0.3051  0.0625
 1308ERGO    R117870  15.215   8.866   6.660 -0.0991 -0.2508  0.0609
 1308ERGO    R217871  15.062   8.737   6.850 -0.1455 -0.1851  0.0674
 1308ERGO    R317872  15.233   8.856   7.024 -0.0963 -0.2463  0.0612
 1308ERGO    R417873  15.027   8.735   7.194 -0.2872  0.0559  0.0566
 1308ERGO    R517874  15.092   8.943   7.196 -0.0836 -0.0019 -0.0464
 1308ERGO    C117875  15.168   8.846   7.557 -0.3236  0.1389  0.0445
 1308ERGO    C217876  15.127   8.903   7.923 -0.2456 -0.1798 -0.3936
 1309ERGO   ROH17877  11.986  14.797   6.439  0.0175  0.2282 -0.0172
 1309ERGO    R117878  12.021  14.746   6.715 -0.1849  0.2577  0.0131
 1309ERGO    R217879  12.263  14.781   6.844 -0.1968 -0.0442  0.1108
 1309ERGO    R317880  12.115  14.938   7.010 -0.0564  0.2117  0.0044
 1309ERGO    R417881  12.323  14.823   7.182 -0.3431 -0.1238  0.1501
 1309ERGO    R517882  12.108  14.816   7.216 -0.3883  0.2273  0.0123
 1309ERGO    C117883  12.220  14.995   7.534 -0.2966  0.0701  0.0731
 1309ERGO    C217884  12.158  15.172   7.847  0.2916 -0.0299  0.0615
 1310ERGO   ROH17885   4.600  10.402   6.434 -0.1101  0.2202 -0.0079
 1310ERGO    R117886   4.703  10.338   6.689 -0.0506  0.2012 -0.0360
 1310ERGO    R217887   4.653  10.492   6.913  0.0488  0.2171 -0.0225
 1310ERGO    R317888   4.567  10.256   7.017  0.0243  0.2384  0.0043
 1310ERGO    R417889   4.624  10.425   7.250  0.1391  0.2248 -0.0135
 1310ERGO    R517890   4.703  10.225   7.212  0.0783  0.2059 -0.0386
 1310ERGO    C117891   4.526  10.164   7.545  0.1688  0.2492  0.0169
 1310ERGO    C217892   4.671  10.002   7.847  0.0080 -0.0278  0.1149
 1311ERGO   ROH17893   9.567  17.598   6.929 -0.1266  0.1812 -0.0003
 1311ERGO    R117894   9.747  17.564   7.144 -0.2048 -0.0079  0.0355
 1311ERGO    R217895   9.773  17.750   7.347 -0.0027 -0.0036 -0.0011
 1311ERGO    R317896   9.723  17.536   7.507 -0.2988  0.0893  0.0396
 1311ERGO    R417897   9.824  17.744   7.688  0.5513 -0.1660 -0.0765
 1311ERGO    R517898   9.901  17.540   7.668  0.0015 -0.3829 -0.2460
 1311ERGO    C117899   9.807  17.539   8.037  0.5959 -0.1730 -0.0821
 1311ERGO    C217900   9.702  17.642   8.209 -0.0471 -0.0974  0.0039
 1312ERGO   ROH17901  10.020  15.592   6.502  0.0318  0.0048  0.0446
 1312ERGO    R117902   9.929  15.494   6.752 -0.0700  0.0734  0.0352
 1312ERGO    R217903  10.102  15.407   6.949 -0.1566 -0.0689  0.0498
 1312ERGO    R317904   9.966  15.587   7.101 -0.0262  0.0387  0.0401
 1312ERGO    R417905  10.008  15.357   7.278 -0.0622  0.0751  0.0995
 1312ERGO    R517906   9.818  15.453   7.234 -0.0375  0.1430  0.1356
 1312ERGO    C117907   9.827  15.496   7.613  0.1153  0.2601  0.1192
 1312ERGO    C217908   9.796  15.270   7.942 -0.0560  0.0036  0.0520
 1313ERGO   ROH17909  15.541   5.494   6.403  0.0227 -0.0206 -0.1127
 1313ERGO    R117910  15.635   5.542   6.666  0.0050 -0.0231 -0.1055
 1313ERGO    R217911  15.649   5.795   6.775  0.0898 -0.0119 -0.1366
 1313ERGO    R317912  15.501   5.683   6.974  0.0161  0.0709 -0.1441
 1313ERGO    R417913  15.636   5.909   7.101  0.1590 -0.0276 -0.1285
 1313ERGO    R517914  15.639   5.702   7.168  0.0248 -0.0316 -0.1422
 1313ERGO    C117915  15.491   5.869   7.478  0.1300  0.0411 -0.1309
 1313ERGO    C217916  15.412   5.808   7.858  0.0846  0.0094  0.0927
 1314ERGO   ROH17917   1.392   0.441   6.546 -0.1427 -0.0252 -0.2139
 1314ERGO    R117918   1.483   0.599   6.763  0.0281 -0.0238 -0.2848
 1314ERGO    R217919   1.397   0.857   6.806  0.0065 -0.0472 -0.1776
 1314ERGO    R317920   1.335   0.761   7.053  0.2644 -0.0868 -0.1260
 1314ERGO    R417921   1.349   1.051   7.088  0.0438 -0.0724 -0.1541
 1314ERGO    R517922   1.456   0.901   7.204  0.2546  0.0244 -0.2214
 1314ERGO    C117923   1.263   1.074   7.484  0.3077 -0.1242 -0.0921
 1314ERGO    C217924   1.296   1.204   7.846 -0.1942  0.2801 -0.3212
 1315ERGO   ROH17925   6.110  14.691   7.017  0.0194 -0.1754 -0.1048
 1315ERGO    R117926   6.205  14.587   7.262  0.1023 -0.0004 -0.0619
 1315ERGO    R217927   6.255  14.748   7.482 -0.1224  0.1182 -0.0936
 1315ERGO    R317928   6.088  14.573   7.607  0.0602 -0.0493 -0.0784
 1315ERGO    R417929   6.232  14.707   7.824 -0.1025  0.1425 -0.0892
 1315ERGO    R517930   6.215  14.492   7.793  0.1372  0.1178 -0.0573
 1315ERGO    C117931   6.061  14.519   8.141  0.0806 -0.0007 -0.0724
 1315ERGO    C217932   6.024  14.679   8.458 -0.1218 -0.2138  0.0647
 1316ERGO   ROH17933   1.003   7.277   6.520 -0.1717 -0.1278  0.0513
 1316ERGO    R117934   0.959   7.094   6.732 -0.1812 -0.0948  0.0779
 1316ERGO    R217935   1.161   6.934   6.833 -0.1992 -0.1224  0.0715
 1316ERGO    R317936   1.086   7.046   7.069 -0.1484 -0.0795  0.0675
 1316ERGO    R417937   1.203   6.788   7.144 -0.0710 -0.0326  0.0968
 1316ERGO    R517938   1.007   6.862   7.201 -0.0677 -0.0616  0.1401
 1316ERGO    C117939   1.158   6.809   7.547  0.0512  0.0598  0.1077
 1316ERGO    C217940   1.154   6.694   7.925 -0.0898  0.1208 -0.2200
 1317ERGO   ROH17941   5.822   8.614   6.288  0.0902 -0.3362 -0.0453
 1317ERGO    R117942   5.866   8.718   6.547 -0.1453 -0.0032 -0.1312
 1317ERGO    R217943   5.659   8.775   6.721 -0.2906 -0.2421 -0.2152
 1317ERGO    R317944   5.798   8.613   6.889  0.0126  0.1767 -0.0435
 1317ERGO    R417945   5.601   8.747   7.061 -0.4688 -0.2490 -0.2458
 1317ERGO    R517946   5.817   8.739   7.092 -0.4602  0.3179 -0.0784
 1317ERGO    C117947   5.697   8.578   7.416 -0.2880  0.1400 -0.1025
 1317ERGO    C217948   5.548   8.467   7.753 -0.0671 -0.2979 -0.1742
 1318ERGO   ROH17949  11.321  12.817   6.764 -0.2877  0.0464  0.0590
 1318ERGO    R117950  11.490  12.757   6.982 -0.1128  0.0676 -0.0685
 1318ERGO    R217951  11.425  12.820   7.243  0.0852  0.0749 -0.0196
 1318ERGO    R317952  11.469  12.555   7.285  0.1358  0.0798 -0.0410
 1318ERGO    R417953  11.480  12.676   7.552  0.1443  0.0665 -0.0340
 1318ERGO    R517954  11.632  12.549   7.460  0.1567  0.0980 -0.0590
 1318ERGO    C117955  11.554  12.343   7.771  0.2262  0.0661 -0.0625
 1318ERGO    C217956  11.632  12.253   8.059 -0.1770  0.0281  0.1240
 1319ERGO   ROH17957   5.712   4.842   6.270  0.1026  0.1215  0.1161
 1319ERGO    R117958   5.598   4.908   6.521  0.0449 -0.0472  0.1343
 1319ERGO    R217959   5.495   4.717   6.692  0.2541 -0.1888  0.0992
 1319ERGO    R317960   5.666   4.831   6.870  0.1411 -0.0442  0.1178
 1319ERGO    R417961   5.453   4.715   7.035  0.1977 -0.2012  0.0930
 1319ERGO    R517962   5.523   4.921   7.040  0.0398 -0.1420  0.0899
 1319ERGO    C117963   5.588   4.821   7.402  0.0588 -0.0727  0.1069
 1319ERGO    C217964   5.653   4.575   7.716  0.1823 -0.1549 -0.0326
 1320ERGO   ROH17965  14.419  12.516   6.413 -0.0684 -0.2384 -0.0095
 1320ERGO    R117966  14.357  12.412   6.669  0.0237 -0.1339  0.0561
 1320ERGO    R217967  14.537  12.265   6.817  0.0685 -0.0951  0.0394
 1320ERGO    R317968  14.483  12.451   7.008  0.1647 -0.0160 -0.0087
 1320ERGO    R417969  14.565  12.212   7.158  0.0072 -0.0289  0.0552
 1320ERGO    R517970  14.381  12.326   7.185  0.0738  0.0889  0.0133
 1320ERGO    C117971  14.530  12.356   7.535  0.0620  0.0839  0.0193
 1320ERGO    C217972  14.748  12.244   7.819  0.1156  0.2511 -0.1944
 1321ERGO   ROH17973  12.871  13.584   6.581  0.0341  0.3183  0.0102
 1321ERGO    R117974  12.764  13.613   6.841  0.0152  0.1887  0.0176
 1321ERGO    R217975  12.782  13.414   7.032  0.1109  0.1411 -0.0403
 1321ERGO    R317976  12.893  13.612   7.181  0.0100  0.1529  0.0197
 1321ERGO    R417977  12.821  13.405   7.375  0.1664  0.0286 -0.0494
 1321ERGO    R517978  12.764  13.615   7.383  0.0361 -0.0076  0.0409
 1321ERGO    C117979  12.948  13.585   7.715  0.1040 -0.0259  0.0015
 1321ERGO    C217980  13.092  13.354   8.027 -0.1726  0.0534 -0.0672
 1322ERGO   ROH17981   6.259   3.692   6.686 -0.3985  0.0489  0.2654
 1322ERGO    R117982   6.226   3.550   6.929 -0.1443 -0.0707  0.2327
 1322ERGO    R217983   6.397   3.347   7.006  0.0732  0.0418  0.0643
 1322ERGO    R317984   6.420   3.496   7.232  0.0710 -0.0203  0.1054
 1322ERGO    R417985   6.389   3.221   7.328 -0.1715 -0.0164  0.0372
 1322ERGO    R517986   6.270   3.393   7.387 -0.0771  0.0563  0.0131
 1322ERGO    C117987   6.406   3.288   7.727 -0.3161 -0.1086  0.0601
 1322ERGO    C217988   6.308   3.302   8.076  0.2163  0.1063 -0.0636
 1323ERGO   ROH17989  15.521   7.407   6.757  0.2450 -0.0184 -0.1859
 1323ERGO    R117990  15.473   7.484   7.025  0.1538 -0.0147 -0.2036
 1323ERGO    R217991  15.378   7.308   7.216  0.1130 -0.0175 -0.2288
 1323ERGO    R317992  15.598   7.390   7.354  0.0614  0.0096 -0.1610
 1323ERGO    R417993  15.419   7.279   7.558  0.0598 -0.1185 -0.2301
 1323ERGO    R517994  15.510   7.477   7.559 -0.0055 -0.0875 -0.1470
 1323ERGO    C117995  15.649   7.339   7.886 -0.0196 -0.1519 -0.1670
 1323ERGO    C217996  15.660   7.250   8.153 -0.1694 -0.0356 -0.4728
 1324ERGO   ROH17997  13.626   8.434   6.225 -0.2235 -0.0187 -0.0951
 1324ERGO    R117998  13.513   8.558   6.452 -0.3637 -0.0402 -0.1517
 1324ERGO    R217999  13.266   8.485   6.554 -0.2374 -0.3541 -0.0492
 1324ERGO    R318000  13.407   8.455   6.785 -0.1301  0.0104 -0.0606
 1324ERGO    R418001  13.134   8.519   6.872 -0.1537 -0.1458 -0.0351
 1324ERGO    R518002  13.317   8.621   6.932 -0.2260  0.0810 -0.2014
 1324ERGO    C118003  13.189   8.509   7.273 -0.0042  0.3177 -0.0377
 1324ERGO    C218004  13.077   8.602   7.588 -0.0404 -0.3191  0.2574
 1325ERGO   ROH18005  13.680  17.660   6.333  0.0608 -0.0632  0.0695
 1325ERGO    R118006  13.623  17.627   6.608 -0.0254  0.2299  0.0900
 1325ERGO    R218007  13.724  17.417   6.757 -0.5785  0.0200  0.1903
 1325ERGO    R318008  13.812  17.617   6.919 -0.0306 -0.1217  0.0870
 1325ERGO    R418009  13.783  17.385   7.096 -0.6448  0.0183  0.2020
 1325ERGO    R518010  13.695  17.582   7.125 -0.1240  0.2846  0.1132
 1325ERGO    C118011  13.901  17.554   7.445 -0.1690 -0.1160  0.1119
 1325ERGO    C218012  13.857  17.565   7.732  0.2415 -0.0932 -0.0246
 1326ERGO   ROH18013  12.093   7.792   6.643  0.2214 -0.1068  0.0877
 1326ERGO    R118014  12.084   7.946   6.881 -0.0567 -0.0009  0.0122
 1326ERGO    R218015  11.846   8.010   7.007 -0.1865 -0.3263 -0.0580
 1326ERGO    R318016  11.968   7.897   7.222 -0.0224 -0.0290  0.0226
 1326ERGO    R418017  11.731   8.030   7.332 -0.3639 -0.4886 -0.1077
 1326ERGO    R518018  11.937   8.056   7.398 -0.4268 -0.0373 -0.0253
 1326ERGO    C118019  11.778   7.936   7.724 -0.3132 -0.3040 -0.0611
 1326ERGO    C218020  11.481   7.804   7.985 -0.2865  0.2518  0.2476
 1327ERGO   ROH18021  14.350   4.439   6.208 -0.0608 -0.0682 -0.0718
 1327ERGO    R118022  14.335   4.470   6.489 -0.1950  0.0417 -0.0906
 1327ERGO    R218023  14.139   4.348   6.642 -0.0365 -0.2193 -0.0938
 1327ERGO    R318024  14.352   4.252   6.781  0.0905  0.2063  0.0204
 1327ERGO    R418025  14.133   4.262   6.976 -0.0981 -0.3706 -0.1328
 1327ERGO    R518026  14.331   4.352   6.998 -0.3047  0.0790  0.0514
 1327ERGO    C118027  14.330   4.122   7.302 -0.0147 -0.0593 -0.0482
 1327ERGO    C218028  14.198   4.057   7.531  0.0489 -0.3419  0.0086
 1328ERGO   ROH18029   5.407   9.655   6.295 -0.0807  0.1482  0.0478
 1328ERGO    R118030   5.287   9.526   6.517 -0.0199  0.0597  0.0295
 1328ERGO    R218031   5.434   9.391   6.708  0.0523  0.1781  0.0581
 1328ERGO    R318032   5.301   9.556   6.879 -0.1063  0.0800  0.0313
 1328ERGO    R418033   5.425   9.353   7.052 -0.1425  0.0684  0.0423
 1328ERGO    R518034   5.214   9.409   7.047 -0.1589 -0.0016 -0.0665
 1328ERGO    C118035   5.294   9.485   7.412 -0.4047 -0.0877  0.0080
 1328ERGO    C218036   5.115   9.237   7.720  0.0174  0.1281  0.0799
 1329ERGO   ROH18037   6.000   2.332   6.745 -0.0332  0.0191  0.0843
 1329ERGO    R118038   5.966   2.216   7.001 -0.0792 -0.0039  0.0671
 1329ERGO    R218039   6.174   2.186   7.180 -0.0834 -0.1543  0.0424
 1329ERGO    R318040   6.008   2.322   7.347  0.0098 -0.0876  0.0835
 1329ERGO    R418041   6.172   2.157   7.525  0.0100 -0.1406  0.0450
 1329ERGO    R518042   5.954   2.164   7.519  0.0062 -0.0659  0.1066
 1329ERGO    C118043   6.014   2.267   7.881  0.1518 -0.0700  0.0851
 1329ERGO    C218044   6.089   2.360   8.147 -0.0230  0.1852  0.2188
 1330ERGO   ROH18045   9.246  11.206   6.537 -0.0022  0.0608 -0.0477
 1330ERGO    R118046   9.401  11.073   6.733  0.0492  0.0576 -0.0908
 1330ERGO    R218047   9.462  11.187   6.977  0.1176  0.0548 -0.1100
 1330ERGO    R318048   9.353  10.959   7.075  0.1430  0.0563 -0.0767
 1330ERGO    R418049   9.578  11.017   7.254 -0.0139  0.2552  0.0715
 1330ERGO    R518050   9.541  10.830   7.149  0.1514  0.1794  0.1361
 1330ERGO    C118051   9.542  10.703   7.509 -0.0666  0.3734  0.2083
 1330ERGO    C218052   9.563  10.629   7.856 -0.0271 -0.0122 -0.1443
 1331ERGO   ROH18053   8.318  16.071   6.757 -0.1498 -0.2329  0.0301
 1331ERGO    R118054   8.154  16.062   6.988 -0.0427  0.0059  0.1181
 1331ERGO    R218055   8.086  15.825   7.112 -0.3926  0.0948  0.0992
 1331ERGO    R318056   8.189  15.948   7.332 -0.0525 -0.1316  0.0753
 1331ERGO    R418057   8.046  15.714   7.437 -0.4628  0.1086  0.0958
 1331ERGO    R518058   8.019  15.921   7.500 -0.0391  0.1623  0.1458
 1331ERGO    C118059   8.120  15.764   7.833 -0.1844 -0.0959  0.0714
 1331ERGO    C218060   8.306  15.720   8.170 -0.1045 -0.0322 -0.0705
 1332ERGO   ROH18061   3.979   9.261   6.104  0.1352  0.0498  0.0649
 1332ERGO    R118062   4.074   9.152   6.347  0.2423  0.1207  0.0562
 1332ERGO    R218063   4.279   9.268   6.492  0.0389  0.3919  0.1414
 1332ERGO    R318064   4.097   9.259   6.694 -0.0055  0.0600  0.0924
 1332ERGO    R418065   4.356   9.284   6.829 -0.0673  0.2156  0.1750
 1332ERGO    R518066   4.205   9.132   6.866  0.0738  0.0374  0.0235
 1332ERGO    C118067   4.230   9.285   7.214 -0.1710 -0.1987  0.1487
 1332ERGO    C218068   4.307   9.299   7.528 -0.1272  0.0520  0.2762
 1333ERGO   ROH18069  17.107   7.754   6.570  0.0425  0.1412  0.1462
 1333ERGO    R118070  16.925   7.851   6.764 -0.0211  0.1043  0.1056
 1333ERGO    R218071  16.690   7.719   6.827 -0.0350  0.0825  0.0168
 1333ERGO    R318072  16.789   7.734   7.080 -0.1098  0.0513  0.0478
 1333ERGO    R418073  16.501   7.692   7.115 -0.0990 -0.0812 -0.0394
 1333ERGO    R518074  16.620   7.852   7.203 -0.1914 -0.0565  0.0385
 1333ERGO    C118075  16.483   7.691   7.520 -0.2067 -0.2057 -0.0430
 1333ERGO    C218076  16.583   7.595   7.856  0.3411 -0.0322  0.1918
 1334ERGO   ROH18077   4.360   0.394   6.782  0.0870  0.1399  0.0158
 1334ERGO    R118078   4.264   0.362   7.046  0.0216 -0.0207 -0.0263
 1334ERGO    R218079   4.155   0.125   7.138  0.2097 -0.1468 -0.1303
 1334ERGO    R318080   4.343   0.152   7.333  0.1153 -0.0254 -0.0539
 1334ERGO    R418081   4.110   0.036   7.469  0.1076 -0.1263 -0.1381
 1334ERGO    R518082   4.218   0.216   7.527 -0.0054 -0.0602 -0.1153
 1334ERGO    C118083   4.260   0.009   7.844 -0.0405 -0.0002 -0.0708
 1334ERGO    C218084   4.183  -0.036   8.161 -0.2690  0.1556 -0.3581
 1335ERGO   ROH18085   5.748  13.872   6.925  0.4144 -0.3862  0.0269
 1335ERGO    R118086   5.680  13.896   7.199  0.2896 -0.0700 -0.0261
 1335ERGO    R218087   5.618  13.677   7.357 -0.0888  0.1341  0.1279
 1335ERGO    R318088   5.815  13.777   7.515 -0.0408  0.0089  0.1474
 1335ERGO    R418089   5.657  13.606   7.693 -0.1559  0.1084  0.1301
 1335ERGO    R518090   5.708  13.815   7.726 -0.0302  0.0721  0.1380
 1335ERGO    C118091   5.864  13.658   8.037 -0.1498 -0.0242  0.1496
 1335ERGO    C218092   5.962  13.772   8.338  0.1697  0.0725  0.1412
 1336ERGO   ROH18093  10.568  12.102   6.628  0.0453 -0.2757 -0.1420
 1336ERGO    R118094  10.566  11.888   6.813 -0.1173 -0.1445  0.0081
 1336ERGO    R218095  10.733  11.879   7.032 -0.0565 -0.1623 -0.0499
 1336ERGO    R318096  10.501  11.846   7.169 -0.0451  0.1677  0.0630
 1336ERGO    R418097  10.711  11.786   7.364 -0.0196 -0.2576 -0.0716
 1336ERGO    R518098  10.542  11.658   7.312 -0.2681  0.0337 -0.0344
 1336ERGO    C118099  10.480  11.701   7.686  0.0125 -0.0033  0.0218
 1336ERGO    C218100  10.669  11.703   8.114  0.1437 -0.0933  0.0498
 1337ERGO   ROH18101   6.927   6.156   6.098 -0.0318  0.1277  0.0261
 1337ERGO    R118102   7.036   6.104   6.354 -0.0520  0.0629  0.0211
 1337ERGO    R218103   7.170   6.296   6.501 -0.0208  0.0101  0.0570
 1337ERGO    R318104   6.989   6.230   6.692 -0.0390  0.0138  0.0421
 1337ERGO    R418105   7.199   6.376   6.836 -0.0946  0.1025  0.0423
 1337ERGO    R518106   7.123   6.178   6.884 -0.0561  0.0934  0.0785
 1337ERGO    C118107   7.047   6.360   7.211 -0.1545  0.1598  0.0198
 1337ERGO    C218108   7.010   6.317   7.602 -0.1762  0.0098  0.0882
 1338ERGO   ROH18109  15.011  17.209   6.220  0.2201  0.2022  0.0833
 1338ERGO    R118110  15.128  17.265   6.472  0.1126  0.1672  0.1418
 1338ERGO    R218111  14.980  17.346   6.690 -0.0031 -0.0376  0.1387
 1338ERGO    R318112  15.102  17.135   6.811  0.1105 -0.0084  0.0767
 1338ERGO    R418113  15.101  17.347   7.014  0.1929  0.0146  0.0663
 1338ERGO    R518114  15.275  17.234   6.944  0.1754  0.0396 -0.0355
 1338ERGO    C118115  15.286  17.149   7.315  0.4136  0.0725 -0.0342
 1338ERGO    C218116  15.195  17.114   7.662  0.2618 -0.2549 -0.0306
 1339ERGO   ROH18117  10.692   9.527   6.291  0.1590 -0.0218 -0.0559
 1339ERGO    R118118  10.799   9.524   6.553  0.1681 -0.0564 -0.0600
 1339ERGO    R218119  10.743   9.721   6.739  0.2375 -0.0395 -0.0574
 1339ERGO    R318120  10.667   9.510   6.892  0.1766 -0.0157 -0.0547
 1339ERGO    R418121  10.638   9.745   7.067  0.5472 -0.0348  0.0449
 1339ERGO    R518122  10.751   9.563   7.111  0.4202 -0.1554 -0.1097
 1339ERGO    C118123  10.505   9.560   7.402  0.6704 -0.0098  0.1070
 1339ERGO    C218124  10.354   9.614   7.711 -0.1167  0.1535 -0.0686
 1340ERGO   ROH18125  12.490  16.730   5.912 -0.1547 -0.0221  0.2013
 1340ERGO    R118126  12.586  16.736   6.178 -0.1564 -0.2006  0.2078
 1340ERGO    R218127  12.598  16.969   6.326  0.3001 -0.2040  0.1999
 1340ERGO    R318128  12.452  16.824   6.505 -0.0104  0.0865  0.1912
 1340ERGO    R418129  12.614  17.005   6.670  0.3193 -0.2267  0.2013
 1340ERGO    R518130  12.602  16.788   6.688 -0.1085 -0.2029  0.2128
 1340ERGO    C118131  12.487  16.891   7.037  0.0393  0.0327  0.1939
 1340ERGO    C218132  12.422  16.950   7.373 -0.3976  0.0441 -0.3768
 1341ERGO   ROH18133   6.207  15.158   7.023  0.0555 -0.0802 -0.1485
 1341ERGO    R118134   6.292  15.140   7.293  0.1787 -0.0241 -0.1821
 1341ERGO    R218135   6.517  15.270   7.387  0.0678  0.2237 -0.2463
 1341ERGO    R318136   6.342  15.370   7.570  0.0166 -0.0056 -0.1681
 1341ERGO    R418137   6.599  15.361   7.711  0.0706  0.2372 -0.2514
 1341ERGO    R518138   6.411  15.273   7.778  0.1851  0.0202 -0.2122
 1341ERGO    C118139   6.482  15.508   8.070  0.0242  0.0296 -0.1811
 1341ERGO    C218140   6.560  15.706   8.332  0.0272  0.1089 -0.1653
 1342ERGO   ROH18141  10.662   2.073   6.106  0.3155 -0.1686 -0.0104
 1342ERGO    R118142  10.592   1.985   6.366  0.2109 -0.1511 -0.0303
 1342ERGO    R218143  10.755   1.819   6.516  0.2348 -0.0077  0.1208
 1342ERGO    R318144  10.729   2.016   6.701 -0.0172  0.0300  0.0457
 1342ERGO    R418145  10.797   1.778   6.856  0.2419  0.1795  0.1421
 1342ERGO    R518146  10.627   1.908   6.889  0.0900 -0.0118  0.0724
 1342ERGO    C118147  10.797   1.938   7.229  0.0097  0.3239  0.0840
 1342ERGO    C218148  10.656   1.881   7.621 -0.0656 -0.2899  0.2118
 1343ERGO   ROH18149   6.220   4.860   6.468 -0.0090 -0.0979  0.0210
 1343ERGO    R118150   6.070   4.844   6.708 -0.0015 -0.0302  0.0303
 1343ERGO    R218151   6.075   4.621   6.872 -0.0282  0.0001  0.0719
 1343ERGO    R318152   6.142   4.803   7.062  0.0068  0.0259  0.0352
 1343ERGO    R418153   6.078   4.559   7.212 -0.1146  0.0901  0.0896
 1343ERGO    R518154   5.993   4.757   7.244 -0.0446  0.1321  0.0206
 1343ERGO    C118155   6.143   4.694   7.589 -0.1319  0.1666  0.0655
 1343ERGO    C218156   6.072   4.813   7.937 -0.1176  0.0278 -0.2881
 1344ERGO   ROH18157  15.865  10.465   5.991  0.1710 -0.1402 -0.0463
 1344ERGO    R118158  15.860  10.432   6.272 -0.0009 -0.0450 -0.0371
 1344ERGO    R218159  16.071  10.507   6.435 -0.0436 -0.1181  0.0506
 1344ERGO    R318160  15.878  10.649   6.564 -0.0294  0.0406 -0.0979
 1344ERGO    R418161  16.020  10.506   6.777 -0.0900  0.1903  0.0481
 1344ERGO    R518162  15.805  10.504   6.740 -0.0868  0.2080  0.0203
 1344ERGO    C118163  15.809  10.638   7.097 -0.1038  0.5189 -0.0927
 1344ERGO    C218164  15.828  10.601   7.451  0.1642 -0.3724  0.1636
 1345ERGO   ROH18165   2.497   8.883   6.153  0.0282 -0.0415 -0.0345
 1345ERGO    R118166   2.643   8.981   6.376  0.0753 -0.1224 -0.0294
 1345ERGO    R218167   2.529   9.012   6.626  0.0673 -0.0230 -0.0459
 1345ERGO    R318168   2.738   8.856   6.704 -0.0422 -0.1646 -0.0084
 1345ERGO    R418169   2.662   9.005   6.945  0.1822  0.1048 -0.0901
 1345ERGO    R518170   2.861   8.994   6.856  0.1480 -0.1515 -0.1636
 1345ERGO    C118171   2.936   8.855   7.204  0.1464  0.0461 -0.0805
 1345ERGO    C218172   2.993   8.726   7.525 -0.1106 -0.2679 -0.3141
 1346ERGO   ROH18173   4.467  14.772   6.755  0.2964 -0.0225  0.0939
 1346ERGO    R118174   4.433  14.703   7.028  0.0002 -0.1549  0.0275
 1346ERGO    R218175   4.540  14.853   7.234  0.0773 -0.4422  0.2037
 1346ERGO    R318176   4.283  14.855   7.322  0.0093 -0.1262  0.0161
 1346ERGO    R418177   4.443  14.907   7.561 -0.0955 -0.5093  0.1654
 1346ERGO    R518178   4.293  14.752   7.537 -0.3044 -0.2769 -0.0404
 1346ERGO    C118179   4.146  14.940   7.834 -0.2599 -0.2516 -0.0329
 1346ERGO    C218180   3.894  14.931   8.046  0.0081  0.0315  0.1847
 1347ERGO   ROH18181   6.325  12.968   6.652  0.1986 -0.0807  0.0532
 1347ERGO    R118182   6.221  12.887   6.902  0.1375 -0.1050  0.0193
 1347ERGO    R218183   6.378  12.776   7.100  0.1089 -0.0188  0.0875
 1347ERGO    R318184   6.272  12.975   7.251 -0.0370 -0.0536  0.0334
 1347ERGO    R418185   6.417  12.806   7.442  0.1428  0.1348  0.0713
 1347ERGO    R518186   6.208  12.867   7.455  0.0894 -0.0385  0.0836
 1347ERGO    C118187   6.339  13.011   7.783  0.0256  0.1914  0.0112
 1347ERGO    C218188   6.333  12.933   8.107  0.1669 -0.1923 -0.1706
 1348ERGO   ROH18189  13.467  10.899   6.232 -0.2444 -0.0305 -0.1136
 1348ERGO    R118190  13.411  10.698   6.423 -0.0192 -0.1503 -0.1693
 1348ERGO    R218191  13.606  10.535   6.529  0.1958  0.1469 -0.0935
 1348ERGO    R318192  13.508  10.625   6.766 -0.0714 -0.0384 -0.1303
 1348ERGO    R418193  13.516  10.333   6.795  0.3961 -0.0345 -0.1603
 1348ERGO    R518194  13.343  10.462   6.827  0.1629 -0.3205 -0.2288
 1348ERGO    C118195  13.370  10.300   7.172  0.2620 -0.3143 -0.2337
 1348ERGO    C218196  13.264  10.017   7.491 -0.0800 -0.1065 -0.0515
 1349W        W18197   1.962  12.136   5.184 -0.1012 -0.0139 -0.0917
 1350W        W18198  15.934  16.729  14.649  0.2523 -0.0220  0.1506
 1351W        W18199   9.971   5.424   4.339  0.1930  0.0489  0.0969
 1352W        W18200   8.535  15.348   1.663 -0.0642  0.0342 -0.2805
 1353W        W18201   0.832   4.995   1.160 -0.1141  0.1346  0.2651
 1354W        W18202  11.296   4.691   0.847  0.2905  0.0173 -0.1249
 1355W        W18203   7.616  11.991  14.939  0.1725 -0.1409 -0.2559
 1356W        W18204  11.138   1.726   1.907 -0.3623  0.2349  0.1982
 1357W        W18205   9.650   5.782  13.927 -0.4771  0.1731 -0.1294
 1358W        W18206   5.752   2.871   3.250 -0.1089 -0.0848 -0.2069
 1359W        W18207   5.068  15.051   5.294 -0.2740 -0.4088  0.3040
 1360W        W18208  12.985   2.663  14.240 -0.0757  0.2564 -0.0242
 1361W        W18209   8.326   5.678   3.986 -0.0628  0.1276 -0.0985
 1362W        W18210  10.488   2.540   2.430  0.1235  0.1089  0.0131
 1363W        W18211   9.685   4.332   5.239  0.0242 -0.1261 -0.0937
 1364W        W18212  17.044   9.903  13.326  0.1011  0.3377  0.1004
 1365W        W18213   6.711   5.492   3.219  0.0829 -0.2093 -0.1752
 1366W        W18214   9.200  16.443   3.111  0.0026  0.0116  0.0065
 1367W        W18215   9.886   8.420  12.915  0.0567  0.1371 -0.2829
 1368W        W18216  15.520  15.581   1.366  0.0215  0.1463  0.2251
 1369W        W18217  17.438   6.744   1.182  0.1862 -0.0891 -0.0481
 1370W        W18218  12.159   9.324   4.208 -0.3796  0.0462 -0.1744
 1371W        W18219  15.641  12.369  12.626 -0.0017  0.3757 -0.3041
 1372W        W18220   3.929   2.615   1.586  0.1334  0.0357  0.0698
 1373W        W18221   6.953   4.237  13.066  0.0076 -0.0962 -0.1220
 1374W        W18222   4.707   1.797  12.117  0.3650  0.0937  0.0878
 1375W        W18223  11.979   8.252  13.465 -0.0574  0.1752  0.1797
 1376W        W18224   0.923   3.693  13.829 -0.0732  0.1550  0.0926
 1377W        W18225  12.350  13.337   1.254  0.0145 -0.0785  0.0709
 1378W        W18226   1.427  13.928   5.004  0.2060  0.0468  0.3325
 1379W        W18227   6.907   0.140   2.387  0.2982  0.4188 -0.0915
 1380W        W18228  13.712  12.485   1.964 -0.2274  0.0934  0.0942
 1381W        W18229  11.754  16.161   3.889 -0.1101 -0.2126  0.2292
 1382W        W18230   2.505   6.142  16.292  0.0664 -0.1624  0.2130
 1383W        W18231  17.346   7.222  11.717 -0.1994 -0.0573 -0.0598
 1384W        W18232   1.679   0.552  12.283 -0.3159 -0.0524 -0.1346
 1385W        W18233   1.643   1.600   4.867 -0.1745 -0.2626  0.3145
 1386W        W18234   9.916  15.752   5.068  0.2170 -0.3674  0.4076
 1387W        W18235   4.323   5.339  15.617 -0.2382 -0.4956  0.1442
 1388W        W18236  13.945   6.446  16.610 -0.0523  0.3430  0.2405
 1389W        W18237   0.577   5.221  15.291  0.1640 -0.6545  0.0858
 1390W        W18238  13.549  10.842  10.758 -0.0028 -0.2802  0.0386
 1391W        W18239   8.308  14.718  14.391 -0.0057  0.0917  0.2005
 1392W        W18240   1.933   4.703  16.310  0.0280  0.0421 -0.1622
 1393W        W18241   1.709   1.187  15.280  0.2245 -0.1669 -0.0993
 1394W        W18242   8.666   6.311   0.751  0.0244 -0.0020 -0.0219
 1395W        W18243   3.503  15.335  14.580  0.3068  0.0391 -0.1081
 1396W        W18244  11.670   2.023   2.611 -0.2709  0.0821  0.1231
 1397W        W18245   4.690   4.528   5.154  0.0705 -0.1953  0.0785
 1398W        W18246  14.362   9.446   2.957 -0.0547 -0.1876  0.1389
 1399W        W18247   9.841   9.425   2.461  0.1778  0.0901 -0.0837
 1400W        W18248  10.724   0.931   3.509 -0.1924 -0.0094 -0.1373
 1401W        W18249   8.488   7.985   4.193  0.1447 -0.1956  0.1280
 1402W        W18250   2.973   3.106   3.008  0.4064 -0.1146  0.3282
 1403W        W18251   5.732  13.583   4.812 -0.0524 -0.3296  0.0838
 1404W        W18252   2.155   0.093  13.708 -0.2568  0.0375  0.2081
 1405W        W18253   0.400  11.721   0.121 -0.0720  0.0079 -0.0835
 1406W        W18254   0.893   6.924   1.521  0.1005  0.2426 -0.1737
 1407W        W18255  14.511   2.472  16.377  0.0128  0.0829 -0.0548
 1408W        W18256   9.908  17.613   0.532 -0.4021 -0.0515 -0.2471
 1409W        W18257   7.668   6.657   4.687 -0.0003 -0.5095  0.2023
 1410W        W18258   1.124  13.577  13.547 -0.0118 -0.0418  0.1060
 1411W        W18259  17.267   5.671   0.233  0.0819 -0.1172  0.0210
 1412W        W18260   1.477   6.788   3.625  0.0748 -0.2086  0.0395
 1413W        W18261  16.467  15.470   5.936 -0.0586  0.2919 -0.0050
 1414W        W18262   7.575  14.885   0.487 -0.3587  0.4782  0.0289
 1415W        W18263  15.881   4.666   0.459  0.2004 -0.2640  0.3170
 1416W        W18264   8.498   2.218   4.256  0.0492  0.0389 -0.1984
 1417W        W18265   1.226  12.741  12.314  0.0619  0.1683  0.1879
 1418W        W18266  13.642  16.501   0.368 -0.0428  0.2367  0.2129
 1419W        W18267   4.277   2.356   0.001  0.0858 -0.0461 -0.0899
 1420W        W18268   9.334  15.769   1.755 -0.2749 -0.1628 -0.1957
 1421W        W18269   1.575  10.889  16.282 -0.4631 -0.2428  0.1865
 1422W        W18270   5.191  12.184  11.888  0.0299  0.0881 -0.0290
 1423W        W18271   1.093  14.308   6.118  0.2106 -0.1977  0.1959
 1424W        W18272   5.598  15.319  11.957 -0.1330 -0.2525 -0.0753
 1425W        W18273  14.586  14.173  16.501  0.1990  0.3246 -0.1344
 1426W        W18274   8.670   1.228   1.863 -0.3857  0.0731 -0.4427
 1427W        W18275   0.350   4.846  12.745 -0.0385  0.0331 -0.0517
 1428W        W18276   8.148   1.235  15.048  0.0764 -0.1386 -0.0557
 1429W        W18277   0.649   2.504   2.737  0.0493  0.0829  0.1765
 1430W        W18278   5.542  10.323  11.608  0.0262 -0.1839  0.1216
 1431W        W18279   9.650  17.399   2.949 -0.0010 -0.1812 -0.0459
 1432W        W18280  10.047   3.694  11.586 -0.0247 -0.3154 -0.0318
 1433W        W18281   8.463  14.786   1.224  0.0531  0.0573  0.0877
 1434W        W18282  13.340   6.445  15.802  0.0757 -0.0528  0.3045
 1435W        W18283  14.531  16.329   0.603 -0.0121  0.0608 -0.2074
 1436W        W18284  11.149   7.710  15.753 -0.2368 -0.2266  0.2298
 1437W        W18285   3.821   8.303  15.194  0.0474 -0.0949 -0.0936
 1438W        W18286   7.171   1.388   0.144 -0.3174  0.0680 -0.0206
 1439W        W18287   5.466   6.998  13.689  0.0935 -0.0297  0.0546
 1440W        W18288  16.881   5.264  15.711  0.1612 -0.0177  0.0788
 1441W        W18289  13.016   9.244   0.188  0.1528  0.2000  0.1711
 1442W        W18290  14.498  10.075  16.310 -0.1976  0.0010  0.2538
 1443W        W18291   7.312   1.301  12.788  0.1935  0.0059  0.1760
 1444W        W18292   2.277  12.851  15.644  0.1760  0.1969  0.2533
 1445W        W18293   0.155   3.415   5.515  0.1639 -0.0883 -0.0035
 1446W        W18294   8.102  12.661  15.937  0.0112  0.1085  0.0193
 1447W        W18295  13.253  11.484   0.276 -0.0658 -0.1093  0.0170
 1448W        W18296  12.527   2.670   4.266 -0.1599  0.1950  0.0579
 1449W        W18297  15.445   4.084  13.825 -0.1013  0.2100 -0.0642
 1450W        W18298   7.965  17.405  12.900  0.0362 -0.0399  0.1893
 1451W        W18299  13.897   3.286  16.551 -0.0400 -0.1962 -0.0176
 1452W        W18300   8.555   4.574  11.486  0.3169  0.0579 -0.3585
 1453W        W18301  11.005  14.506  15.049  0.2273  0.0661 -0.0022
 1454W        W18302   8.487  12.854   4.592  0.3059  0.1251 -0.2275
 1455W        W18303   4.281  11.460  11.629  0.1858 -0.1212 -0.0287
 1456W        W18304   0.042  16.197  12.194 -0.0945  0.3616 -0.0259
 1457W        W18305   2.165  12.027   2.993 -0.1991 -0.1389 -0.2219
 1458W        W18306  11.984  13.403  15.144 -0.1102 -0.2549 -0.0583
 1459W        W18307   3.610   9.462   2.232 -0.2118 -0.2426  0.0370
 1460W        W18308   6.794   7.315   0.513  0.0848  0.0528  0.0007
 1461W        W18309   9.442  12.392   4.757  0.2530  0.1088  0.1677
 1462W        W18310   8.545   4.534  13.650  0.2620  0.1968 -0.1756
 1463W        W18311   7.083  14.581   0.965 -0.3709 -0.0430  0.3053
 1464W        W18312   9.135   5.209   2.925 -0.0006  0.0462  0.0268
 1465W        W18313   9.813   8.854  13.720  0.1117  0.1370  0.0050
 1466W        W18314  10.539   0.813   2.159  0.0573  0.0579  0.0477
 1467W        W18315  12.814   7.734   2.904  0.0300  0.0571  0.2221
 1468W        W18316   4.884  14.820  13.527 -0.2150 -0.1126 -0.0989
 1469W        W18317  11.363  12.830  14.871  0.0199 -0.1475 -0.1803
 1470W        W18318  14.463   1.497   3.990  0.1216 -0.1416 -0.1104
 1471W        W18319  10.972  12.995   0.173 -0.0157  0.0052  0.1014
 1472W        W18320  17.239  10.317  14.929 -0.1986  0.0403 -0.0003
 1473W        W18321   8.139  15.604   3.919 -0.0665 -0.1476  0.0413
 1474W        W18322  13.214   1.943  14.779  0.0469 -0.0076  0.5208
 1475W        W18323  16.369  14.869   0.438  0.0180 -0.0347  0.0116
 1476W        W18324  12.989  17.305   3.446 -0.0830 -0.1550  0.1971
 1477W        W18325  15.072  11.677  10.502  0.1521 -0.5349  0.1546
 1478W        W18326  15.348   1.380  15.492  0.2853  0.0558 -0.1665
 1479W        W18327  14.652   4.513  13.732  0.1366 -0.2147 -0.0251
 1480W        W18328   8.816   2.373   1.760 -0.0468  0.2671 -0.0237
 1481W        W18329  16.718  14.175  15.835  0.0473 -0.2635  0.0104
 1482W        W18330  15.630   8.021  16.487 -0.0695  0.3140 -0.2766
 1483W        W18331   3.074   7.638   0.555 -0.0081 -0.0523 -0.1229
 1484W        W18332   2.844   9.638   1.829  0.0039 -0.2013 -0.0476
 1485W        W18333  14.870   8.316   5.543 -0.0822  0.1348  0.1421
 1486W        W18334  15.962   9.451   1.083 -0.0119  0.1906 -0.1362
 1487W        W18335   3.608   1.305   1.586 -0.1351  0.0532  0.1205
 1488W        W18336   6.903   4.729   4.301  0.0797  0.1735 -0.1062
 1489W        W18337  13.397  10.081   0.520  0.1926 -0.2297 -0.2192
 1490W        W18338   5.830   6.893  11.409  0.5160 -0.0572  0.1362
 1491W        W18339   5.927   9.707  11.124 -0.1005  0.0922  0.2846
 1492W        W18340  15.707   0.697  11.806  0.0740  0.2075  0.1227
 1493W        W18341   5.712   9.522   0.936  0.1936 -0.1012  0.0003
 1494W        W18342  17.337  13.599  12.843 -0.0239  0.0901  0.1290
 1495W        W18343  11.891   5.468   0.160 -0.1412  0.0374 -0.0380
 1496W        W18344  13.621   1.935   0.994  0.1691 -0.3580  0.2927
 1497W        W18345  13.644  12.654  16.176  0.1864 -0.0315  0.0181
 1498W        W18346   6.888  11.124   0.841  0.1594  0.2193  0.2625
 1499W        W18347   5.477  10.611  12.553  0.1647 -0.0178 -0.3765
 1500W        W18348   1.855   3.353   0.149  0.0911 -0.1376 -0.1191
 1501W        W18349   5.925   1.051  12.648 -0.2072  0.2074 -0.1655
 1502W        W18350   9.816  15.770   1.237 -0.0710  0.0013 -0.1838
 1503W        W18351   4.015   0.919  11.804 -0.2740  0.1149 -0.1699
 1504W        W18352   0.368  10.591   2.663 -0.0935 -0.0089  0.0677
 1505W        W18353   8.472  14.970   2.923 -0.0494  0.2544  0.0566
 1506W        W18354  10.432  17.511  11.992 -0.0941 -0.0641 -0.1432
 1507W        W18355  10.863  15.477  14.015  0.3370 -0.1044 -0.0263
 1508W        W18356   3.527   7.469   0.813 -0.2232  0.3638  0.1644
 1509W        W18357  16.308  15.538  14.690  0.3691 -0.0602 -0.2394
 1510W        W18358   9.542   2.369  14.357 -0.2367 -0.0045  0.1546
 1511W        W18359  14.873   2.451   4.372  0.0975  0.2663  0.0539
 1512W        W18360   7.531   6.784  12.286 -0.0897 -0.2331 -0.3316
 1513W        W18361   5.459  10.403  15.518  0.0281  0.1635  0.1198
 1514W        W18362  15.398   0.491   2.688  0.3090 -0.0841 -0.2143
 1515W        W18363   9.817   1.915   4.772  0.1737  0.0866 -0.0469
 1516W        W18364  10.047   3.069   0.097 -0.1050  0.0492  0.2818
 1517W        W18365   5.637   8.729  16.265  0.0316  0.1823  0.0648
 1518W        W18366  15.244   6.381  15.995 -0.0773  0.2110  0.0170
 1519W        W18367  13.955  17.390  16.504 -0.0522 -0.1852  0.2070
 1520W        W18368  10.261  15.641   1.492  0.2255 -0.1029  0.0934
 1521W        W18369  11.141  14.915  14.814 -0.3039  0.0419 -0.2686
 1522W        W18370   0.976  15.351   4.410 -0.0868  0.1326  0.3476
 1523W        W18371   8.186   2.190   0.196  0.1315 -0.0237  0.3207
 1524W        W18372   9.357  14.376   2.102 -0.0070  0.2049  0.0064
 1525W        W18373   9.455   8.765  16.148 -0.3754  0.2346  0.4861
 1526W        W18374   7.493  12.683   2.500 -0.2288  0.0455  0.1545
 1527W        W18375  10.872   1.417  11.989  0.0464  0.2600 -0.0905
 1528W        W18376   5.122  14.406   4.988  0.1704 -0.1957 -0.2643
 1529W        W18377  11.569   6.969  11.806 -0.1011  0.0809  0.0007
 1530W        W18378  12.898   9.689   0.793  0.1546 -0.1585  0.0499
 1531W        W18379   1.585  13.699   0.624  0.2818  0.0466 -0.1695
 1532W        W18380   1.789  13.122   4.835 -0.4000 -0.0055  0.1481
 1533W        W18381   3.546   4.511   0.172  0.0124 -0.2440 -0.3579
 1534W        W18382   2.589   5.143  13.200  0.1115 -0.2085  0.1720
 1535W        W18383  10.117   8.911  12.818  0.0734 -0.1350 -0.4272
 1536W        W18384   5.036   7.297  15.644  0.2939 -0.2481 -0.0428
 1537W        W18385  14.632   3.084   5.051 -0.2107  0.0194  0.0416
 1538W        W18386  10.191  14.347  14.547  0.1435  0.1465 -0.0652
 1539W        W18387   6.006  15.048   1.362 -0.0599  0.1766 -0.3257
 1540W        W18388  17.095  15.984  10.568  0.3235 -0.1722  0.0244
 1541W        W18389   0.991  10.545   0.710 -0.0721 -0.0538  0.1364
 1542W        W18390  11.495   0.085   4.733 -0.1029 -0.2337  0.0026
 1543W        W18391  12.173   5.166  14.774 -0.1021  0.0668 -0.3011
 1544W        W18392   5.255   5.133  14.305 -0.1041  0.1562  0.0246
 1545W        W18393   6.936   0.758  13.397  0.1514 -0.1922 -0.1340
 1546W        W18394  16.471   9.258  14.849 -0.0122 -0.0088  0.1355
 1547W        W18395  12.971   3.085  15.626  0.2010 -0.1217  0.2511
 1548W        W18396   9.551  16.691   2.134 -0.0011 -0.0586 -0.0695
 1549W        W18397   8.981   2.662   2.170  0.0141  0.0493  0.2401
 1550W        W18398  13.029   0.881  11.927  0.1358 -0.0884  0.0714
 1551W        W18399   3.025   2.108   5.840  0.0198  0.0139  0.1776
 1552W        W18400   5.398   1.693   2.879 -0.2251  0.0813 -0.0545
 1553W        W18401  13.561   2.876   0.625 -0.1447 -0.1849 -0.0690
 1554W        W18402  12.539   6.447  14.992  0.2116  0.0257 -0.1301
 1555W        W18403  10.059   9.017  12.003  0.0457 -0.0705  0.1709
 1556W        W18404  16.899  15.071   3.055 -0.0133 -0.2396  0.1536
 1557W        W18405   7.524  17.359  12.632  0.0195  0.2491  0.1209
 1558W        W18406  13.065  12.115   2.540 -0.0539  0.2663  0.0825
 1559W        W18407  10.029  12.673   4.189  0.2252 -0.1703 -0.1450
 1560W        W18408   8.682   7.289  13.542 -0.0863  0.0839 -0.2265
 1561W        W18409   8.100   4.093   4.498 -0.1369 -0.0950  0.2736
 1562W        W18410   5.970   7.451  13.518  0.1589 -0.1850  0.1307
 1563W        W18411  13.622   7.225   4.264 -0.1417 -0.1192  0.3271
 1564W        W18412   8.174   3.398   5.512  0.1149  0.0089 -0.2647
 1565W        W18413   9.383   1.259  14.947  0.3638  0.0068  0.4353
 1566W        W18414  11.291   9.556  14.727 -0.1395 -0.3815 -0.5078
 1567W        W18415  12.669   0.172   2.559 -0.2096 -0.0865  0.1672
 1568W        W18416   5.570   9.798   3.495 -0.1594  0.1283  0.1252
 1569W        W18417   8.981   9.554   1.955 -0.2333  0.0365 -0.0456
 1570W        W18418  14.272  17.387   4.977 -0.0536  0.0115  0.2364
 1571W        W18419  12.062   5.364   3.725 -0.1090 -0.0484 -0.3759
 1572W        W18420   5.429   5.414   0.857  0.1339 -0.2295  0.0782
 1573W        W18421   0.653  13.510   2.409 -0.0501  0.1783 -0.3423
 1574W        W18422   4.015   2.451   3.095 -0.0856 -0.2073  0.0590
 1575W        W18423   7.508  13.026   4.853 -0.1145 -0.1686  0.0749
 1576W        W18424   5.502  12.913  15.989  0.0320 -0.1501 -0.2010
 1577W        W18425   1.604  14.480   1.232  0.0056  0.1158  0.0495
 1578W        W18426   4.122  15.620   3.402  0.0534  0.0341  0.0083
 1579W        W18427   2.083  10.802   3.383 -0.0453 -0.2628  0.0374
 1580W        W18428   0.171  13.164   0.159  0.1432  0.0694 -0.1730
 1581W        W18429  12.102  10.097  15.874  0.0165 -0.0124  0.4149
 1582W        W18430   3.381   4.909  11.551  0.0985  0.1094  0.0815
 1583W        W18431   6.328  16.040  13.338  0.0337 -0.0323 -0.1007
 1584W        W18432   7.261  17.484  10.667  0.3285  0.1499  0.0151
 1585W        W18433   8.775   8.462   3.999  0.2745  0.3612 -0.1296
 1586W        W18434  14.699   0.619   3.410 -0.0506 -0.1664  0.2655
 1587W        W18435  15.714  12.588   2.560 -0.1879  0.1353 -0.1601
 1588W        W18436  11.560   2.903   3.716  0.0551 -0.1783 -0.0196
 1589W        W18437   4.651   5.188  14.306 -0.3597  0.3725 -0.1065
 1590W        W18438   4.400  10.098   3.645  0.2181  0.2217 -0.0525
 1591W        W18439   8.911   5.898  14.739  0.1138  0.1664  0.1828
 1592W        W18440   2.729  13.411   3.330 -0.0269  0.0555 -0.2931
 1593W        W18441   5.091   5.285  11.142  0.2642  0.0848  0.1243
 1594W        W18442  17.179  10.726  15.536  0.0006  0.0565  0.3480
 1595W        W18443  14.950  16.887   1.183  0.0071  0.0737 -0.2771
 1596W        W18444   4.571  14.943   5.427 -0.0622 -0.3844 -0.2469
 1597W        W18445   8.859   0.091   0.518 -0.2243 -0.0602  0.3651
 1598W        W18446   8.043   6.387   4.395  0.0400  0.1775  0.0002
 1599W        W18447   0.777  15.810   4.304 -0.2234 -0.1982 -0.0552
 1600W        W18448  14.433   3.384  12.409  0.0654 -0.5731  0.2766
 1601W        W18449   6.862   3.270   5.849 -0.2028 -0.1038 -0.0139
 1602W        W18450   5.432  15.577   0.896  0.0593 -0.0525  0.3631
 1603W        W18451  12.787  14.436   4.683 -0.0247  0.2863  0.1336
 1604W        W18452   3.413   4.940  13.917 -0.1129 -0.2676  0.0732
 1605W        W18453   2.719  13.013  14.734 -0.2092 -0.0731 -0.1482
 1606W        W18454   8.023  16.677  14.919 -0.0266  0.0802  0.0378
 1607W        W18455  11.039  13.898  12.411 -0.4240  0.1226 -0.1381
 1608W        W18456  13.462   6.421  11.190  0.2368 -0.0313  0.0160
 1609W        W18457  10.860   7.791   1.707 -0.0351 -0.1207  0.2162
 1610W        W18458   0.902   9.445  10.801 -0.0194  0.2061 -0.1375
 1611W        W18459   4.185  17.343  16.471  0.0623  0.2491 -0.0779
 1612W        W18460   9.876   7.735   0.307  0.2407  0.1950 -0.1245
 1613W        W18461   5.087   8.015   3.934 -0.0610  0.3520 -0.0940
 1614W        W18462  15.031   6.277   3.518 -0.3171 -0.0281 -0.2083
 1615W        W18463   6.756  14.812  13.946 -0.1089  0.0774  0.1804
 1616W        W18464  14.774   7.523  12.914 -0.1039 -0.1258  0.2926
 1617W        W18465   9.781   0.638   1.502 -0.2144  0.0192 -0.0182
 1618W        W18466   3.383   7.778  14.621 -0.1002 -0.2919  0.2523
 1619W        W18467   6.239   0.096   2.740 -0.2546  0.1577 -0.1995
 1620W        W18468   0.075   5.761  15.108 -0.1776  0.2054  0.0938
 1621W        W18469   5.556  15.062   5.643 -0.0713 -0.1426 -0.4575
 1622W        W18470  11.576  16.083  13.277 -0.3355 -0.1380  0.0567
 1623W        W18471   0.652   7.287  13.652 -0.1996 -0.1361  0.0597
 1624W        W18472   6.510   0.378  13.520  0.1140 -0.1072  0.4776
 1625W        W18473   5.747  16.626  10.775  0.0995 -0.2755  0.0763
 1626W        W18474  17.159   7.539   0.647  0.0237  0.1633 -0.0015
 1627W        W18475   1.610  12.223   4.519 -0.0434  0.2400  0.1608
 1628W        W18476  15.372  16.056   1.105 -0.1145  0.2436  0.1718
 1629W        W18477  14.901   6.969   4.124  0.1663 -0.1810 -0.1196
 1630W        W18478   6.380  16.659  13.759  0.0311  0.0987  0.1119
 1631W        W18479   5.220  16.985   2.047 -0.0586  0.0639 -0.2058
 1632W        W18480   3.985   0.656  15.512 -0.3884 -0.2466 -0.4099
 1633W        W18481   1.921   7.033  15.537  0.1363  0.1684  0.0182
 1634W        W18482   3.854   8.984   2.296  0.2020  0.1448 -0.3138
 1635W        W18483  14.064   7.635   3.776  0.4001 -0.0157 -0.1608
 1636W        W18484   9.452   9.393   3.776 -0.0962  0.0790 -0.0380
 1637W        W18485  15.468  12.367  12.041  0.1996 -0.2802 -0.2231
 1638W        W18486  11.175  15.252  15.918 -0.0384 -0.0657 -0.2371
 1639W        W18487  13.228   6.844   5.227 -0.1006 -0.1813 -0.2427
 1640W        W18488   1.611  13.192   5.753  0.0897  0.0600 -0.2011
 1641W        W18489   8.261   5.628   0.564  0.0260  0.2415  0.0277
 1642W        W18490  10.835   2.661  11.468 -0.0660  0.3803 -0.2100
 1643W        W18491   6.570   1.534   5.203  0.2872 -0.1871  0.3720
 1644W        W18492  10.697  16.133   2.236 -0.0306 -0.2208  0.0282
 1645W        W18493  13.617  13.772  14.037  0.0201  0.1313  0.3282
 1646W        W18494  14.979   6.843  15.711 -0.1263  0.2177  0.1856
 1647W        W18495   0.387   9.970  12.054 -0.0365  0.2206 -0.2117
 1648W        W18496   4.899  15.523  15.912 -0.1619 -0.2039 -0.0767
 1649W        W18497   5.277   1.071   3.806  0.4255  0.1414  0.3503
 1650W        W18498   0.411  13.100   4.972  0.0507 -0.2174  0.0993
 1651W        W18499   6.460   0.752  13.125  0.1482  0.0894 -0.0608
 1652W        W18500  12.189   1.411   4.769 -0.3693 -0.0303  0.0747
 1653W        W18501  12.095   1.810  14.370 -0.0237  0.2286  0.1174
 1654W        W18502  11.266  16.873   4.493 -0.0750 -0.1517 -0.2481
 1655W        W18503   4.681   9.300   5.297  0.0928  0.0289  0.0998
 1656W        W18504  11.710   4.785   1.134 -0.1780 -0.0793 -0.1078
 1657W        W18505   6.098   1.493  14.377  0.1155 -0.0984  0.0027
 1658W        W18506   4.142   3.362   4.607 -0.2417  0.0937 -0.0213
 1659W        W18507  12.211   0.638  15.510 -0.2314  0.1259  0.1159
 1660W        W18508   3.915   3.441   2.834 -0.0211  0.0109  0.0119
 1661W        W18509   1.996  14.876  12.556 -0.0885  0.1547 -0.0317
 1662W        W18510   6.679  15.146   0.305  0.3093  0.0700 -0.0557
 1663W        W18511   0.708   7.983   1.675  0.0303  0.0756 -0.0341
 1664W        W18512   5.112   5.304   0.169 -0.2378 -0.3139 -0.1139
 1665W        W18513  17.219   1.187   4.975 -0.0694 -0.0425  0.4707
 1666W        W18514   8.744   0.709  15.031  0.0948  0.3307  0.0579
 1667W        W18515   0.961  11.921  13.983  0.0099 -0.1520  0.2017
 1668W        W18516  17.311   8.358   0.661  0.0522 -0.2719  0.2025
 1669W        W18517   5.161   1.028   2.567 -0.0731 -0.1080 -0.2146
 1670W        W18518   6.291  15.677   5.719 -0.2539 -0.1973 -0.0439
 1671W        W18519  11.182   9.780   5.212  0.0157 -0.0856  0.0415
 1672W        W18520  14.111   6.091  14.292 -0.2373  0.0058  0.1632
 1673W        W18521  10.924   5.155  15.436 -0.2218  0.1085 -0.2173
 1674W        W18522  11.299  11.002  12.245  0.3111 -0.0863  0.3110
 1675W        W18523  17.345   3.892  12.694  0.0482  0.0837  0.0381
 1676W        W18524   8.752   3.897   3.333 -0.0468 -0.0985  0.0291
 1677W        W18525   9.541  10.878   5.049 -0.1620 -0.0179  0.0113
 1678W        W18526   1.318   5.861   5.346 -0.1527  0.2220  0.2413
 1679W        W18527   7.323  14.500  12.987 -0.0532  0.0498  0.0334
 1680W        W18528   9.128   0.518   0.421  0.1940  0.2436  0.3008
 1681W        W18529   3.401   7.393  15.035 -0.0618  0.0903  0.0752
 1682W        W18530  10.626   2.893   1.408  0.1813 -0.1658 -0.0002
 1683W        W18531   7.442   4.021   0.489 -0.0552 -0.0883 -0.1423
 1684W        W18532   0.003   2.821   4.113 -0.1222  0.0285  0.0831
 1685W        W18533   4.200   3.907  16.213 -0.2305  0.0378  0.0497
 1686W        W18534  13.820  13.472  15.273 -0.0652  0.0179  0.3377
 1687W        W18535  11.860  12.382   4.070 -0.0762  0.2405  0.0632
 1688W        W18536   3.107   8.289   2.197 -0.2580  0.0211  0.4229
 1689W        W18537  12.990   2.706   2.428 -0.1663  0.0435  0.1287
 1690W        W18538   1.668   2.442   4.559 -0.0585 -0.1059 -0.1083
 1691W        W18539  10.651   9.634   0.314  0.0452  0.2253  0.1236
 1692W        W18540   8.797  12.331   3.624 -0.0217 -0.3058  0.2181
 1693W        W18541  12.459   7.241  16.334 -0.0229  0.2871 -0.0072
 1694W        W18542   1.899  16.241  16.587  0.0547  0.1515 -0.1260
 1695W        W18543  11.015   3.792  15.502 -0.0375  0.1161  0.2123
 1696W        W18544   6.846   6.569   1.059 -0.1379  0.1710  0.0624
 1697W        W18545   3.140  12.806  12.866  0.1222  0.0193  0.1287
 1698W        W18546   8.619  11.298  14.129  0.0793  0.0572 -0.0804
 1699W        W18547  14.666   8.675   3.525 -0.0632 -0.1355  0.0875
 1700W        W18548   8.505   3.076   3.975 -0.0555 -0.0617 -0.1822
 1701W        W18549  15.651  13.225  13.214 -0.0294  0.5547 -0.1357
 1702W        W18550   3.070   1.548  12.908  0.0464 -0.1753  0.3014
 1703W        W18551   3.854  17.157  11.870 -0.4144 -0.1995  0.2477
 1704W        W18552  15.528  12.898   3.101 -0.1600  0.1821  0.0550
 1705W        W18553   2.399   6.025  12.328 -0.1225 -0.0955  0.1088
 1706W        W18554  13.453  17.270  16.468  0.0264  0.0847 -0.1115
 1707W        W18555   0.098   8.142   3.356 -0.3822  0.2970  0.0164
 1708W        W18556   5.948  15.253   4.829  0.1771  0.2462 -0.1729
 1709W        W18557   9.911  14.517  15.662 -0.0458 -0.0251  0.2387
 1710W        W18558  17.202   9.312  15.450 -0.1157  0.1012 -0.1586
 1711W        W18559   4.214   9.809  12.001 -0.0462 -0.0191 -0.2418
 1712W        W18560  14.157   6.385  14.743 -0.1110 -0.4714  0.2610
 1713W        W18561  15.511   3.678   0.582 -0.0610  0.1076  0.0752
 1714W        W18562   5.140   8.738  13.729  0.0868 -0.1175 -0.0493
 1715W        W18563  12.007   2.761  16.265 -0.2079  0.0085 -0.1379
 1716W        W18564  17.531   0.557  13.309 -0.0779  0.0154  0.0595
 1717W        W18565  17.493  15.712   4.944  0.1432  0.3217  0.2629
 1718W        W18566  13.807  14.791  14.032  0.0862 -0.0439 -0.2760
 1719W        W18567   7.329  11.388   1.724 -0.1441 -0.2832 -0.0721
 1720W        W18568  15.707   0.387   2.316 -0.1812  0.0900  0.0559
 1721W        W18569   5.544   6.794   4.669 -0.0690  0.2671  0.0466
 1722W        W18570   5.115   3.500   2.698  0.0771  0.3733  0.0402
 1723W        W18571  15.397  10.745  15.424  0.1007 -0.0516 -0.1656
 1724W        W18572   5.893  14.609   0.570 -0.2839  0.0966  0.0548
 1725W        W18573  14.774   3.556   5.081  0.0846  0.2640  0.1062
 1726W        W18574   7.699   8.216  15.053 -0.2301 -0.1689 -0.0305
 1727W        W18575  10.836   4.487  12.673  0.1333  0.1618  0.4433
 1728W        W18576  16.126   2.060   0.414 -0.1642 -0.0405 -0.0315
 1729W        W18577   3.929  15.562  15.313 -0.0903 -0.0624  0.1051
 1730W        W18578   7.618   4.293  12.037  0.0818 -0.0242 -0.2187
 1731W        W18579  17.540  12.378   2.781 -0.3092  0.2146 -0.0838
 1732W        W18580   5.450   4.924   4.747 -0.1425  0.4172  0.0755
 1733W        W18581   3.280  11.771  13.059 -0.0487  0.0687  0.2350
 1734W        W18582   2.531   8.973  12.262 -0.2832  0.0800  0.0700
 1735W        W18583   2.109   3.464  13.013 -0.1680  0.0646  0.0132
 1736W        W18584  12.523  12.928   2.667 -0.1132  0.1838 -0.2181
 1737W        W18585   1.075   8.727  13.355  0.0625  0.0742  0.0786
 1738W        W18586   5.771  13.416   4.336  0.0356 -0.2630  0.1333
 1739W        W18587  10.327  17.498   3.737 -0.2366 -0.1149  0.0943
 1740W        W18588   7.977   5.038   5.779  0.0879  0.3609 -0.0928
 1741W        W18589   0.532   2.027  12.441  0.1153  0.1886 -0.1052
 1742W        W18590   8.023   1.549  12.658 -0.0959  0.3419  0.2121
 1743W        W18591  13.032   4.324   0.004 -0.0789 -0.0516 -0.1006
 1744W        W18592  15.979  11.743  13.896  0.0184  0.0203  0.0649
 1745W        W18593  10.063   4.565  11.808 -0.1648 -0.2850 -0.1580
 1746W        W18594   7.170  12.896   3.323  0.0740 -0.2081  0.0812
 1747W        W18595  12.832  12.384  16.445 -0.1462 -0.0171 -0.0742
 1748W        W18596  11.015   9.915  12.250  0.0981 -0.3630 -0.0065
 1749W        W18597  13.735   2.465   1.397  0.1448 -0.1550  0.2011
 1750W        W18598   8.570  17.388  13.092 -0.0143 -0.1139  0.0740
 1751W        W18599  11.999  10.096   1.760 -0.0132 -0.1102  0.2519
 1752W        W18600  11.767   7.573   2.503 -0.1224 -0.0006 -0.0320
 1753W        W18601  17.154  10.482  13.818  0.0469  0.1236  0.0051
 1754W        W18602   3.369  14.286   4.189 -0.1336 -0.0956 -0.1882
 1755W        W18603   7.844  10.968  13.693  0.1165 -0.1622 -0.0530
 1756W        W18604  17.038   2.960   2.361  0.0629  0.0926  0.2169
 1757W        W18605  16.534   4.933   1.296  0.0234 -0.0542 -0.2593
 1758W        W18606  16.847  11.338  11.643  0.1465  0.0114  0.3240
 1759W        W18607  15.032  16.218  15.342  0.2651  0.0423  0.0368
 1760W        W18608   5.147   8.113   0.463 -0.0931 -0.0756  0.2352
 1761W        W18609  15.420  14.850   3.209 -0.0555  0.1132  0.1150
 1762W        W18610   1.717   4.730  12.302 -0.1702  0.0109  0.3858
 1763W        W18611  14.679   7.469  13.874  0.2257  0.1825  0.0670
 1764W        W18612  13.756  11.630  14.280  0.1995  0.0414  0.1077
 1765W        W18613  12.528   3.811  12.410  0.2016 -0.1914  0.0169
 1766W        W18614  11.205   4.206  16.215  0.0305  0.1280  0.1250
 1767W        W18615  13.111   2.560  13.764  0.0358  0.0998  0.0278
 1768W        W18616  14.234   7.597  13.143  0.0453  0.0350  0.0083
 1769W        W18617   1.150  11.970   3.690 -0.1423 -0.1278 -0.2596
 1770W        W18618   8.783   7.939  15.820  0.0766  0.0237 -0.2631
 1771W        W18619   7.183  15.263   1.573 -0.2058  0.0654  0.0268
 1772W        W18620   9.053  15.344   1.848 -0.2549 -0.2062 -0.2825
 1773W        W18621   2.620  14.084  16.505 -0.2760  0.0077 -0.1317
 1774W        W18622   7.973  10.174  10.996  0.1971  0.0027 -0.4708
 1775W        W18623   5.346  16.111  12.330 -0.2087  0.0865 -0.1015
 1776W        W18624   1.413   9.530   0.998  0.0792  0.1562 -0.1711
 1777W        W18625   2.519   7.227   1.466 -0.0209 -0.2494  0.2431
 1778W        W18626  10.246  15.532   3.440  0.0573  0.1100 -0.0587
 1779W        W18627  11.876   9.682  12.798 -0.0344 -0.0118  0.0529
 1780W        W18628   9.916  16.388   2.980 -0.1568  0.0921  0.1901
 1781W        W18629   7.383   3.460   1.592  0.1237 -0.5384 -0.3780
 1782W        W18630  17.193  10.203   1.083 -0.1189  0.3216 -0.0837
 1783W        W18631   3.166  10.147   2.504 -0.0037 -0.1924 -0.4093
 1784W        W18632  16.329   0.802   0.939  0.1240  0.2587  0.1026
 1785W        W18633  15.547   6.976   3.025 -0.1131  0.0487  0.2845
 1786W        W18634   8.175   1.405  16.351  0.0905 -0.1033  0.1947
 1787W        W18635   7.970  11.552   2.904  0.0074  0.1437 -0.1370
 1788W        W18636   6.457   1.824   4.735 -0.0926 -0.2128  0.1622
 1789W        W18637  16.466   0.174  15.326 -0.0755 -0.2085 -0.1819
 1790W        W18638  16.824  14.648   3.981  0.1779 -0.4211  0.1210
 1791W        W18639  12.705  12.103  14.755 -0.1419  0.1857 -0.2181
 1792W        W18640  13.978   9.385   3.358  0.0790  0.0693  0.0686
 1793W        W18641   8.979   7.451   1.863  0.4693  0.1072 -0.0759
 1794W        W18642  12.884   3.969   4.136  0.1213  0.0243  0.0227
 1795W        W18643  14.780   7.969  10.366 -0.1080 -0.0303 -0.1617
 1796W        W18644  16.990   1.070   3.621 -0.1754  0.3081 -0.0182
 1797W        W18645   1.433  10.177  11.306  0.1683 -0.2013  0.0314
 1798W        W18646   9.128  14.887  12.570  0.0122 -0.1113 -0.2005
 1799W        W18647  10.030   6.784   4.854  0.2439  0.0419 -0.2694
 1800W        W18648   1.926   4.819   3.686 -0.0214  0.0668  0.1231
 1801W        W18649   6.470   8.571   1.707 -0.1855  0.0980 -0.3336
 1802W        W18650   5.052   1.323   0.687  0.0611  0.1851 -0.0683
 1803W        W18651   6.740  11.667   2.117 -0.0199 -0.1765  0.1960
 1804W        W18652   6.772   2.464   2.965 -0.0721  0.2866  0.1863
 1805W        W18653   9.289  13.630   0.957  0.0150  0.0815 -0.2381
 1806W        W18654   9.390   4.554  11.027  0.0403  0.1255  0.2952
 1807W        W18655   4.242   3.571  16.625 -0.0107  0.1017 -0.1205
 1808W        W18656  14.386  16.976  15.556 -0.1593 -0.0641  0.1489
 1809W        W18657   9.808  16.585  10.972  0.0394  0.1041 -0.2837
 1810W        W18658   0.480   3.635   1.100 -0.3952 -0.1222 -0.2401
 1811W        W18659   1.986   3.314  15.343 -0.0766 -0.0865 -0.0217
 1812W        W18660   5.548  10.188   2.627  0.0810 -0.0960 -0.0370
 1813W        W18661  12.370  14.315  15.592 -0.0083 -0.2839  0.0734
 1814W        W18662  15.286   1.712   4.458  0.1333  0.0113 -0.0647
 1815W        W18663   3.078  15.417  13.232  0.0856 -0.0444  0.0425
 1816W        W18664  14.123  14.621  11.354 -0.1129  0.2538 -0.2673
 1817W        W18665  11.933  10.927   3.622 -0.1149 -0.2006  0.0985
 1818W        W18666   6.285   9.452   2.024  0.1728 -0.1399  0.2184
 1819W        W18667  13.389  13.550  16.600  0.1419 -0.0381  0.3477
 1820W        W18668  17.103  14.181   0.020 -0.1288 -0.0485 -0.4238
 1821W        W18669  16.887   8.581   0.201  0.0785 -0.4047 -0.0944
 1822W        W18670   4.128  15.581   0.835 -0.0604 -0.2310  0.0087
 1823W        W18671   5.034  12.950   6.127  0.2126  0.1339  0.3080
 1824W        W18672   6.852   2.729  13.182 -0.1122 -0.1124 -0.3444
 1825W        W18673   6.510   5.210  14.881  0.0731  0.1260  0.2254
 1826W        W18674   7.282  10.834   5.015  0.0600 -0.3569 -0.2230
 1827W        W18675  11.640   7.528   1.488 -0.1247 -0.1901  0.0574
 1828W        W18676   1.805   0.771   4.776 -0.0956 -0.1147  0.1889
 1829W        W18677   3.835   9.851  12.777  0.0871  0.0329 -0.0202
 1830W        W18678  10.236  14.504   2.910 -0.0939  0.0011  0.5387
 1831W        W18679   9.566   8.159   2.352  0.0886  0.1135 -0.1197
 1832W        W18680   4.231   8.228   1.727  0.0385  0.0189 -0.1301
 1833W        W18681   3.781   2.488   4.288 -0.0042 -0.2310  0.2028
 1834W        W18682  15.325  10.526   1.614 -0.2322  0.1355 -0.0065
 1835W        W18683   0.332  12.746  12.188  0.3042 -0.0178 -0.1780
 1836W        W18684   9.798  16.214  14.433 -0.0047  0.1169  0.0027
 1837W        W18685  13.109   1.273  15.181  0.0237 -0.1648 -0.1426
 1838W        W18686  12.341   3.189   4.563  0.0313 -0.1090  0.1547
 1839W        W18687   7.191   0.179  13.398  0.0101 -0.2399 -0.4197
 1840W        W18688   1.584   5.754  13.595  0.0182 -0.2051 -0.2196
 1841W        W18689  12.126   9.774  13.278  0.3187  0.0120  0.2712
 1842W        W18690  10.774   6.113   2.271  0.3249  0.3346 -0.1179
 1843W        W18691  11.920   5.848  15.962  0.1232  0.0968  0.0456
 1844W        W18692  16.723   8.810   4.761  0.2554 -0.0798 -0.0304
 1845W        W18693   3.070   5.360  13.266  0.0253 -0.0635  0.1039
 1846W        W18694  14.475  13.413  15.874 -0.3293  0.0477 -0.3389
 1847W        W18695   1.736  10.317   3.928  0.1306 -0.1960 -0.0476
 1848W        W18696   1.275  12.772  13.174  0.1962  0.0022 -0.1982
 1849W        W18697  10.567  14.182  13.020 -0.0495 -0.0587  0.0464
 1850W        W18698  12.037  16.359   1.231 -0.0782 -0.1502  0.0230
 1851W        W18699   9.061   4.535   4.614 -0.1673  0.1228  0.5089
 1852W        W18700   1.423  15.039   3.516 -0.0737 -0.2602 -0.2259
 1853W        W18701   7.229  16.503   1.108 -0.4504  0.1904  0.2040
 1854W        W18702   2.081   4.990  11.510 -0.0635 -0.3316  0.2965
 1855W        W18703   6.673   7.278  12.788 -0.0746 -0.0014 -0.1466
 1856W        W18704  13.126   1.532  14.469  0.1194  0.0104 -0.2196
 1857W        W18705  15.441  16.178   1.663  0.2159  0.1193  0.0320
 1858W        W18706   2.702   2.377   3.302 -0.1135 -0.1037  0.0229
 1859W        W18707   4.798   3.108  12.088  0.1292  0.1123 -0.0345
 1860W        W18708   2.671   7.208   5.055  0.2936 -0.0009  0.2118
 1861W        W18709  12.218   0.843   0.737 -0.2576  0.2340 -0.1261
 1862W        W18710  13.012   5.616  14.789  0.1931  0.2816 -0.2149
 1863W        W18711  16.866  11.254   1.924 -0.0364 -0.1623  0.2466
 1864W        W18712  14.058   7.163   5.328 -0.4747  0.1115 -0.2797
 1865W        W18713   5.161   2.256   4.607  0.0117  0.0526  0.0632
 1866W        W18714  10.621  14.175  14.665 -0.0918 -0.1370 -0.0557
 1867W        W18715  12.832   0.889  12.808  0.3410 -0.1918 -0.0634
 1868W        W18716   4.174   8.584  14.774  0.3264 -0.6625 -0.3761
 1869W        W18717  13.585   5.099  13.731 -0.1697  0.0400 -0.0020
 1870W        W18718  16.011   2.062   2.542  0.0775 -0.1320 -0.1456
 1871W        W18719   6.627  14.876  12.144  0.0732  0.0045  0.1452
 1872W        W18720   5.907  16.904   5.701  0.0238  0.0775 -0.2211
 1873W        W18721   6.546  11.376  12.656  0.1554  0.3262 -0.1281
 1874W        W18722  14.246  11.279  15.450 -0.1184  0.0746  0.2091
 1875W        W18723  12.576  14.951   2.301 -0.0342  0.1311  0.1083
 1876W        W18724   4.468   4.487  15.548  0.0976  0.0146 -0.0561
 1877W        W18725  16.468   0.153  14.838  0.0386  0.2548  0.0232
 1878W        W18726   0.821   4.833   2.063  0.1202 -0.0577  0.2346
 1879W        W18727   3.127   1.874  14.799 -0.1737 -0.0323  0.0701
 1880W        W18728   6.746   5.796   1.850 -0.0602 -0.2776 -0.0926
 1881W        W18729  14.989  16.827   2.589 -0.1476 -0.1947  0.0935
 1882W        W18730  11.214   4.667  15.331  0.0205 -0.2221 -0.0564
 1883W        W18731   3.326  17.276   2.203  0.3743  0.0230 -0.1207
 1884W        W18732  12.883  11.980   5.659 -0.0389  0.0200 -0.0565
 1885W        W18733   9.166   3.053   1.259  0.0840 -0.3100  0.1224
 1886W        W18734   7.310  17.302   2.960 -0.2003  0.3047 -0.1754
 1887W        W18735  11.308  17.201   3.206  0.0574 -0.1935 -0.1563
 1888W        W18736  11.840  10.301   0.480 -0.2558  0.3520  0.3348
 1889W        W18737   0.350   5.611   5.180  0.0393  0.1682  0.2487
 1890W        W18738  14.845   8.398   0.346 -0.2046 -0.1229  0.0193
 1891W        W18739   9.014   4.290   0.985  0.1440 -0.0741  0.0476
 1892W        W18740   6.193   1.056   3.990 -0.1972  0.1251  0.2949
 1893W        W18741  14.861   8.507  12.747  0.2237  0.2384  0.1502
 1894W        W18742   4.144   3.067  14.993  0.2351  0.4359 -0.1819
 1895W        W18743  14.666   4.015   1.115  0.0073 -0.2121  0.0222
 1896W        W18744   8.832   4.948   4.821 -0.3324  0.1313  0.0194
 1897W        W18745  10.041  16.129  13.064 -0.0607  0.2752 -0.0310
 1898W        W18746   7.928   1.905  13.160 -0.0246  0.0048 -0.0809
 1899W        W18747  10.683  15.559   1.105  0.1761  0.2776 -0.0790
 1900W        W18748  17.145  16.563   4.515  0.0711 -0.5157  0.2576
 1901W        W18749   4.344  10.029   3.120  0.0665  0.0921  0.1206
 1902W        W18750   4.484   0.051   2.451  0.0276  0.1223 -0.0102
 1903W        W18751  17.317  10.059   3.680 -0.0420 -0.0115 -0.1549
 1904W        W18752   6.459   0.675  12.066  0.0893 -0.1593 -0.0123
 1905W        W18753   0.896  17.569  16.311 -0.0684  0.2559  0.2584
 1906W        W18754  10.626   3.653   3.940 -0.2070  0.1032 -0.0126
 1907W        W18755   3.432  12.056   5.638  0.2188  0.0735 -0.2482
 1908W        W18756   0.180   5.769   0.730 -0.1242  0.0797  0.1584
 1909W        W18757  13.964   7.499  15.757 -0.0492 -0.1239 -0.1436
 1910W        W18758  11.228  10.260  15.527  0.1273  0.1369 -0.1100
 1911W        W18759   9.679   2.360  16.290  0.2378 -0.1542  0.2513
 1912W        W18760  10.453   8.195  16.040  0.1566 -0.1362  0.1198
 1913W        W18761   2.686   9.060   3.098  0.1239  0.0250  0.0284
 1914W        W18762  16.554   7.658  12.210 -0.1953 -0.2237  0.2012
 1915W        W18763   5.504   2.173   1.730 -0.0149  0.1385  0.1758
 1916W        W18764  15.064  12.179  11.295  0.0350 -0.0377 -0.1651
 1917W        W18765   0.037   5.385  15.451 -0.2396 -0.0074 -0.1388
 1918W        W18766   7.773   5.152  15.029  0.1929 -0.1875  0.0646
 1919W        W18767   8.908  12.763   1.417  0.1367 -0.2077 -0.0409
 1920W        W18768  12.978   5.039   0.079 -0.0654  0.0013 -0.0002
 1921W        W18769   3.045   2.506  16.312  0.2691 -0.2958 -0.0193
 1922W        W18770  10.260  17.252   1.138  0.1583  0.2684  0.0837
 1923W        W18771  14.037  13.950   2.165  0.2163 -0.0433 -0.0417
 1924W        W18772   3.532   8.873   0.626  0.1073 -0.0848  0.3085
 1925W        W18773   9.974   8.159  13.679 -0.1288 -0.1905 -0.3205
 1926W        W18774   4.155  16.137  14.361 -0.1309 -0.0134 -0.0760
 1927W        W18775   4.359   7.481  16.061  0.1534 -0.0342  0.0124
 1928W        W18776   3.063   5.461   3.857 -0.1576  0.2615 -0.0929
 1929W        W18777   2.475  11.909  15.526  0.2114 -0.2491  0.0029
 1930W        W18778   1.047   2.390   3.096 -0.1131  0.0492 -0.1735
 1931W        W18779  14.678   6.414  14.528  0.3013  0.1220  0.2877
 1932W        W18780  17.116  15.207  15.667 -0.4221 -0.0533 -0.0740
 1933W        W18781   3.542   1.118  13.306  0.1752 -0.0346 -0.0682
 1934W        W18782   9.317  14.241   3.632 -0.0729 -0.4591 -0.1108
 1935W        W18783  13.911  16.934  14.500 -0.1113  0.0431  0.2771
 1936W        W18784   2.983  14.131  15.727  0.1960 -0.4716  0.0448
 1937W        W18785  11.394   2.381   3.491 -0.0658 -0.0155  0.1884
 1938W        W18786  15.694  13.856   1.663  0.1135  0.0862  0.0725
 1939W        W18787   4.219   2.316  11.901  0.2927  0.2030 -0.0427
 1940W        W18788  10.414  10.005  13.439 -0.0220 -0.2565 -0.1447
 1941W        W18789  12.651  15.455   0.642  0.1368  0.0362  0.0923
 1942W        W18790  11.264  16.449  15.595  0.0064  0.0511  0.0544
 1943W        W18791   4.540   1.111  13.084 -0.4073 -0.0734 -0.0722
 1944W        W18792  13.425   1.956   0.521  0.1035 -0.4190  0.3212
 1945W        W18793   4.010  15.815  12.498  0.0277  0.0964  0.0542
 1946W        W18794  15.583   4.681   1.403  0.0015  0.0385  0.2001
 1947W        W18795   9.266   0.755  14.977  0.2392  0.3532  0.3717
 1948W        W18796  15.408   1.364  13.943  0.3101  0.1380  0.0471
 1949W        W18797   1.794  10.914   2.292 -0.0949 -0.2352  0.2412
 1950W        W18798   9.508   0.076   3.211  0.1226 -0.0807 -0.0715
 1951W        W18799   9.918   7.887  12.735  0.0087 -0.1929 -0.0893
 1952W        W18800   7.752  12.453   4.044  0.2013  0.1029 -0.0796
 1953W        W18801   7.296   9.043  11.881 -0.2347  0.1277 -0.0315
 1954W        W18802  14.454   2.238   1.542  0.1009  0.2147  0.1003
 1955W        W18803   5.681   4.473   1.125 -0.1094  0.0286 -0.1010
 1956W        W18804   6.283  10.985   3.224  0.0345 -0.1079  0.4064
 1957W        W18805   5.082  14.325   1.618 -0.0188  0.0995 -0.1559
 1958W        W18806   6.036   4.437   0.458 -0.1968 -0.0908 -0.0269
 1959W        W18807   2.897  11.887   3.457 -0.0780 -0.1957  0.2678
 1960W        W18808  10.989   9.040  11.991  0.2544 -0.2736  0.3817
 1961W        W18809  14.846   0.589  15.900  0.0168 -0.0419  0.1387
 1962W        W18810  17.684  11.070   0.742 -0.0558  0.0109 -0.4107
 1963W        W18811   0.573  12.108   5.000  0.0212  0.1962 -0.2162
 1964W        W18812   5.579   9.828   3.976 -0.0047  0.1094 -0.0959
 1965W        W18813  15.658   9.536   1.877 -0.0014  0.1282 -0.0940
 1966W        W18814  15.005  14.062  13.360  0.1279  0.0110 -0.0382
 1967W        W18815   6.235   3.510  12.369 -0.1893  0.0402  0.0064
 1968W        W18816  10.169   9.250   3.219 -0.1001  0.0780 -0.1427
 1969W        W18817   7.465  17.188   2.462  0.1537 -0.0136  0.0525
 1970W        W18818  15.421  11.715   4.577 -0.0323  0.0050  0.0566
 1971W        W18819  16.924   0.049  14.560 -0.0664  0.2894 -0.1701
 1972W        W18820   5.999  11.694   2.667  0.2120 -0.0663  0.0176
 1973W        W18821  11.594   3.145  14.743  0.3098 -0.1001 -0.1360
 1974W        W18822  17.232   7.381  16.262 -0.0521 -0.0277  0.2574
 1975W        W18823  12.266   9.018   1.648  0.2862 -0.0175 -0.1292
 1976W        W18824  15.677   9.651  14.794 -0.1472 -0.2983  0.2089
 1977W        W18825  10.100   2.073   1.458  0.0115 -0.1321 -0.0865
 1978W        W18826  17.242   7.800   5.025  0.0101 -0.3501 -0.0553
 1979W        W18827  14.377  14.972  14.715 -0.1818 -0.2037 -0.0831
 1980W        W18828  10.888   7.559   0.682  0.3023 -0.4316 -0.1173
 1981W        W18829   8.579   3.628  11.635 -0.2327 -0.0892  0.4475
 1982W        W18830  14.981   1.934   3.432  0.0712 -0.2281 -0.1162
 1983W        W18831   7.843   5.841  14.121 -0.3506 -0.1222  0.0689
 1984W        W18832   8.469   4.367  15.048  0.0609 -0.3032  0.0578
 1985W        W18833   9.073  16.709  16.010  0.0879  0.0652 -0.0266
 1986W        W18834  15.594  16.789   3.189 -0.0617 -0.0493  0.0359
 1987W        W18835   1.634  14.980   5.702 -0.0823 -0.1892  0.1445
 1988W        W18836   2.650   5.286   4.439  0.3452 -0.2199  0.1255
 1989W        W18837   2.457   2.078   2.380  0.0776 -0.0683  0.3989
 1990W        W18838   5.272   8.917   3.425  0.3487  0.1118 -0.0033
 1991W        W18839   2.532  13.993   2.982 -0.0035  0.0090 -0.1577
 1992W        W18840   2.047   6.638   2.317  0.0203 -0.0295 -0.2219
 1993W        W18841  15.075   5.152   3.523 -0.0336  0.1943  0.2571
 1994W        W18842   4.204  15.277   4.141  0.2625 -0.0472 -0.1040
 1995W        W18843   4.736  12.095  12.355  0.3327  0.1272 -0.0769
 1996W        W18844   5.903  12.597  12.063  0.0476  0.3139  0.0266
 1997W        W18845  17.626  13.108  11.778 -0.2337 -0.0777 -0.1346
 1998W        W18846  11.715   7.862  12.372 -0.1483  0.1065  0.0322
 1999W        W18847   6.008   5.397   2.076  0.1070 -0.1469  0.4090
 2000W        W18848   6.662   5.472  10.826  0.1639 -0.0716 -0.0334
 2001W        W18849   1.336   5.471   4.056  0.5114  0.0574 -0.1096
 2002W        W18850  15.615   2.246   0.612 -0.0662 -0.1269 -0.1141
 2003W        W18851   3.264   1.855  15.371 -0.0668  0.1891  0.3246
 2004W        W18852   6.227   1.717  16.318  0.0472  0.0002  0.1131
 2005W        W18853   4.988  13.111   5.559 -0.1873 -0.1628 -0.1539
 2006W        W18854  14.603   5.599   4.118 -0.1059  0.0026  0.2790
 2007W        W18855  16.698   4.403  15.759  0.1893  0.2855  0.0789
 2008W        W18856   9.654   8.780   1.281  0.2035 -0.0193  0.2020
 2009W        W18857  13.395  12.471  13.365 -0.1005 -0.1101 -0.1467
 2010W        W18858   8.620  10.832  12.145  0.0523 -0.2121  0.0105
 2011W        W18859   4.174   1.004  14.685  0.2697  0.5208 -0.0254
 2012W        W18860  12.598  12.321   5.924 -0.0968 -0.0479 -0.3171
 2013W        W18861  13.093   1.509   2.949 -0.0665 -0.0578  0.0457
 2014W        W18862   5.071   9.770   4.110 -0.1070 -0.2030  0.2817
 2015W        W18863  14.215   1.716  14.275  0.1545 -0.0792  0.1067
 2016W        W18864  14.757  15.065  12.393 -0.1945 -0.0008 -0.1137
 2017W        W18865   5.292   4.890  13.147  0.0093  0.0287  0.0308
 2018W        W18866  14.042   4.543  14.543 -0.0545  0.0206  0.1142
 2019W        W18867  10.691  15.307   5.716  0.2257  0.0570 -0.0401
 2020W        W18868   3.642   2.896   4.040  0.2070  0.1543  0.2298
 2021W        W18869   3.423  16.117   1.481 -0.1220 -0.0919  0.0934
 2022W        W18870   3.771   1.422   0.276 -0.0222 -0.0935  0.2708
 2023W        W18871   8.671   0.649  16.126 -0.0542  0.0979 -0.0928
 2024W        W18872  14.551   5.962  14.667 -0.0080  0.1510 -0.2327
 2025W        W18873   7.251   5.120  15.245 -0.0899 -0.0867  0.2811
 2026W        W18874   6.433  13.935   6.105  0.4182  0.1173 -0.0782
 2027W        W18875   0.586  12.632   0.679 -0.0562 -0.1751  0.0544
 2028W        W18876   2.587   8.010  13.164  0.0193 -0.0495 -0.0839
 2029W        W18877  14.541  15.792   2.396  0.0042  0.0424 -0.1848
 2030W        W18878   5.259   4.702   4.291 -0.1434 -0.0225 -0.2669
 2031W        W18879  10.839  15.778  13.603 -0.2361 -0.1671  0.2746
 2032W        W18880   7.472   3.942   5.349 -0.2154  0.3632 -0.0914
 2033W        W18881  12.219   9.174  11.989  0.0588  0.0225  0.1764
 2034W        W18882   8.781  13.228  16.516 -0.1084  0.0630  0.0083
 2035W        W18883  14.630  11.491   0.896  0.4656  0.2452  0.1568
 2036W        W18884  12.871  12.782  12.480  0.1354 -0.0408  0.1812
 2037W        W18885   5.411   9.260  14.496  0.2974  0.2541 -0.0075
 2038W        W18886   7.955  16.967   4.799  0.1314 -0.1670 -0.2508
 2039W        W18887   3.520  17.216  15.139 -0.0316 -0.2473 -0.1179
 2040W        W18888  11.984  17.094  16.328 -0.1828  0.0377  0.3414
 2041W        W18889  16.630  16.715  15.919  0.0286 -0.2733  0.1185
 2042W        W18890  10.067   9.009   1.569  0.2338  0.3578 -0.0853
 2043W        W18891   8.375  13.455  12.698 -0.2335  0.0655  0.0499
 2044W        W18892  14.541  13.413   5.208 -0.0378  0.1203  0.0618
 2045W        W18893   9.405   6.115  13.167  0.1735  0.0795  0.0422
 2046W        W18894   7.002   5.240  14.553 -0.1471 -0.0347  0.3070
 2047W        W18895   7.093  11.309  16.268 -0.0378  0.1410 -0.1124
 2048W        W18896  15.015   0.683   2.996  0.3284  0.0837 -0.0283
 2049W        W18897   7.570  17.375  15.961  0.0498  0.0793  0.1220
 2050W        W18898   7.102   9.581   0.014 -0.0651  0.1252 -0.1131
 2051W        W18899   5.826  14.837   3.662  0.2467 -0.0613  0.2321
 2052W        W18900  14.416   5.781  12.382 -0.2979 -0.4245 -0.0015
 2053W        W18901   4.656   8.744  14.760  0.2099  0.5144  0.4153
 2054W        W18902   3.585   9.569   3.557 -0.2196  0.3286 -0.1804
 2055W        W18903   7.514  17.653  15.497  0.0904 -0.2348 -0.0594
 2056W        W18904   6.413   1.654  15.108 -0.1626 -0.0663 -0.2057
 2057W        W18905  12.110   5.069  11.703  0.1013 -0.0363 -0.0613
 2058W        W18906   2.972   5.926   3.885  0.3282  0.0059 -0.1492
 2059W        W18907  13.594  11.909   1.040 -0.0936  0.1806  0.2027
 2060W        W18908   8.095  10.149  12.114  0.5573  0.1505  0.0241
 2061W        W18909  13.851  16.533  13.346 -0.1383  0.3507 -0.1149
 2062W        W18910   1.304  16.732   2.614 -0.2883  0.0968 -0.0169
 2063W        W18911   4.249  13.323  11.079  0.3012  0.1801  0.0835
 2064W        W18912   9.425  10.816   5.884  0.1230 -0.2070  0.1272
 2065W        W18913   7.055   8.737   2.292 -0.1981  0.0308 -0.0313
 2066W        W18914  11.392  15.679   5.226 -0.0272  0.0255  0.0859
 2067W        W18915  14.378  11.494   1.281  0.3208 -0.1952 -0.0346
 2068W        W18916   9.292  13.229   0.561  0.0152 -0.0178  0.0971
 2069W        W18917   8.191   0.589   0.692 -0.0521  0.0042  0.0674
 2070W        W18918   5.671   8.596   3.866  0.1233  0.0861  0.0971
 2071W        W18919   0.444  10.551  14.246  0.2606 -0.1816 -0.1203
 2072W        W18920  14.077  11.750   4.437  0.0668  0.1428 -0.1729
 2073W        W18921   5.537  10.189   2.156  0.1608 -0.1349 -0.0043
 2074W        W18922   4.551  13.802   2.795  0.0320  0.0260 -0.2645
 2075W        W18923   1.925   9.044  10.560  0.0592 -0.1746 -0.1293
 2076W        W18924   0.575   1.562  14.290  0.1578  0.0967  0.1101
 2077W        W18925  10.878   8.468  16.243 -0.3266  0.0105  0.2954
 2078W        W18926   9.505  15.259   0.475  0.0339  0.2990 -0.1680
 2079W        W18927   7.168   0.350   0.715  0.0913  0.0922  0.0818
 2080W        W18928  14.113   0.143  12.788 -0.0816  0.2369  0.0778
 2081W        W18929  16.244   4.518  15.408 -0.1289 -0.0613 -0.1141
 2082W        W18930  15.552   2.994  15.033  0.1900  0.0721 -0.0403
 2083W        W18931  17.306   5.584   1.608 -0.1923 -0.0238  0.0193
 2084W        W18932   1.516  15.426   3.937  0.0183  0.1005 -0.0170
 2085W        W18933   9.050  16.693  15.017  0.1171 -0.0532  0.4182
 2086W        W18934  14.353   1.847   0.267  0.3504 -0.3168  0.0994
 2087W        W18935  17.546   7.891   0.816 -0.2245  0.0608  0.1184
 2088W        W18936   0.098   0.880   1.631 -0.3351 -0.1264  0.4012
 2089W        W18937  14.750   1.140  11.584 -0.1376  0.1381 -0.2338
 2090W        W18938  15.766   5.348  12.972 -0.1628  0.1380  0.1468
 2091W        W18939  16.880  11.365  14.319 -0.1188 -0.1290 -0.1367
 2092W        W18940   7.397   5.019  14.091  0.0633  0.1386 -0.0064
 2093W        W18941  16.688   0.548  13.876 -0.1322 -0.1276 -0.1066
 2094W        W18942  10.129   7.384  15.699  0.1710 -0.1411  0.0733
 2095W        W18943  11.233   6.360   0.390 -0.3374 -0.1486  0.3189
 2096W        W18944   1.619   7.686   2.946  0.1106  0.1089 -0.2262
 2097W        W18945   8.857   0.520   4.856  0.2070  0.0654 -0.2922
 2098W        W18946   5.493  15.237  14.031  0.2234 -0.0950 -0.0105
 2099W        W18947   2.126  12.289   4.589 -0.0272 -0.0842 -0.0170
 2100W        W18948   0.345  15.985   1.004 -0.0814 -0.0399  0.0616
 2101W        W18949   0.463   8.551  13.432 -0.1417 -0.3846  0.1157
 2102W        W18950   7.915  15.360  16.515 -0.4649  0.0287  0.0547
 2103W        W18951   0.836  16.374   4.218 -0.0495  0.2413  0.2964
 2104W        W18952   5.193  11.555   4.269 -0.1326 -0.1011 -0.0202
 2105W        W18953  13.822   1.905   0.178 -0.1378  0.3508 -0.2325
 2106W        W18954   0.339  11.984  15.113  0.1134 -0.2039  0.0930
 2107W        W18955   7.077  12.516   3.617  0.1587 -0.2038 -0.1246
 2108W        W18956   8.724  11.008   2.666  0.2758  0.0516  0.0158
 2109W        W18957   2.327   7.222  14.755  0.1150 -0.1869  0.0530
 2110W        W18958  10.996   7.429   4.074  0.3257  0.2162 -0.0713
 2111W        W18959   2.433   9.817  15.091  0.0603  0.1880  0.1478
 2112W        W18960   8.900   9.607   4.611  0.3462  0.0090  0.1525
 2113W        W18961   6.327   0.921  11.152 -0.0222 -0.0216  0.2564
 2114W        W18962   6.532  14.450  11.390  0.2576 -0.1654  0.2051
 2115W        W18963   3.598   6.084  15.271  0.1968 -0.0330 -0.0592
 2116W        W18964  12.737   5.495  14.245  0.0892  0.3239 -0.3244
 2117W        W18965   5.133   4.034  14.492  0.1858 -0.2642 -0.0346
 2118W        W18966   9.063   7.130   1.249  0.1677 -0.0099 -0.0264
 2119W        W18967   9.900  14.381  15.120 -0.0512 -0.1368 -0.4240
 2120W        W18968  10.426  10.295   3.543 -0.0491  0.0076 -0.2109
 2121W        W18969  13.873  11.760  13.133 -0.1129  0.3359  0.2482
 2122W        W18970  10.431   8.670   3.412 -0.0023 -0.0150  0.1304
 2123W        W18971   7.841  13.681   2.714 -0.0720 -0.0415  0.2749
 2124W        W18972   6.866   0.191  16.606 -0.1578 -0.0502  0.2957
 2125W        W18973  10.961   5.529  11.165  0.0255 -0.1539  0.3160
 2126W        W18974  11.498   5.096  14.109  0.0885 -0.2127  0.0344
 2127W        W18975   5.193  12.914   0.220  0.0543 -0.0025 -0.0522
 2128W        W18976   8.741   1.891   3.422  0.1221 -0.0143  0.1094
 2129W        W18977   4.467  13.087   5.488  0.2872  0.0372 -0.1948
 2130W        W18978  11.694  13.111   5.305  0.0794 -0.2120  0.3691
 2131W        W18979   6.767   0.304   0.983  0.1279 -0.0467 -0.2912
 2132W        W18980   3.177   5.113   3.539 -0.3896 -0.0282 -0.0021
 2133W        W18981  16.160   5.195   4.709  0.1051  0.5245  0.5268
 2134W        W18982   2.345  17.364   2.297 -0.2694  0.0873 -0.0623
 2135W        W18983   5.142  13.722  11.213 -0.0211 -0.0292  0.1967
 2136W        W18984   3.846  14.131   1.042  0.0114  0.0838 -0.0202
 2137W        W18985  10.948  16.260   0.485 -0.0850 -0.1822 -0.1590
 2138W        W18986  13.323   3.936  13.441 -0.3053 -0.1007 -0.1407
 2139W        W18987   0.909  17.339   4.875 -0.0838  0.1883  0.0453
 2140W        W18988   7.745  11.883   4.318  0.1689 -0.1705  0.2582
 2141W        W18989   3.257   8.131   0.161 -0.2569  0.1393  0.0920
 2142W        W18990   8.924  14.469   2.336 -0.1168  0.0325  0.0391
 2143W        W18991  12.105  12.045  15.377 -0.0977 -0.0633 -0.1932
 2144W        W18992   4.674   9.973  16.329  0.1859  0.0905  0.1422
 2145W        W18993  14.128   5.994  13.368 -0.1803 -0.2542  0.2137
 2146W        W18994  13.226   5.727  13.319 -0.1590  0.0505 -0.0088
 2147W        W18995  10.700  14.484   2.620 -0.2398  0.0484 -0.3698
 2148W        W18996   6.529  17.015  15.097 -0.0138 -0.0149 -0.1646
 2149W        W18997  14.153   3.251   0.707  0.1692 -0.4400 -0.2343
 2150W        W18998  14.841  11.999  13.196  0.1202  0.0190 -0.0519
 2151W        W18999   4.525   4.762  14.954  0.0983  0.0702  0.0360
 2152W        W19000  12.161  14.672   2.306  0.0044 -0.0510 -0.0259
 2153W        W19001   7.659  17.471  14.535 -0.0616 -0.0843  0.1864
 2154W        W19002   8.444   9.758   4.791 -0.2421 -0.0889 -0.0837
 2155W        W19003  13.966  14.032  12.541 -0.1023  0.0319 -0.1896
 2156W        W19004   7.223   5.216   4.345 -0.2478  0.2847 -0.1272
 2157W        W19005  11.569   3.796   0.281  0.2918  0.0357 -0.0978
 2158W        W19006   4.394  16.277   2.638  0.1111  0.0144  0.2515
 2159W        W19007  14.660   3.262   2.751  0.1270  0.1536 -0.1611
 2160W        W19008  15.864  13.119  15.545  0.1501  0.0262 -0.0058
 2161W        W19009  12.391   4.968   3.775  0.0765  0.1143  0.0614
 2162W        W19010  12.716  13.342   1.696  0.1427 -0.0624  0.1833
 2163W        W19011   2.822   0.923   4.733 -0.0261 -0.4192  0.0556
 2164W        W19012   4.183  10.613  15.244  0.0136  0.0048  0.2207
 2165W        W19013  14.983   4.658   0.288  0.0497  0.1017 -0.1903
 2166W        W19014   4.067  14.270  16.067  0.0437 -0.0786 -0.0906
 2167W        W19015  10.928  11.092   3.294  0.0396  0.1692 -0.0178
 2168W        W19016   2.672  11.230  12.397  0.2131  0.0447 -0.2439
 2169W        W19017   2.573  17.332   5.101  0.1577  0.1188 -0.2835
 2170W        W19018   4.359   9.520  16.568  0.0151 -0.1955 -0.0302
 2171W        W19019   4.776  10.741   3.215  0.0001 -0.4199  0.1080
 2172W        W19020   3.124   0.650   4.381 -0.0026 -0.0093  0.0255
 2173W        W19021  15.721   7.955   1.114  0.3091  0.0063 -0.2511
 2174W        W19022  11.534  16.115  11.420  0.0110 -0.0483 -0.0256
 2175W        W19023  16.158  13.909   1.963 -0.0628  0.2123  0.1852
 2176W        W19024  17.368  12.619   0.703 -0.0648  0.2083 -0.5781
 2177W        W19025   0.584  13.086  14.253 -0.1592  0.1634  0.3354
 2178W        W19026   8.473  14.843   0.371 -0.1811  0.3639 -0.0020
 2179W        W19027  15.533  11.437  13.114 -0.5424 -0.0140  0.2493
 2180W        W19028   1.178   1.841  15.676  0.2737  0.2940 -0.0676
 2181W        W19029  15.041  17.385   2.420  0.0074 -0.3566 -0.0084
 2182W        W19030   7.561  12.988  11.928 -0.0289  0.1978 -0.1112
 2183W        W19031   7.361   2.120  11.625  0.2032  0.0189  0.0324
 2184W        W19032   2.876  13.451   0.460  0.0970  0.1651  0.0355
 2185W        W19033  10.418   3.647  14.617 -0.3204  0.0502  0.1992
 2186W        W19034   7.741  11.874   2.106  0.0982 -0.1870 -0.2091
 2187W        W19035  11.817  13.172  12.966  0.2233 -0.0149  0.0769
 2188W        W19036   0.978   7.560  13.424 -0.0291  0.0092 -0.0220
 2189W        W19037   7.515   0.556   3.051 -0.1574 -0.1431 -0.2485
 2190W        W19038   6.892   7.555  15.312 -0.2472  0.3845  0.1331
 2191W        W19039  16.614   7.679  13.701  0.1155  0.3876 -0.0481
 2192W        W19040  15.598  12.583   0.035  0.2631 -0.0784  0.2196
 2193W        W19041  11.553   6.561   3.474  0.0815 -0.0193  0.0349
 2194W        W19042   3.523   6.818   3.931  0.0493 -0.1476 -0.0433
 2195W        W19043  13.914  15.404   4.489 -0.0122 -0.0670 -0.2986
 2196W        W19044   3.338   0.690   3.942 -0.0923  0.0656 -0.1360
 2197W        W19045   0.950   2.334   5.072 -0.3262 -0.3854  0.3652
 2198W        W19046  15.951  17.618  13.089  0.0820  0.0357 -0.0459
 2199W        W19047   3.432  16.894   5.144 -0.2054 -0.0368  0.2332
 2200W        W19048  12.233   2.797  12.446 -0.0608 -0.1644  0.0716
 2201W        W19049  10.510   0.982  12.092 -0.0724  0.1934 -0.2523
 2202W        W19050  10.714  15.159  12.768  0.3254  0.0099  0.1934
 2203W        W19051   8.572  17.270   5.386  0.1752 -0.2218  0.0211
 2204W        W19052  16.202   7.046  16.333 -0.0137 -0.2226  0.2404
 2205W        W19053   3.863  14.536  14.410  0.0240  0.1325 -0.0876
 2206W        W19054  11.995   1.992  12.585  0.3951 -0.0151  0.0273
 2207W        W19055   1.414  14.811  11.272  0.2002 -0.2571  0.1977
 2208W        W19056   3.052  13.925   1.772  0.1145  0.0022  0.2584
 2209W        W19057  11.479   8.730  11.983  0.3945 -0.2702 -0.0899
 2210W        W19058   4.308  14.909  11.885 -0.0669 -0.0829  0.0101
 2211W        W19059   8.250   9.884   5.482 -0.0023 -0.0419  0.2061
 2212W        W19060   1.694   6.863   4.074  0.2025  0.2224 -0.0135
 2213W        W19061  14.716  10.166  15.699 -0.2518 -0.1448 -0.1840
 2214W        W19062  15.141  13.232   3.232  0.3146  0.0503  0.3034
 2215W        W19063   0.728   1.596  15.273 -0.0085  0.0749 -0.1872
 2216W        W19064  16.289   4.272  14.875  0.2436  0.3655  0.3538
 2217W        W19065   1.732   1.663   0.261 -0.0254 -0.1117  0.1432
 2218W        W19066  16.051  11.153  11.810  0.2751  0.3688  0.1204
 2219W        W19067   7.523  11.162   3.780 -0.3181 -0.1558  0.5449
 2220W        W19068   2.127   0.334   2.298  0.1012 -0.2146 -0.0075
 2221W        W19069  13.945   3.333  12.059 -0.0981 -0.0620 -0.1656
 2222W        W19070  11.210   6.365  13.552  0.1048  0.0130 -0.1292
 2223W        W19071   9.980   5.324  15.104 -0.1301 -0.0137 -0.0367
 2224W        W19072   0.415  15.379  16.242 -0.2179  0.1725  0.0331
 2225W        W19073   4.445  10.327   1.826 -0.2144 -0.0526 -0.1312
 2226W        W19074   5.372  14.869   0.552 -0.1795 -0.1097 -0.4208
 2227W        W19075   0.891  11.507  13.009  0.3659  0.2139 -0.5109
 2228W        W19076  17.402   6.055   1.367 -0.1952 -0.1695  0.0713
 2229W        W19077   9.614  10.696  15.378  0.1025 -0.1651 -0.0944
 2230W        W19078   6.550  14.382  16.470  0.1028 -0.2538 -0.2564
 2231W        W19079   3.173  10.500  15.405 -0.1205  0.0009 -0.1286
 2232W        W19080   1.778  16.200   0.933 -0.0578 -0.1869 -0.1766
 2233W        W19081   7.892   2.378  14.026 -0.0777  0.3754 -0.1064
 2234W        W19082   4.750   6.007   4.059  0.0821  0.1200 -0.2751
 2235W        W19083   3.845  15.067   4.463  0.3026 -0.2772  0.1579
 2236W        W19084   3.513   1.733  16.636 -0.1355 -0.2321 -0.1333
 2237W        W19085   8.307   0.882   1.587  0.0382 -0.2837 -0.0588
 2238W        W19086  11.441  15.126   0.658 -0.0040  0.0997  0.1266
 2239W        W19087   4.584   5.722  13.910 -0.1168 -0.3550  0.0216
 2240W        W19088  17.571   5.309  16.016 -0.2707  0.2025 -0.1836
 2241W        W19089   7.231   7.119   1.482 -0.1658  0.1819 -0.1147
 2242W        W19090  14.812  16.325   3.261 -0.0650  0.2824 -0.0124
 2243W        W19091   3.270   6.214  11.941  0.4357 -0.0477 -0.1779
 2244W        W19092   8.306  11.789  11.914  0.2291 -0.2412 -0.1037
 2245W        W19093   8.091   1.651  13.536  0.4123 -0.0455 -0.2647
 2246W        W19094  15.975   6.050  15.077 -0.0328  0.1263  0.1739
 2247W        W19095   0.429   5.676   5.645 -0.0334  0.1760 -0.1192
 2248W        W19096   8.051  15.296   1.520  0.2988 -0.1000  0.0139
 2249W        W19097  15.560   0.242  13.151 -0.1874 -0.1542  0.2721
 2250W        W19098  17.296   0.368   0.023  0.2595 -0.1310 -0.2233
 2251W        W19099  10.582  12.811  14.279 -0.0404  0.0267 -0.0691
 2252W        W19100   0.880  15.668  14.602  0.0486  0.1095 -0.2855
 2253W        W19101  10.143  11.247   2.211 -0.0020  0.1514 -0.4142
 2254W        W19102  14.947  13.688  13.704  0.1065  0.0703 -0.0213
 2255W        W19103  12.491  12.420  14.284  0.0794 -0.1949  0.1271
 2256W        W19104  11.478   0.585  16.402  0.1667  0.1342  0.0254
 2257W        W19105   1.093   1.755  12.383  0.0528 -0.1102  0.2518
 2258W        W19106   6.519  13.906  12.732 -0.0489 -0.1085  0.0300
 2259W        W19107   2.605   7.369  15.138  0.0014  0.0891 -0.4243
 2260W        W19108  13.500   3.622  16.649  0.2397 -0.1206  0.1684
 2261W        W19109  15.589   8.545  15.341 -0.2195  0.0350  0.0768
 2262W        W19110  16.231   7.192  11.496  0.0617 -0.0534 -0.1983
 2263W        W19111   6.914  17.092  13.890 -0.1095  0.1915  0.0612
 2264W        W19112   3.950   6.521   3.825 -0.1862  0.1447 -0.0737
 2265W        W19113  17.349   9.391   2.858  0.0088 -0.2479  0.1363
 2266W        W19114  17.066   8.797  14.260 -0.0763  0.0957  0.1161
 2267W        W19115  11.717   1.153   2.983 -0.0044  0.1328  0.1246
 2268W        W19116   2.829  14.932  13.425 -0.1289  0.3174 -0.2102
 2269W        W19117   5.324   4.216   4.299 -0.0090 -0.0716  0.3424
 2270W        W19118  14.429   7.510   1.475  0.5343  0.0070 -0.0713
 2271W        W19119  10.186  12.801  14.652 -0.0635  0.3188 -0.0455
 2272W        W19120   7.875   9.417  15.215 -0.1146 -0.1561 -0.1039
 2273W        W19121   0.249   6.621   1.018 -0.0052 -0.2354  0.1234
 2274W        W19122  11.899   1.661   3.975 -0.1007 -0.2368 -0.0421
 2275W        W19123  13.693  15.776  16.215  0.0992  0.1426 -0.0546
 2276W        W19124   3.961  12.396   0.302  0.1532  0.1501  0.2111
 2277W        W19125   2.707   2.350  12.541  0.0141  0.4053  0.0074
 2278W        W19126   9.100   9.276  13.370  0.1511 -0.1315  0.0430
 2279W        W19127  14.368  11.997  12.473  0.1085  0.1552 -0.0281
 2280W        W19128  12.659  12.400   0.272  0.4589 -0.0642 -0.0654
 2281W        W19129  11.892   0.903   0.146  0.2364 -0.0184 -0.0687
 2282W        W19130  14.651   0.533  14.669  0.0122  0.0834  0.1056
 2283W        W19131  13.236   4.411  12.991 -0.0864  0.0793  0.0995
 2284W        W19132   7.808  10.021   3.943  0.0731 -0.2270  0.1708
 2285W        W19133   2.615   4.755   0.327 -0.1239 -0.0399 -0.1340
 2286W        W19134  17.312   6.591  15.646  0.2036 -0.1440 -0.2541
 2287W        W19135  14.440   7.943   0.598  0.0070  0.1034 -0.0516
 2288W        W19136  15.136   6.402  14.686 -0.0618  0.0981 -0.1220
 2289W        W19137  10.325  16.242   2.586  0.3506 -0.0896  0.1538
 2290W        W19138  17.204  12.531  13.475 -0.1105  0.3075  0.2818
 2291W        W19139   0.388  17.374  14.417 -0.1855 -0.1813 -0.1746
 2292W        W19140   8.530  13.499   1.216  0.1474 -0.1246 -0.0600
 2293W        W19141   6.692   0.356   4.130 -0.1793  0.0731  0.3435
 2294W        W19142   6.700   7.542  11.260  0.1486  0.3639  0.0544
 2295W        W19143  15.634   5.556  12.281  0.2395  0.1317  0.1115
 2296W        W19144   5.284   6.894   1.068 -0.0416  0.0920  0.0687
 2297W        W19145   7.477   5.677  12.378  0.1804  0.0648  0.1496
 2298W        W19146   5.195  15.429   4.161  0.0768  0.0685  0.3327
 2299W        W19147   7.991  10.319   1.319 -0.0204  0.0289  0.0361
 2300W        W19148   1.883   7.811  14.924 -0.0592  0.2345 -0.2500
 2301W        W19149  11.056  10.285  12.645  0.0292  0.1263  0.0358
 2302W        W19150   6.756  13.099  11.956  0.0917 -0.3534  0.1337
 2303W        W19151   4.638  16.826  14.558  0.2206 -0.0437 -0.0710
 2304W        W19152  13.360   9.191  12.170 -0.0374 -0.2761 -0.0638
 2305W        W19153   1.089   7.840  12.560  0.0037 -0.3946 -0.1877
 2306W        W19154   4.295  14.415   4.524 -0.1209 -0.0887  0.2346
 2307W        W19155  12.172   4.814  15.809 -0.1376 -0.0225  0.0653
 2308W        W19156   8.292   4.201   4.968 -0.3379 -0.0975 -0.0479
 2309W        W19157  14.431   1.434   4.504 -0.0614  0.0530 -0.0847
 2310W        W19158  12.101   1.650  11.692  0.3066  0.2198  0.1667
 2311W        W19159   0.159   3.315   4.369 -0.0214 -0.3769 -0.0663
 2312W        W19160   1.069  14.991   0.269  0.0420  0.0342 -0.0146
 2313W        W19161   8.615   8.030   1.349 -0.0045  0.0371 -0.0203
 2314W        W19162   2.479  14.240   1.609  0.0433  0.0315 -0.1522
 2315W        W19163   8.273   3.659  15.537  0.2382  0.2814 -0.2532
 2316W        W19164   5.928   3.741  12.884 -0.1193 -0.0197  0.1138
 2317W        W19165   9.195  16.766  14.121  0.2355 -0.2907 -0.2402
 2318W        W19166   2.093   5.234   2.380  0.0580 -0.0492 -0.0111
 2319W        W19167  10.075   7.727  11.940 -0.0982  0.1275 -0.3254
 2320W        W19168  10.643  12.307   3.563  0.0881  0.2866  0.0015
 2321W        W19169   3.367   9.457   1.762  0.0375  0.3884 -0.0153
 2322W        W19170   0.154   4.117   1.281 -0.0051  0.0184  0.0093
 2323W        W19171  12.549  10.728   2.330 -0.1854  0.1312 -0.2377
 2324W        W19172   4.210   4.350   5.436  0.0803 -0.0422 -0.1136
 2325W        W19173  10.466   6.196  15.573  0.1911 -0.1267  0.0735
 2326W        W19174   8.305  13.172   2.071 -0.3110  0.2166  0.0407
 2327W        W19175   7.957  13.911  14.245  0.2157 -0.1937 -0.1554
 2328W        W19176   2.818  14.484  12.163 -0.1721  0.1518  0.0964
 2329W        W19177  15.821   7.431  15.153 -0.2642  0.0427  0.3025
 2330W        W19178  12.663   9.408   3.915 -0.1874 -0.0145 -0.1794
 2331W        W19179   9.260   4.661   0.640 -0.0962 -0.2579  0.0344
 2332W        W19180  14.071   1.161   3.721  0.0146  0.1735  0.0332
 2333W        W19181  15.476   6.371  13.849 -0.0334  0.0333 -0.1148
 2334W        W19182   4.575   3.251  15.027 -0.0066  0.1986 -0.0548
 2335W        W19183   6.946   7.671  12.662 -0.1312 -0.2709  0.0456
 2336W        W19184   1.318   8.387  13.058  0.0266 -0.0703 -0.2177
 2337W        W19185   9.310   6.232   1.510  0.2186 -0.1380  0.0723
 2338W        W19186   8.983   9.699  15.166  0.0211  0.1271  0.1018
 2339W        W19187  17.065  16.851  15.057  0.1342 -0.2619 -0.1849
 2340W        W19188  10.319  10.418   2.618 -0.1188  0.3078 -0.0782
 2341W        W19189  15.299   5.355  15.949  0.1582 -0.2331 -0.0529
 2342W        W19190   3.856   2.988   3.074  0.2062 -0.1304  0.0328
 2343W        W19191   3.046   9.791  12.535 -0.1624  0.1116 -0.3677
 2344W        W19192   8.144   7.284  16.189  0.2619 -0.4493  0.0086
 2345W        W19193   1.886   5.693  16.069  0.0481 -0.0117  0.0192
 2346W        W19194  16.241  10.316  13.439 -0.0436 -0.0273  0.2157
 2347W        W19195   1.697  16.703   0.779 -0.0968 -0.1903  0.1337
 2348W        W19196   7.348  15.300   4.674 -0.3032  0.0198 -0.1994
 2349W        W19197   9.191   5.381   2.064 -0.1084 -0.0662  0.1157
 2350W        W19198  15.378  11.335   3.876  0.1216 -0.0043 -0.1102
 2351W        W19199   0.871  17.060  12.468  0.1287  0.0601 -0.2294
 2352W        W19200   7.812   9.464   0.887  0.1255  0.1720  0.0569
 2353W        W19201  12.068  11.273  11.781  0.0095 -0.0614  0.0079
 2354W        W19202   8.257   6.649  15.561 -0.0913 -0.1077  0.3072
 2355W        W19203  16.457   5.371  12.822  0.2354 -0.1425 -0.2718
 2356W        W19204   3.351   0.173   0.136 -0.3261  0.0268 -0.1672
 2357W        W19205   9.789   4.578  11.391  0.2605 -0.1426  0.4166
 2358W        W19206   8.957   3.293  12.430  0.0608  0.1674 -0.1727
 2359W        W19207   3.736  10.044  11.838 -0.1769  0.2464 -0.0737
 2360W        W19208   0.862  16.840   4.004 -0.2537  0.1025 -0.0995
 2361W        W19209   1.481   0.323   1.422  0.2071 -0.1285 -0.0732
 2362W        W19210  17.015   7.665  11.272  0.0125  0.1283  0.0320
 2363W        W19211   9.464   0.538   3.053 -0.3936  0.1876  0.1068
 2364W        W19212   3.102   2.143   3.019  0.0788 -0.1049 -0.3431
 2365W        W19213  12.063  13.258   4.783 -0.2064 -0.2285  0.0923
 2366W        W19214  14.853   2.513  13.849 -0.0579 -0.2144  0.0833
 2367W        W19215   8.263  13.411  12.131 -0.0522  0.0359  0.2943
 2368W        W19216   4.069   8.616  13.167  0.0931 -0.0726 -0.0656
 2369W        W19217   0.563  14.674   0.989 -0.1499 -0.0535  0.3232
 2370W        W19218  11.537  14.040   0.031  0.1207  0.0827 -0.0117
 2371W        W19219   9.367   3.517   0.382 -0.0171 -0.1633 -0.0430
 2372W        W19220   8.904   4.443  16.599 -0.3873 -0.0441 -0.2100
 2373W        W19221  16.080  14.334  12.505  0.4636 -0.1565  0.0525
 2374W        W19222   7.391  16.867   0.790 -0.1616 -0.0305  0.0785
 2375W        W19223  14.539  11.913  15.371 -0.2029  0.0636 -0.0011
 2376W        W19224   4.445   4.230  16.525  0.2017 -0.2503 -0.2954
 2377W        W19225  17.066  13.615   5.639  0.0821  0.0779  0.0930
 2378W        W19226  14.498   6.452   2.977  0.0178 -0.1305  0.3177
 2379W        W19227   6.553  10.410  16.464 -0.0377  0.1074  0.1284
 2380W        W19228  11.853   4.196  11.951 -0.0329  0.2314 -0.3307
 2381W        W19229  15.504   0.448  14.017  0.3854 -0.3322  0.0671
 2382W        W19230  15.622   9.686  11.627 -0.0586 -0.2148  0.3041
 2383W        W19231   1.191  17.273   1.178  0.1000  0.0081 -0.1154
 2384W        W19232   0.407  16.149   0.053 -0.1164  0.2185 -0.2175
 2385W        W19233   9.894   6.203   1.619  0.0874  0.1398  0.2281
 2386W        W19234  16.630  14.460   6.024 -0.3120 -0.1113  0.0355
 2387W        W19235   2.116  10.248  14.348 -0.0137  0.1254 -0.2250
 2388W        W19236   9.765   1.521  14.049  0.0021 -0.1480 -0.1126
 2389W        W19237   4.495  15.995   3.346 -0.0995 -0.1502 -0.0650
 2390W        W19238  13.428   7.688   5.130 -0.2666 -0.2211  0.0462
 2391W        W19239   7.148   4.584   3.327  0.0938  0.3504  0.0655
 2392W        W19240   7.837   9.154  11.915  0.0092 -0.1755  0.1392
 2393W        W19241   9.522   8.018   4.148 -0.2341  0.1327 -0.2503
 2394W        W19242   6.880  15.628   5.725  0.1591 -0.0201 -0.0606
 2395W        W19243   4.717   4.006  13.535  0.4580  0.0802 -0.1380
 2396W        W19244   2.111  12.586  13.313 -0.0879  0.0224 -0.0642
 2397W        W19245   7.255   8.167   3.021  0.2119  0.1272 -0.1827
 2398W        W19246  11.248   1.526  12.590 -0.5422 -0.0210  0.1747
 2399W        W19247  12.403  11.735  13.405  0.1513  0.1440  0.2531
 2400W        W19248  17.046  14.689  15.918  0.0461  0.0184  0.1205
 2401W        W19249   8.134   8.991   3.396 -0.0130  0.3149 -0.1743
 2402W        W19250   9.318  12.556  16.468 -0.0517  0.0050 -0.4713
 2403W        W19251   0.901  13.551  15.999  0.0153 -0.0269 -0.2374
 2404W        W19252  10.406  12.267  14.600 -0.3377 -0.2256 -0.4394
 2405W        W19253  12.385   4.432   4.548 -0.0056 -0.1095 -0.0304
 2406W        W19254   7.499  10.229   3.599  0.0701  0.1789 -0.0091
 2407W        W19255   4.485  14.936  16.620 -0.2277 -0.1341 -0.0750
 2408W        W19256  13.814   6.663   4.155  0.2557 -0.0675  0.0188
 2409W        W19257   0.384   8.602   1.623 -0.1712 -0.2943 -0.1676
 2410W        W19258   4.548  12.648   2.165 -0.3069  0.1448  0.1101
 2411W        W19259   1.105  15.723   3.835  0.1994 -0.0059 -0.2235
 2412W        W19260   3.059  15.080  16.586 -0.0916  0.2113 -0.0750
 2413W        W19261   8.917   0.491   3.127  0.1427 -0.0218 -0.1829
 2414W        W19262   4.878   9.592  13.943 -0.0592  0.0259 -0.1545
 2415W        W19263  10.541   1.364  14.357  0.1149  0.1062 -0.1290
 2416W        W19264  11.760  10.486  16.661 -0.1214 -0.1884  0.2691
 2417W        W19265   2.015   9.503   1.817  0.1781 -0.2669 -0.1150
 2418W        W19266  14.170  15.308  13.926  0.1971  0.1941  0.1662
 2419W        W19267   4.028   8.846   3.273  0.0031 -0.1114  0.1713
 2420W        W19268  16.719   8.266  11.928  0.2154 -0.0890 -0.1509
 2421W        W19269   3.943   2.098  13.985 -0.1444 -0.2458  0.0827
 2422W        W19270   8.613   4.122   1.841  0.0155  0.0259  0.1212
 2423W        W19271   6.781  17.252  12.681 -0.0785  0.1330 -0.0211
 2424W        W19272   6.272  16.609  16.526 -0.1468 -0.1020 -0.2053
 2425W        W19273  12.907  16.943   3.825  0.0690 -0.1856 -0.1966
 2426W        W19274   3.303   4.725  12.568  0.1296  0.2218 -0.0708
 2427W        W19275   7.529   6.079  13.746  0.0283  0.1809 -0.2581
 2428W        W19276  12.031  14.287   4.102 -0.0583 -0.1269  0.1145
 2429W        W19277  17.596   6.273   0.917 -0.1193 -0.1421 -0.1809
 2430W        W19278  16.243   0.800  12.981  0.1151 -0.0298  0.1620
 2431W        W19279  10.927   6.484   3.153 -0.2053 -0.2719  0.2872
 2432W        W19280   7.899   3.276   4.550  0.0919  0.5064 -0.0684
 2433W        W19281  10.718   3.774   1.255 -0.1556 -0.1789 -0.0367
 2434W        W19282  16.215   1.572   1.320 -0.1259  0.0428 -0.1402
 2435W        W19283   9.300   9.045   0.248  0.0714  0.0440 -0.2716
 2436W        W19284   7.426   6.442  11.412 -0.0151 -0.0222  0.4300
 2437W        W19285   7.766  10.770   0.647  0.2164  0.1340 -0.0816
 2438W        W19286  14.185  15.043   5.292 -0.0856 -0.1638  0.0830
 2439W        W19287  15.558  11.896  13.232  0.0950  0.1198 -0.3417
 2440W        W19288   8.544   8.438  15.872  0.0141  0.5333  0.1226
 2441W        W19289   1.827  16.632  12.447 -0.0023  0.0120  0.2973
 2442W        W19290   0.777   6.499  16.442  0.2701  0.2274  0.2199
 2443W        W19291   1.772  10.847   5.135  0.0500  0.0295 -0.2327
 2444W        W19292  12.756   7.209  15.479 -0.3261 -0.0483 -0.1603
 2445W        W19293   8.424  15.388   4.699  0.3798 -0.1471  0.1497
 2446W        W19294   5.762  16.074  15.659 -0.0938  0.0994 -0.0273
 2447W        W19295   8.988  14.749   1.212  0.2223 -0.2268 -0.1475
 2448W        W19296   5.530   5.625  16.090 -0.0806 -0.0150 -0.0714
 2449W        W19297   7.189  12.583  12.663  0.1418 -0.0336 -0.0728
 2450W        W19298   6.427  14.407  12.824  0.4284  0.0545 -0.0590
 2451W        W19299   9.075  11.422  13.208 -0.0450  0.0255 -0.3827
 2452W        W19300   2.666  12.820   2.442 -0.0767 -0.1612 -0.1659
 2453W        W19301  17.448   7.570  14.505 -0.0732  0.0628 -0.2235
 2454W        W19302   8.191   0.658  13.159 -0.0228  0.3876 -0.1389
 2455W        W19303   8.559  13.239  15.265  0.0389 -0.0850 -0.0363
 2456W        W19304   9.729  13.952   3.846  0.2762 -0.0485 -0.0255
 2457W        W19305   6.931   4.701  13.267 -0.0361 -0.0733 -0.0333
 2458W        W19306  14.697  13.206  14.657 -0.0089  0.0113 -0.1247
 2459W        W19307  15.014  14.566  13.652  0.3106  0.1556  0.0116
 2460W        W19308   1.924   4.312   3.870 -0.0089 -0.2814 -0.1963
 2461W        W19309  10.628  17.521  13.329 -0.0462 -0.0454  0.1619
 2462W        W19310  13.861   2.721   2.365  0.2087  0.0640  0.0832
 2463W        W19311   1.936   9.491  12.422 -0.1065 -0.0841 -0.0492
 2464W        W19312  12.624  14.510  12.101  0.2387  0.0083  0.2037
 2465W        W19313   6.352   1.726   6.036  0.0247 -0.0257 -0.0747
 2466W        W19314   1.213   5.014   4.815 -0.1082 -0.0768 -0.1846
 2467W        W19315   5.577   9.119   0.033  0.0331 -0.2476 -0.2087
 2468W        W19316  11.767  15.894   0.620 -0.0002  0.0430  0.0110
 2469W        W19317  16.106  10.876  13.275  0.1129 -0.0491 -0.1862
 2470W        W19318   6.944   3.980   0.223 -0.0221  0.0255 -0.2947
 2471W        W19319  14.624  11.303  13.201  0.2058  0.1253 -0.0770
 2472W        W19320   2.765  16.774   2.209 -0.0161  0.2928 -0.1052
 2473W        W19321   0.985   7.565  15.103  0.2395 -0.1432  0.1103
 2474W        W19322   5.852   4.602   3.411  0.2621  0.2850  0.0763
 2475W        W19323   9.918   1.660   1.677  0.0698 -0.0126  0.0805
 2476W        W19324   4.164  10.541  14.337 -0.1482 -0.2303 -0.2083
 2477W        W19325   2.270  15.392   1.982 -0.0148 -0.0299 -0.2906
 2478W        W19326   4.609   4.441   0.989 -0.2657 -0.1557  0.0932
 2479W        W19327  14.549  16.568  11.505  0.0434  0.1813 -0.0876
 2480W        W19328   5.979   8.603   0.897 -0.0362 -0.0454  0.0322
 2481W        W19329  12.083   4.662   3.454  0.0996 -0.0535 -0.0327
 2482W        W19330  14.367  15.219  13.379  0.0477 -0.1876 -0.0227
 2483W        W19331   5.250   0.572   1.796 -0.0456 -0.1651 -0.0178
 2484W        W19332  14.527  16.032   1.039  0.0867 -0.0543 -0.0012
 2485W        W19333  17.490  10.684  13.498  0.2044 -0.2330 -0.3019
 2486W        W19334  15.382  10.767  13.977 -0.1887  0.1660 -0.1930
 2487W        W19335   7.028   4.483   3.853 -0.0483  0.2683 -0.2530
 2488W        W19336   1.357   2.546   0.585 -0.2742  0.1220  0.2446
 2489W        W19337  17.382   3.845   4.928  0.0891 -0.1882 -0.0639
 2490W        W19338  12.817   0.237   0.946  0.0783 -0.0458 -0.1138
 2491W        W19339  10.185   5.010  10.176  0.2906 -0.2029  0.2069
 2492W        W19340  14.758   3.741   4.233  0.1019  0.1144 -0.1808
 2493W        W19341  11.180  10.327  14.351  0.0141 -0.1171  0.0279
 2494W        W19342  12.960   0.773  13.358  0.1903 -0.0783  0.2030
 2495W        W19343   8.411  11.008  11.219  0.1735  0.0042  0.0852
 2496W        W19344  16.280  13.920  14.371  0.0558 -0.1455  0.4104
 2497W        W19345   6.865   5.578   0.266 -0.2843 -0.0601 -0.1430
 2498W        W19346  16.061   3.213  12.321 -0.0738 -0.0277 -0.1779
 2499W        W19347  12.866   4.078  12.691 -0.1617 -0.1997 -0.0542
 2500W        W19348  16.106   1.830  11.675  0.0485  0.0014  0.0763
 2501W        W19349   5.750  10.726   4.578  0.3415  0.0555  0.1713
 2502W        W19350  15.173   5.385  11.602  0.0203 -0.2014 -0.0676
 2503W        W19351  13.456   9.364   3.324 -0.0740 -0.2997  0.0308
 2504W        W19352  10.988  12.088  16.628  0.0574  0.4782 -0.0926
 2505W        W19353  12.597   5.470  16.070  0.0708 -0.0986 -0.0174
 2506W        W19354  13.444  17.406  14.191 -0.1073  0.1474 -0.3195
 2507W        W19355  13.534   4.872   1.379 -0.1880 -0.0795 -0.1992
 2508W        W19356   0.185   1.193  14.323 -0.0449  0.0209 -0.0898
 2509W        W19357  14.529  13.538   0.119 -0.1358 -0.0903  0.1205
 2510W        W19358  15.334   7.651   4.715  0.0307 -0.3077 -0.3013
 2511W        W19359   5.896   9.685   2.344 -0.1771 -0.2842  0.0808
 2512W        W19360   5.223   7.388  12.466  0.1126  0.0432 -0.2615
 2513W        W19361   5.481   2.308  16.520  0.3555 -0.0072 -0.1536
 2514W        W19362  13.398   6.347  13.879  0.0881  0.1357 -0.0705
 2515W        W19363   9.155   3.712   0.899 -0.2412 -0.0092 -0.0979
 2516W        W19364   0.265  16.181   3.338 -0.0956  0.1767  0.1707
 2517W        W19365   5.426   1.640   0.583  0.0467  0.0067 -0.0750
 2518W        W19366  17.268  10.092  14.109 -0.1828  0.0501  0.1701
 2519W        W19367  16.919   3.374  13.828 -0.0384 -0.0481  0.4930
 2520W        W19368  15.421   9.947   4.014  0.2577 -0.2367 -0.0987
 2521W        W19369   3.289   0.423   4.817 -0.0613  0.0131 -0.0825
 2522W        W19370   7.121  15.824  14.564 -0.0725 -0.1898 -0.0049
 2523W        W19371   9.278   1.677  11.888  0.0913 -0.0068  0.0714
 2524W        W19372  16.109  12.330   2.458 -0.1514 -0.0437  0.1174
 2525W        W19373  17.280   4.334  12.476  0.2897 -0.0571  0.0549
 2526W        W19374  11.457  10.294   3.764  0.4097  0.0743  0.0467
 2527W        W19375   1.191  14.684  12.220  0.0829  0.1352  0.0302
 2528W        W19376   4.181  10.088   6.253  0.2010 -0.0261 -0.1681
 2529W        W19377  15.977  16.151  13.913  0.1214 -0.2482  0.0043
 2530W        W19378   9.351   6.691   1.320 -0.2559  0.2496  0.0615
 2531W        W19379   3.099  11.686   1.454 -0.0648  0.1908 -0.2845
 2532W        W19380  17.378  13.380   4.323  0.2637  0.0589 -0.0951
 2533W        W19381  12.162  13.824  14.895 -0.1256  0.0717 -0.2994
 2534W        W19382  10.413   8.353   1.092 -0.1280  0.1730  0.0822
 2535W        W19383  16.000   9.815  11.326 -0.0230  0.0634 -0.0710
 2536W        W19384   7.365  13.496   5.319 -0.1146  0.0752 -0.0719
 2537W        W19385  14.491   0.554  12.749  0.0874  0.2051  0.1663
 2538W        W19386   3.554   6.075  15.983  0.1504 -0.1864 -0.1459
 2539W        W19387   3.921   6.774   4.356 -0.1696  0.0363 -0.0090
 2540W        W19388  14.205   9.340  12.727 -0.1545  0.2179  0.0152
 2541W        W19389   9.496   6.921  12.750 -0.0726  0.0478  0.0422
 2542W        W19390   6.849  10.156  12.326  0.1464  0.1441 -0.1126
 2543W        W19391  10.020  10.246  13.642 -0.3496 -0.1019 -0.0581
 2544W        W19392   5.021   5.695  13.688  0.3296  0.2048  0.0603
 2545W        W19393   0.590  15.469  15.006 -0.1714  0.2354  0.2533
 2546W        W19394  11.216  11.844   4.260  0.2176  0.0687 -0.0161
 2547W        W19395   1.133   2.558   2.599 -0.1202  0.1116 -0.0757
 2548W        W19396   1.458   0.557   5.086  0.2067  0.0918  0.0765
 2549W        W19397  13.883  17.584  13.209  0.0421 -0.0729 -0.2716
 2550W        W19398   5.493  16.979   0.040  0.0192  0.2965  0.1102
 2551W        W19399   3.576  10.381   3.929  0.2609 -0.1151 -0.1913
 2552W        W19400   2.777   2.991   0.332 -0.2369 -0.0034 -0.1065
 2553W        W19401  14.701   6.780   2.098 -0.3509 -0.1033 -0.1777
 2554W        W19402   2.856   2.334  15.879 -0.1068  0.3560 -0.2092
 2555W        W19403  11.630  16.084   4.381 -0.1118  0.2102 -0.0078
 2556W        W19404   7.625   8.430  16.071  0.2713  0.1865 -0.0942
 2557W        W19405   0.218  13.637   2.636  0.1538 -0.2054  0.4329
 2558W        W19406   0.920   1.831   4.098 -0.2181  0.0981 -0.1104
 2559W        W19407  10.078  15.443  14.358  0.0745 -0.0455  0.0943
 2560W        W19408  12.857   2.141  13.518 -0.1761 -0.2076  0.1791
 2561W        W19409   4.556  13.452   4.642  0.4180  0.3144  0.0533
 2562W        W19410  16.102  16.131  12.160 -0.1830 -0.1838  0.1923
 2563W        W19411   8.471  13.912  12.873  0.1773  0.2435 -0.0205
 2564W        W19412  10.782  11.688   1.041 -0.1118 -0.3196 -0.0321
 2565W        W19413   1.704   4.978   5.230 -0.1071 -0.0676 -0.0130
 2566W        W19414   7.856   3.761   5.636 -0.1304 -0.0166 -0.3294
 2567W        W19415  13.962   3.563   3.704  0.0092  0.0675  0.1003
 2568W        W19416  16.951  16.976  13.361  0.1192  0.0135 -0.0524
 2569W        W19417  14.954  15.705   0.912  0.1381  0.1536  0.0733
 2570W        W19418  10.114  10.092  12.029  0.1132  0.2086  0.0677
 2571W        W19419  11.297   2.875   2.252 -0.1901  0.2109 -0.2895
 2572W        W19420   1.504   3.733   3.548 -0.1764 -0.1974  0.0995
 2573W        W19421  17.557  15.090   2.242 -0.5780 -0.2764  0.3425
 2574W        W19422   8.861   7.558  16.148  0.0569 -0.3959  0.1881
 2575W        W19423  17.375   7.179   5.668 -0.0331  0.2886  0.1494
 2576W        W19424  15.229   3.783  16.507  0.0739  0.1626  0.2523
 2577W        W19425   0.170   9.463  12.046  0.0781 -0.0035  0.2434
 2578W        W19426   5.578   6.964   0.211  0.0035  0.1489  0.0526
 2579W        W19427   3.114  12.605  11.988  0.0623  0.1268  0.0015
 2580W        W19428   2.552   8.183   1.776 -0.2848 -0.2401  0.1147
 2581W        W19429   6.931   3.737   6.051  0.1449  0.3078 -0.2566
 2582W        W19430  16.002   2.784   1.516  0.1114  0.0517  0.1657
 2583W        W19431  16.033  14.725   1.821 -0.1329 -0.1346  0.2653
 2584W        W19432   4.692   8.530  13.748 -0.2556  0.1808  0.1062
 2585W        W19433   2.832   1.213   5.695  0.0265  0.0265 -0.0628
 2586W        W19434  13.103   5.274  13.547  0.0279 -0.2544  0.0339
 2587W        W19435  15.758  13.834   3.748  0.1850 -0.0054  0.2625
 2588W        W19436  11.587  17.159  15.951 -0.0153 -0.0098 -0.0073
 2589W        W19437  16.044   8.354   3.714  0.1170  0.1573  0.0835
 2590W        W19438   4.842   3.780   2.391 -0.1515 -0.1786 -0.2057
 2591W        W19439   9.960   1.246   3.550  0.1310 -0.3065  0.1377
 2592W        W19440  10.004   1.696  10.562 -0.0475 -0.0025  0.1161
 2593W        W19441   6.560   7.445   4.874  0.0833 -0.0995  0.0083
 2594W        W19442   5.133  17.118  16.408  0.1956 -0.1058  0.5163
 2595W        W19443   7.322   3.024   5.187 -0.3925  0.1041 -0.0462
 2596W        W19444   2.584   0.670  11.801  0.1633  0.1077  0.1741
 2597W        W19445  12.647  11.350   3.542 -0.1396 -0.0190  0.0735
 2598W        W19446   4.478   7.667   3.277  0.1777  0.3027 -0.1230
 2599W        W19447   3.970  16.716   6.292 -0.1324 -0.3767  0.0124
 2600W        W19448  17.643   8.333  11.683  0.0055  0.1066  0.1848
 2601W        W19449  17.412  11.178   4.482 -0.0965 -0.0282 -0.2466
 2602W        W19450   1.371  11.880   1.829 -0.0370 -0.3148  0.3706
 2603W        W19451   7.064  10.894  14.180  0.0261 -0.0077 -0.3198
 2604W        W19452   5.315  13.697  11.994  0.1628 -0.1299 -0.0048
 2605W        W19453   8.342   3.753   4.775  0.1094  0.0213  0.0337
 2606W        W19454  13.599  12.010   4.468 -0.0695  0.1216  0.0432
 2607W        W19455  17.133   7.355   3.804  0.1267  0.1576 -0.2454
 2608W        W19456  12.269   7.071   0.898 -0.0072  0.0700 -0.2224
 2609W        W19457   5.413  17.087  12.490  0.1591  0.3044 -0.1186
 2610W        W19458   6.014   6.838  15.096 -0.0329  0.1471  0.0420
 2611W        W19459   5.858  15.053   0.333  0.1045  0.0096  0.0217
 2612W        W19460   2.915   3.495  12.908 -0.0699 -0.0167 -0.0634
 2613W        W19461   1.645   3.189   3.171  0.3381 -0.0405  0.0685
 2614W        W19462   0.947   6.946  15.241 -0.0206  0.1660  0.0817
 2615W        W19463   4.760   1.474   1.636 -0.2070 -0.2520  0.1916
 2616W        W19464  16.088   2.682   3.535 -0.0327  0.3191  0.2195
 2617W        W19465  13.405   8.873   0.963  0.2553 -0.2148  0.1647
 2618W        W19466   5.839   4.289   5.010 -0.0507 -0.2029  0.0256
 2619W        W19467   1.633  12.348   0.679  0.0809 -0.1005  0.2976
 2620W        W19468  10.813   7.743   4.957  0.1770  0.0206  0.0185
 2621W        W19469   0.278   5.449   6.110 -0.0038  0.4464  0.0542
 2622W        W19470   9.066  11.172   0.128 -0.0523  0.0246  0.0882
 2623W        W19471   4.299   6.120  14.300 -0.1157 -0.0165  0.1842
 2624W        W19472  15.093  13.784   0.828  0.1022 -0.0143 -0.0916
 2625W        W19473  14.901   0.363   1.709  0.2610  0.3687 -0.0202
 2626W        W19474   2.686  15.370  11.972  0.0010 -0.1290  0.0736
 2627W        W19475   2.531   4.742  12.542  0.4027  0.1688  0.0678
 2628W        W19476  16.505   6.667  11.945 -0.2063 -0.0567  0.1330
 2629W        W19477   1.650  11.006  11.834 -0.2159 -0.2080  0.1463
 2630W        W19478   6.048   0.938  14.373 -0.2201 -0.1378  0.2023
 2631W        W19479   0.039   1.011   3.026  0.0219  0.1077 -0.0003
 2632W        W19480  13.288   9.346  12.689  0.1898 -0.2521 -0.1395
 2633W        W19481   3.340  12.593   3.211 -0.2541  0.2054 -0.3529
 2634W        W19482  12.729   3.952  11.760 -0.1516  0.1022  0.0244
 2635W        W19483   1.346   0.683  16.307  0.3469  0.2190 -0.0273
 2636W        W19484   9.180  16.607  11.669  0.1420 -0.1399  0.2765
 2637W        W19485   6.849  12.978   1.212 -0.2786 -0.0492 -0.0855
 2638W        W19486   8.648  12.421  16.389 -0.1612  0.2386  0.0675
 2639W        W19487   3.608   0.737  16.035  0.0948 -0.1201  0.1229
 2640W        W19488  12.052  11.491   4.913  0.0314  0.0533 -0.0977
 2641W        W19489  14.356   8.239   4.739 -0.1668 -0.0797  0.0809
 2642W        W19490   6.778  15.923   1.113  0.1119  0.2054 -0.1603
 2643W        W19491   2.752   0.706   3.027 -0.3824 -0.1936  0.0133
 2644W        W19492   6.823   9.804  11.955 -0.2056 -0.0405 -0.0265
 2645W        W19493   0.535  10.523  13.766  0.1723  0.3688  0.1085
 2646W        W19494  10.329  16.091  14.336  0.0088 -0.1268 -0.0430
 2647W        W19495   3.771   7.609  12.119  0.4880 -0.0775  0.1379
 2648W        W19496   4.827  12.700  16.224  0.0451 -0.1040  0.0836
 2649W        W19497   7.589   8.030   0.630  0.0389 -0.0879 -0.0970
 2650W        W19498  15.967   3.592   1.451 -0.0814  0.1868 -0.2168
 2651W        W19499   9.322   8.557   0.180 -0.2931  0.2409 -0.0793
 2652W        W19500   2.726  10.944   0.721 -0.0749  0.4399 -0.1060
 2653W        W19501   8.064  12.797  12.773 -0.1645  0.1098  0.2359
 2654W        W19502   1.741   1.016  12.307 -0.1552  0.0352  0.1093
 2655W        W19503   6.578   9.848  13.353 -0.0351 -0.1220  0.2433
 2656W        W19504  10.527   7.888  16.477  0.0990 -0.1589  0.4046
 2657W        W19505  13.360  10.025   2.402 -0.0388  0.1755  0.1511
 2658W        W19506   5.400  12.520  12.194  0.1939 -0.1473 -0.0739
 2659W        W19507   4.957   7.425  16.579 -0.1401  0.0891  0.1575
 2660W        W19508   2.465   2.347   2.789  0.0677 -0.1584 -0.0173
 2661W        W19509   4.301   2.988  13.892 -0.1209  0.0708 -0.0076
 2662W        W19510   6.416   3.390   3.882  0.0435 -0.0769 -0.4693
 2663W        W19511  13.117   5.933   1.594 -0.1792 -0.0349 -0.0095
 2664W        W19512   6.545  15.735   0.340 -0.0236  0.0793 -0.0856
 2665W        W19513   9.331   5.560  10.660  0.1726  0.1992 -0.0207
 2666W        W19514  15.786  14.722   2.238  0.0971  0.0142 -0.1847
 2667W        W19515  16.463   8.260  14.435 -0.0521  0.0098  0.0028
 2668W        W19516   7.742  11.102   0.103 -0.0685  0.3467 -0.2291
 2669W        W19517  16.790  12.606  14.958 -0.1830  0.1470  0.1519
 2670W        W19518  16.579  12.953  12.503  0.0819  0.3285  0.1326
 2671W        W19519   7.637   1.840  13.622  0.3263 -0.0477 -0.0399
 2672W        W19520   2.972   0.540  15.466  0.1267  0.0374  0.1534
 2673W        W19521   2.621   3.459  14.308 -0.0112  0.0618 -0.2038
 2674W        W19522  11.175   6.053  14.816  0.2764 -0.1817 -0.1237
 2675W        W19523  17.364   8.527  16.025  0.1173 -0.2490  0.1241
 2676W        W19524  11.614   8.071   3.606 -0.0056  0.3182  0.0928
 2677W        W19525  16.150  11.361   0.616  0.2702 -0.0750 -0.0186
 2678W        W19526   6.514  14.667   5.830  0.2930  0.1579 -0.1405
 2679W        W19527   0.682   3.760  15.649  0.1520  0.0863  0.2011
 2680W        W19528  17.572  17.357  16.437  0.1109 -0.0196 -0.0044
 2681W        W19529  10.486  16.606  12.175 -0.0048 -0.1153 -0.0437
 2682W        W19530  10.709   2.132   2.501 -0.1858 -0.2005 -0.2007
 2683W        W19531   5.548   5.050  15.370 -0.1806 -0.1595 -0.0194
 2684W        W19532   1.624   0.446  15.817  0.3918 -0.0203 -0.1457
 2685W        W19533  10.781  15.937   4.022  0.1355  0.0160 -0.3793
 2686W        W19534  15.982  16.946   0.334  0.0360  0.2931 -0.0487
 2687W        W19535   8.874   2.558   0.182  0.1786 -0.3788  0.0101
 2688W        W19536   7.965   4.447  12.949  0.2631  0.0657 -0.5556
 2689W        W19537  12.390  14.157  12.763  0.1056 -0.1871 -0.3908
 2690W        W19538  10.321   7.578  14.498 -0.1075 -0.0962 -0.0972
 2691W        W19539  16.051  11.653  14.696 -0.1206  0.0034  0.0247
 2692W        W19540  10.839   5.839  12.756  0.1653 -0.1805 -0.1767
 2693W        W19541   6.916   1.666   1.168  0.0065 -0.1910 -0.2112
 2694W        W19542  12.217   0.232  15.248  0.1097 -0.0686 -0.1467
 2695W        W19543  12.388  15.762  13.999  0.1141 -0.0073 -0.0044
 2696W        W19544   7.979   9.971  14.372  0.2155 -0.0153  0.1194
 2697W        W19545  14.750   5.101  11.943  0.0918 -0.0762  0.0547
 2698W        W19546   3.114  15.188   1.624  0.0620  0.0538 -0.1670
 2699W        W19547   4.522   2.878  14.546 -0.1321 -0.0583  0.0676
 2700W        W19548   4.435  11.408   4.045 -0.0025  0.1625  0.1729
 2701W        W19549  11.184   9.748  15.215  0.0490  0.0443  0.2267
 2702W        W19550   2.523  10.045  11.309 -0.1090 -0.1223 -0.1031
 2703W        W19551   7.815  10.675   5.268  0.0654 -0.0236 -0.2897
 2704W        W19552  10.628  10.724  16.155 -0.0519 -0.1458  0.1143
 2705W        W19553  16.391  16.734  14.898 -0.1418  0.1266  0.2626
 2706W        W19554  12.576   8.639   5.304 -0.4720  0.0835  0.3643
 2707W        W19555   9.790  12.657  13.434  0.1901  0.0981  0.1200
 2708W        W19556   5.878  12.462  14.869 -0.1022 -0.1483  0.1702
 2709W        W19557   7.862   3.388  14.291 -0.1115 -0.2496 -0.2276
 2710W        W19558  12.729   8.532  16.291 -0.2635  0.0664 -0.0725
 2711W        W19559   0.017   2.028   4.030 -0.0374 -0.0693 -0.2259
 2712W        W19560   5.473  10.006  14.026 -0.1422 -0.2641  0.0144
 2713W        W19561  12.975   5.431  13.024 -0.0743 -0.0112  0.0504
 2714W        W19562   8.750  15.114  15.508 -0.2866 -0.0854 -0.1082
 2715W        W19563   1.674   5.100  13.067  0.2250  0.0590 -0.0406
 2716W        W19564   5.014   7.012  12.810  0.5000 -0.3574  0.0901
 2717W        W19565  14.822   2.007  13.681 -0.1758 -0.0991  0.2362
 2718W        W19566   0.448  14.274  11.899 -0.1063  0.2447 -0.1393
 2719W        W19567   6.302  15.662  16.355  0.0831 -0.2658 -0.1070
 2720W        W19568   0.836   9.722  12.832  0.0778 -0.1032  0.0412
 2721W        W19569   1.925  14.966  15.709  0.1313  0.0981  0.1813
 2722W        W19570  14.398   0.983   4.676  0.0808 -0.0228  0.0130
 2723W        W19571  13.600   7.839  15.047  0.0480 -0.0702  0.3607
 2724W        W19572  10.249   7.743   2.134  0.1264  0.1324 -0.0345
 2725W        W19573   3.393   8.808   4.971  0.2264 -0.0773  0.0365
 2726W        W19574   2.389   1.304   4.819  0.0243  0.0461 -0.0457
 2727W        W19575  16.863  15.526   2.561  0.0065  0.0953  0.1210
 2728W        W19576   9.315  16.990  14.692  0.0577  0.0481 -0.0347
 2729W        W19577  13.409   7.181   1.674 -0.0384 -0.3033 -0.0797
 2730W        W19578   9.071   4.784   2.174 -0.0462 -0.1721 -0.1302
 2731W        W19579   1.350   6.460   5.200  0.1907 -0.2009  0.0204
 2732W        W19580   3.911   6.255  16.663 -0.1804 -0.0822 -0.2312
 2733W        W19581   3.418  11.155  14.007  0.0807  0.1065  0.0073
 2734W        W19582  10.128   6.362  15.869 -0.1000  0.0254 -0.0120
 2735W        W19583   8.973   7.781   0.425 -0.1478  0.2172  0.0015
 2736W        W19584   7.537  10.359   0.663  0.0451 -0.0484  0.1037
 2737W        W19585  11.039   0.212  16.402  0.0233 -0.0589  0.2065
 2738W        W19586   7.476   0.087  14.915 -0.0275 -0.3645  0.1049
 2739W        W19587  15.598   9.610   1.389 -0.1063 -0.1201 -0.0297
 2740W        W19588   2.873   9.316  16.146 -0.1645 -0.1565  0.2675
 2741W        W19589  12.371  12.583   1.005  0.2711  0.0990 -0.4603
 2742W        W19590  16.924   9.835  15.118  0.1677  0.2166  0.0239
 2743W        W19591  13.288  10.949  14.638  0.0603  0.2000  0.1446
 2744W        W19592   4.588   7.075   2.263 -0.1993  0.0488 -0.1182
 2745W        W19593   5.467   6.851  15.515 -0.1884  0.1093  0.1026
 2746W        W19594  15.766  14.362  13.746 -0.0638 -0.1064 -0.2190
 2747W        W19595  13.090  16.368   4.714  0.0122 -0.0212 -0.0416
 2748W        W19596  13.067  15.890  12.297 -0.0392 -0.1205 -0.0462
 2749W        W19597  14.281  13.341   2.764  0.0867 -0.1505  0.1698
 2750W        W19598   7.250   7.888   2.443  0.1983 -0.0145 -0.2323
 2751W        W19599   5.121   9.263   1.732 -0.1767  0.0868 -0.1118
 2752W        W19600   2.934   4.191  15.757 -0.0678 -0.0130 -0.0370
 2753W        W19601  16.309   2.385   2.777 -0.1472 -0.0068 -0.0482
 2754W        W19602   5.013  12.305   3.762 -0.1058  0.0915  0.0989
 2755W        W19603  17.068   3.422   1.026 -0.2458 -0.0206 -0.3009
 2756W        W19604   5.754  14.907   3.110  0.0871  0.2197  0.2051
 2757W        W19605   7.297   3.838  12.208  0.2291  0.1115 -0.0442
 2758W        W19606  13.750   6.710   5.148 -0.0853 -0.2313  0.2209
 2759W        W19607  10.559   4.520  11.861  0.1579  0.0967  0.0014
 2760W        W19608  15.001   7.229   2.982 -0.0571  0.0401 -0.0649
 2761W        W19609  12.409  15.525   1.636 -0.1673  0.1615  0.1352
 2762W        W19610   7.669   0.441   4.086  0.3969 -0.1373 -0.2828
 2763W        W19611  12.247  17.207   0.647  0.2970 -0.2456  0.1676
 2764W        W19612  14.376  11.041  11.316 -0.0457  0.2927  0.0322
 2765W        W19613   6.557   8.887  14.357 -0.3905  0.3709 -0.0261
 2766W        W19614  17.194   4.634  11.844 -0.1826  0.1788  0.0829
 2767W        W19615  13.160   8.183  11.868  0.1630 -0.1989  0.2482
 2768W        W19616   5.892   2.624  16.461 -0.0613  0.1292 -0.1687
 2769W        W19617  17.562  17.345  13.780 -0.2940 -0.1753  0.2116
 2770W        W19618  11.251  16.334   4.682  0.1753  0.0848  0.0354
 2771W        W19619  16.303   3.221   1.568 -0.0362 -0.3190  0.1805
 2772W        W19620   1.108  14.438   1.684  0.0675  0.0961  0.3040
 2773W        W19621   4.326  11.812   1.528  0.3254  0.0741 -0.2881
 2774W        W19622  11.848  10.720   2.894  0.0336 -0.1133 -0.0574
 2775W        W19623  15.666   1.930  14.791  0.3556  0.1636  0.2195
 2776W        W19624  17.507  10.059  13.024  0.2853  0.4103  0.1511
 2777W        W19625   9.015  17.350   5.111  0.2118  0.1756 -0.2399
 2778W        W19626   1.068  12.539  15.642 -0.2094  0.1764 -0.0015
 2779W        W19627   7.842   7.110   4.795 -0.0020  0.1622  0.1065
 2780W        W19628   1.189   3.033  12.840  0.2588 -0.1089  0.0274
 2781W        W19629   2.141  16.226   1.550 -0.0970  0.0155 -0.1858
 2782W        W19630   0.633   7.409  15.755  0.0136 -0.0049 -0.2001
 2783W        W19631  16.970   2.811  16.223  0.1451 -0.0101 -0.3223
 2784W        W19632   5.178   9.030  12.674  0.1564 -0.2213  0.0966
 2785W        W19633   8.227  13.335  16.449 -0.2768  0.0233  0.2420
 2786W        W19634  17.614   6.184   4.292  0.2402  0.0831  0.0709
 2787W        W19635   7.531  12.471  11.872 -0.1815 -0.0873 -0.0271
 2788W        W19636  16.179  13.634  11.536 -0.0280  0.1066 -0.2902
 2789W        W19637   9.224   4.602   3.105  0.2946  0.1054  0.0125
 2790W        W19638   3.388  17.234  11.506  0.0156 -0.1679  0.0306
 2791W        W19639   2.954   2.807   4.666 -0.3262 -0.0259 -0.0351
 2792W        W19640   2.556   3.915   1.829  0.1067 -0.1781  0.0212
 2793W        W19641   5.039  10.895  13.828  0.4872 -0.1067 -0.1369
 2794W        W19642   5.615  16.141   5.439 -0.2886 -0.1655  0.1069
 2795W        W19643  15.926   8.816  12.650 -0.1820 -0.2703  0.0657
 2796W        W19644   1.188  11.127  16.039  0.1649 -0.0711 -0.0452
 2797W        W19645  17.030  12.973  14.727  0.2132  0.2307  0.1039
 2798W        W19646  13.777   3.793  12.008  0.3488 -0.1341 -0.0963
 2799W        W19647  10.082  16.655  11.863 -0.0656  0.3410 -0.2176
 2800W        W19648   3.518  15.584  11.656  0.0353  0.1797 -0.0849
 2801W        W19649   5.096   0.076   0.856 -0.1021 -0.2555 -0.0423
 2802W        W19650   0.813   6.021   1.341  0.0259  0.0275 -0.1251
 2803W        W19651   0.366  13.810  15.904 -0.2571 -0.0019  0.0554
 2804W        W19652  14.370  15.559  15.367 -0.0155  0.1104 -0.2498
 2805W        W19653  13.659  15.672   2.926 -0.1181 -0.1054 -0.1224
 2806W        W19654  17.556  11.734   1.328 -0.0203  0.4203 -0.0181
 2807W        W19655   7.160   1.922  14.967  0.0389  0.0347  0.2280
 2808W        W19656   5.635   5.128   1.832 -0.0420  0.2626 -0.1019
 2809W        W19657   7.967   4.837   2.223 -0.0148 -0.0916  0.0347
 2810W        W19658   2.517  17.321  14.500  0.1132  0.1956  0.0202
 2811W        W19659   9.247   6.684   2.127 -0.0669 -0.0716  0.0387
 2812W        W19660   3.254  15.618  12.803 -0.1936 -0.0365 -0.2968
 2813W        W19661  10.894   2.855  15.627 -0.0148 -0.1556  0.0552
 2814W        W19662  14.122   2.480   1.952 -0.2956 -0.0451 -0.2697
 2815W        W19663   0.931  12.804   3.775  0.1232 -0.0914 -0.0480
 2816W        W19664   0.878   6.684   5.090 -0.0696  0.1457  0.0884
 2817W        W19665  11.293   4.380   3.589 -0.0406 -0.1680  0.0743
 2818W        W19666   0.160  16.368   1.988 -0.0667 -0.1157  0.0694
 2819W        W19667  15.339   8.442   2.389 -0.0050 -0.2177 -0.2903
 2820W        W19668  11.316  11.787   1.149  0.0058 -0.0116  0.0120
 2821W        W19669   9.233   0.975  13.897  0.1188  0.1750  0.1729
 2822W        W19670   7.963   2.024  14.383  0.1139 -0.2349 -0.0290
 2823W        W19671   8.418   1.004  16.501 -0.1322 -0.1141 -0.1141
 2824W        W19672   9.052  12.102  11.822  0.1402  0.2319  0.2873
 2825W        W19673   0.719   0.193  15.462 -0.0581 -0.0212 -0.1591
 2826W        W19674   9.659  13.147  12.556  0.1774 -0.2662  0.1849
 2827W        W19675   7.082  12.735  14.460  0.0408 -0.1863  0.2686
 2828W        W19676  14.877   0.926  14.172 -0.0267  0.1970 -0.0286
 2829W        W19677  12.966  16.101   2.636  0.1638  0.0161  0.2055
 2830W        W19678  11.402   5.152   1.229  0.1718  0.1775  0.0148
 2831W        W19679   0.430   2.797   3.660  0.0521  0.0545  0.3146
 2832W        W19680  14.983   5.502  10.673  0.1029  0.0887 -0.0348
 2833W        W19681   0.939   4.572   2.479  0.0093 -0.1237 -0.4593
 2834W        W19682   5.199  15.126  14.810 -0.0280  0.0472 -0.0104
 2835W        W19683   3.333   1.178   5.529  0.1344  0.0089  0.2303
 2836W        W19684   7.470  12.149   1.087  0.4062  0.1021  0.0004
 2837W        W19685  13.257  12.812   4.375 -0.1095 -0.0330  0.1402
 2838W        W19686  16.994   5.848  13.492 -0.1295  0.2642  0.0927
 2839W        W19687   1.150   0.658  14.318 -0.0011  0.4178 -0.0146
 2840W        W19688  13.249  16.854   4.763 -0.0683 -0.2271 -0.0778
 2841W        W19689  10.837   0.454   3.198 -0.0049 -0.0293 -0.1414
 2842W        W19690   7.013  14.210   2.591 -0.1274  0.4762 -0.1031
 2843W        W19691  14.112  16.607  14.827 -0.1886  0.0279 -0.2246
 2844W        W19692  16.505   9.467   3.432  0.0337  0.1146 -0.0474
 2845W        W19693   8.665   6.956   3.035  0.0491 -0.1502  0.1589
 2846W        W19694   0.460   7.115  14.074 -0.3455  0.1477 -0.3612
 2847W        W19695   4.582  16.592   0.810 -0.0839 -0.2328  0.1270
 2848W        W19696  12.605   4.145   2.802 -0.0408 -0.0730  0.3481
 2849W        W19697   6.924  14.567   0.074  0.2505 -0.3146  0.3475
 2850W        W19698  17.617   8.735   0.677  0.2354  0.0523  0.0903
 2851W        W19699  14.563   8.662   2.886 -0.1545  0.1997 -0.0494
 2852W        W19700  15.158  11.712  15.788 -0.2575 -0.1637 -0.1489
 2853W        W19701  12.785   5.915  13.137  0.1345  0.2803  0.2088
 2854W        W19702   6.976  11.899  13.256 -0.0491 -0.2203  0.2123
 2855W        W19703  15.917   5.304  16.602  0.0506  0.1320  0.0643
 2856W        W19704   7.660  12.865  16.188  0.1376 -0.2287  0.0446
 2857W        W19705  10.460   3.581  16.474 -0.1784 -0.0849  0.1903
 2858W        W19706   8.294   0.031   1.353  0.1477 -0.3854 -0.1597
 2859W        W19707   4.821  13.391   2.678 -0.0475 -0.2078  0.1807
 2860W        W19708  16.784   6.293   1.430 -0.1096  0.0250  0.0256
 2861W        W19709   6.756  12.893   2.582 -0.3735 -0.2267  0.3112
 2862W        W19710   8.301   1.277  11.178 -0.1386  0.3251 -0.0577
 2863W        W19711   7.065   8.798  15.526  0.1171  0.1283  0.4113
 2864W        W19712   8.230  11.249   4.090  0.0368 -0.2175  0.1879
 2865W        W19713   1.959  14.754   2.738  0.1695  0.0294  0.1540
 2866W        W19714   3.841  11.166  11.601 -0.1122 -0.0588 -0.2102
 2867W        W19715  16.908  12.308   5.212  0.4469  0.1572  0.1270
 2868W        W19716  15.336   2.740  14.056  0.3481 -0.1632 -0.0113
 2869W        W19717   2.964  12.227   4.335  0.2574 -0.0585 -0.0010
 2870W        W19718  14.482   0.509   4.576  0.1244  0.0533  0.4240
 2871W        W19719   9.780   5.856   1.927  0.1163  0.2588 -0.1910
 2872W        W19720  11.377   4.332  12.535 -0.4087  0.2275 -0.1887
 2873W        W19721   2.553   5.740  14.486 -0.0152  0.4031  0.0758
 2874W        W19722   0.706   0.276   3.301  0.0180  0.1132 -0.1378
 2875W        W19723  13.175   1.980   2.808  0.0770  0.1582 -0.1906
 2876W        W19724  17.522   9.771   4.541 -0.1747  0.0494 -0.2801
 2877W        W19725   3.944  11.921  15.749 -0.0210 -0.2054 -0.1606
 2878W        W19726   4.255   9.707  12.555 -0.0781 -0.1306 -0.2030
 2879W        W19727   8.085  15.006  12.588 -0.0071  0.0982 -0.0652
 2880W        W19728   5.520   6.879   3.348 -0.0758  0.0967  0.1419
 2881W        W19729  12.282  12.575  12.318 -0.0052 -0.0583  0.1423
 2882W        W19730   2.370  10.455  12.742  0.1528  0.2840 -0.2826
 2883W        W19731   3.969  16.620   3.874 -0.2033 -0.3384 -0.0848
 2884W        W19732   3.679   4.590   5.538 -0.2123  0.2316 -0.2300
 2885W        W19733  11.494   3.897   4.852  0.0647  0.0958 -0.3245
 2886W        W19734  17.524  15.070  12.990  0.0412 -0.1681 -0.2593
 2887W        W19735   6.992  17.343   2.556  0.0042  0.0374 -0.3610
 2888W        W19736  16.987   1.453  11.416  0.0250  0.3332  0.1147
 2889W        W19737   5.397  16.259   1.386 -0.4103 -0.2401  0.0368
 2890W        W19738  12.985   6.222  11.157 -0.2061 -0.3194 -0.1144
 2891W        W19739  17.159  15.363   2.148  0.1192 -0.1007 -0.2778
 2892W        W19740   8.835   9.956  12.845  0.1769  0.3032 -0.2233
 2893W        W19741  15.005  16.652  15.016 -0.2292 -0.2820  0.0109
 2894W        W19742   8.528   2.974  14.921 -0.1677 -0.1560  0.1872
 2895W        W19743   5.084  11.324   2.858 -0.0540 -0.2059 -0.0012
 2896W        W19744   3.683   2.900  14.743  0.3241  0.0530  0.1120
 2897W        W19745  14.378  16.199  11.902 -0.2616  0.0587 -0.1847
 2898W        W19746  12.700  15.936   2.284  0.1245 -0.1493  0.1331
 2899W        W19747   4.670   5.927   3.542  0.0449  0.0356  0.1759
 2900W        W19748   3.125  12.804  13.373 -0.0937  0.2706  0.1401
 2901W        W19749   4.666   8.127  12.978  0.0674 -0.3028  0.1317
 2902W        W19750  14.173  14.089   2.660  0.2844 -0.1665 -0.1548
 2903W        W19751   8.529   6.010   5.336 -0.1568 -0.0139 -0.1076
 2904W        W19752  11.112  11.275   1.119  0.1437 -0.1599 -0.0983
 2905W        W19753   7.429  10.274   5.285  0.1858  0.1353 -0.1561
 2906W        W19754  10.073   8.647  14.559  0.0627 -0.1477 -0.3278
 2907W        W19755  16.237  16.251   3.455 -0.2783  0.0511  0.1541
 2908W        W19756   2.559  13.520   3.809  0.0426 -0.2340  0.0109
 2909W        W19757  15.873   7.315   2.207  0.0786  0.0752  0.1518
 2910W        W19758   9.349  12.414   0.444 -0.1297  0.4761  0.0272
 2911W        W19759   4.313   4.971   0.352  0.3137 -0.2068 -0.5354
 2912W        W19760   9.706   5.015  11.756 -0.0657  0.1419 -0.1561
 2913W        W19761  12.397   4.060   0.606  0.1278  0.3679  0.0161
 2914W        W19762   0.636   7.932  12.627 -0.1416 -0.2217 -0.0972
 2915W        W19763  15.730   3.428  15.237  0.1590 -0.0529 -0.1566
 2916W        W19764   0.895  10.382   4.883 -0.1065  0.3656 -0.1935
 2917W        W19765  15.527  15.848   3.757  0.0751  0.0809 -0.0718
 2918W        W19766   8.424  10.483   4.377 -0.4229 -0.1045 -0.1204
 2919W        W19767  11.436   2.413   2.287 -0.0541  0.0680 -0.2006
 2920W        W19768   0.261   3.026  12.351  0.0575 -0.0081 -0.1390
 2921W        W19769  12.080  16.598  12.632 -0.0124  0.2108 -0.0758
 2922W        W19770   5.853   9.856   1.821 -0.0068 -0.1683 -0.3744
 2923W        W19771   7.763   9.539   3.092  0.3656 -0.2223  0.0495
 2924W        W19772   2.622   1.231  14.878  0.1159 -0.2508  0.1630
 2925W        W19773   8.299   4.378  14.272 -0.0835 -0.1220  0.0755
 2926W        W19774   0.416  15.646   1.430 -0.0420 -0.0170  0.3397
 2927W        W19775   4.415   3.261   1.414 -0.1259 -0.0992  0.0514
 2928W        W19776   0.200  10.856   1.247  0.0613 -0.0443  0.0061
 2929W        W19777  10.241   6.287   4.815  0.0258 -0.0405 -0.0443
 2930W        W19778  11.009  14.745  14.257  0.0863  0.0284 -0.0298
 2931W        W19779   7.683   9.639  12.454 -0.1926 -0.0137  0.2058
 2932W        W19780  17.334   3.118  11.688 -0.0968  0.0912  0.2292
 2933W        W19781  15.871   4.788   4.650 -0.0253 -0.0982  0.1803
 2934W        W19782  13.281  16.885   0.153  0.0217 -0.2358  0.1626
 2935W        W19783   2.239  13.145  13.362 -0.1813 -0.0630  0.1809
 2936W        W19784   0.928   6.701   3.737  0.0743 -0.2527  0.1831
 2937W        W19785   2.206   4.814  15.924 -0.0656 -0.0411 -0.2265
 2938W        W19786   5.386  13.948   2.793  0.1474 -0.0078 -0.2676
 2939W        W19787  11.458   5.813  15.686  0.1309 -0.1658 -0.1643
 2940W        W19788   4.173   2.412  14.385  0.0150  0.0436  0.1958
 2941W        W19789  10.978   6.444   1.753  0.0034 -0.0129  0.2064
 2942W        W19790   3.591   9.729  11.266 -0.0661  0.0823 -0.1517
 2943W        W19791   5.353  15.880  12.877  0.1284 -0.2402 -0.1822
 2944W        W19792   1.773  15.459   5.470  0.1457  0.0352  0.0219
 2945W        W19793   9.752  12.438  13.939  0.0230 -0.1215 -0.0377
 2946W        W19794   3.203  15.622  15.906  0.1290  0.1614  0.2701
 2947W        W19795  10.280   4.045  11.891  0.1769  0.1177  0.0429
 2948W        W19796   3.584  12.968  13.506 -0.1004  0.0457 -0.0731
 2949W        W19797   5.244  15.593  13.230 -0.4810  0.0237 -0.2746
 2950W        W19798  13.952   0.896  16.014 -0.0817  0.0858 -0.0839
 2951W        W19799  17.536   5.401  14.535 -0.0337  0.2546 -0.2846
 2952W        W19800  17.530   9.581   0.157  0.3500  0.1387  0.1966
 2953W        W19801  15.707   5.732  15.395 -0.0670  0.1870 -0.1182
 2954W        W19802   8.021  16.689  15.438  0.3106  0.0009  0.0415
 2955W        W19803   3.937   5.426  12.013  0.2051 -0.0887 -0.0412
 2956W        W19804   9.621  10.494  15.816 -0.2892  0.0752  0.0269
 2957W        W19805   0.043  16.435   0.202 -0.0284 -0.0014 -0.1514
 2958W        W19806  10.194  11.673   1.055 -0.0795  0.0609 -0.3475
 2959W        W19807  16.035   3.549  12.720  0.0588  0.2808  0.1132
 2960W        W19808   6.164  14.716  12.454  0.2231  0.3636 -0.2307
 2961W        W19809   7.371  11.149  13.800 -0.2617  0.0565 -0.1715
 2962W        W19810   6.029   9.998  12.427  0.2425  0.3583 -0.4797
 2963W        W19811   2.657  10.896  12.893  0.2042  0.1872 -0.0285
 2964W        W19812   8.727   1.018  11.476  0.1240 -0.1631 -0.2317
 2965W        W19813   0.003   6.550   0.178  0.2185  0.1034 -0.0153
 2966W        W19814  16.965  10.724  10.346 -0.0186  0.1584  0.1370
 2967W        W19815   0.399  12.975   4.435  0.2429 -0.1217 -0.2367
 2968W        W19816  16.625   1.438   2.454  0.1278  0.2270 -0.0737
 2969W        W19817  16.553  13.611  15.181  0.2211 -0.2138  0.0179
 2970W        W19818   7.151   4.304   4.423  0.3255  0.3476 -0.3198
 2971W        W19819  13.981   2.428   2.794 -0.1261 -0.1098 -0.2363
 2972W        W19820  12.941   2.528   3.989  0.1469  0.2535  0.2527
 2973W        W19821   2.730   0.776   1.350 -0.0911 -0.0078  0.0672
 2974W        W19822  10.203  14.376   1.184  0.1211  0.1041 -0.2363
 2975W        W19823  10.237   0.498   1.396 -0.2740  0.0840  0.0506
 2976W        W19824   3.786  10.689   0.437  0.0302  0.1016  0.0580
 2977W        W19825  11.339  16.178  14.151 -0.1250 -0.1445 -0.0131
 2978W        W19826   6.635  17.048   1.676  0.0029 -0.0620  0.0265
 2979W        W19827   9.186   4.114   5.065  0.0483 -0.1487 -0.0586
 2980W        W19828   1.940  13.920   4.294  0.0093 -0.0944  0.3614
 2981W        W19829   3.198   9.123  12.769  0.2546 -0.2149  0.2001
 2982W        W19830   0.353   7.900  11.748 -0.1360 -0.0663  0.1978
 2983W        W19831   7.041   9.011  13.997  0.0423  0.0049 -0.0282
 2984W        W19832   4.182   6.039  13.113  0.1289 -0.1601  0.0818
 2985W        W19833  11.691   9.420   0.316  0.1745  0.1361 -0.1642
 2986W        W19834  15.823  10.658  14.674 -0.2357  0.0641 -0.0599
 2987W        W19835  14.837   8.169   3.753 -0.2009 -0.1666  0.2090
 2988W        W19836   0.730  14.319  16.476  0.2848 -0.0068  0.1473
 2989W        W19837   1.029   5.335   0.873  0.0044  0.0318  0.2047
 2990W        W19838   5.964  17.685   3.307  0.1161 -0.0288 -0.3648
 2991W        W19839   1.387  14.748  16.105  0.0393 -0.2735  0.0290
 2992W        W19840   1.202  16.730  15.853 -0.2846  0.0757 -0.2260
 2993W        W19841  17.225   9.975  11.750  0.0909  0.2708  0.3489
 2994W        W19842  11.557   5.710   6.158 -0.1293  0.0441 -0.0376
 2995W        W19843  16.040  11.355   2.078 -0.1558  0.0545 -0.0441
 2996W        W19844  12.350   5.881   4.925  0.1462  0.0193 -0.2370
 2997W        W19845  16.297   2.836  12.073  0.0935 -0.0194  0.0133
 2998W        W19846   4.829  12.584  14.355 -0.0193  0.0152 -0.1197
 2999W        W19847  15.379   1.228   2.000  0.3218 -0.1637 -0.1462
 3000W        W19848   4.128  16.707   1.922  0.2272  0.2060 -0.1940
 3001W        W19849  12.602   7.885   4.989 -0.0835 -0.1141  0.3249
 3002W        W19850   0.690  11.510   5.569  0.2052 -0.1039 -0.0856
 3003W        W19851  15.627   2.755   0.418 -0.0859  0.2658  0.3680
 3004W        W19852   5.977  11.629  12.096  0.0685 -0.2911  0.3081
 3005W        W19853   9.159   1.171   1.454  0.0972 -0.0263 -0.1124
 3006W        W19854   3.183   2.248   0.510  0.1715 -0.1771 -0.5005
 3007W        W19855  16.910   9.066  12.178 -0.0187  0.0396  0.3757
 3008W        W19856   6.337   6.828  14.072 -0.0754  0.4915  0.0249
 3009W        W19857  15.156   4.306  15.262 -0.0268 -0.1316  0.0244
 3010W        W19858   8.407  16.735   1.688  0.0975  0.0242  0.2564
 3011W        W19859   3.325   6.741   1.708  0.2776  0.4159  0.2785
 3012W        W19860  15.823   4.684   3.208 -0.1416 -0.3515 -0.0192
 3013W        W19861   2.521   9.353  16.650 -0.0493  0.1790 -0.0308
 3014W        W19862   1.276   2.437   0.080  0.0736  0.0330  0.1505
 3015W        W19863   5.000   0.584   4.003 -0.1971 -0.1105  0.1330
 3016W        W19864   5.465   7.396  13.383 -0.1174 -0.0150  0.3266
 3017W        W19865  14.232  17.569   1.060  0.3828  0.2501 -0.1353
 3018W        W19866  11.469   8.695   2.786 -0.2203  0.0390 -0.1146
 3019W        W19867   5.729   5.471  15.206 -0.2200  0.0204 -0.1097
 3020W        W19868   5.624  11.801   4.594  0.0222 -0.2303  0.0648
 3021W        W19869   9.349   9.203  12.480  0.0479 -0.1029  0.0779
 3022W        W19870   1.220   7.284   3.744 -0.0370 -0.0747 -0.2665
 3023W        W19871  13.292   2.023  12.418  0.0358 -0.1060  0.2960
 3024W        W19872   5.051  12.673   3.391  0.0296  0.2709 -0.0046
 3025W        W19873   1.291  13.193   3.986 -0.2691 -0.0994 -0.0804
 3026W        W19874   8.501  10.596  15.327 -0.0046 -0.2158  0.0391
 3027W        W19875  10.613  12.504   1.132 -0.0687  0.0428  0.3288
 3028W        W19876   1.124   4.228  16.104  0.0449 -0.1071  0.3526
 3029W        W19877   0.748  16.812  14.741  0.0916 -0.1064  0.0375
 3030W        W19878   5.603   4.341   6.042 -0.1122  0.1570 -0.1020
 3031W        W19879   8.383  16.820   5.456  0.1511  0.1561  0.0023
 3032W        W19880   8.954  13.145   2.887 -0.0211 -0.1783 -0.0049
 3033W        W19881  16.844  17.593  15.130  0.2889  0.2394 -0.4201
 3034W        W19882  11.082  17.511   0.085 -0.1600 -0.0048 -0.0182
 3035W        W19883  15.045  14.168   0.502  0.2095  0.1478  0.0838
 3036W        W19884   5.985  12.698  11.548  0.1940 -0.0034  0.2360
 3037W        W19885   1.443   7.217   5.647  0.0974  0.3913  0.0692
 3038W        W19886   8.566   8.898   3.853 -0.1397  0.2929  0.2857
 3039W        W19887   3.286   2.018  16.196  0.0901  0.2527  0.1374
 3040W        W19888   1.533  12.599   0.251  0.0778  0.0769 -0.2142
 3041W        W19889   1.015   6.954  11.621 -0.1316  0.0709  0.0403
 3042W        W19890  17.634  13.158   1.794 -0.0563 -0.0465  0.0668
 3043W        W19891  15.561  14.845   2.739 -0.0687  0.0491 -0.2402
 3044W        W19892   0.201   7.651   3.160  0.3736 -0.1032  0.2814
 3045W        W19893  10.978  16.503   0.972  0.0853 -0.0813  0.0472
 3046W        W19894   3.224   0.530  14.327 -0.0572 -0.1416  0.1967
 3047W        W19895  10.503   2.853   0.141 -0.0206  0.2709  0.0567
 3048W        W19896  10.582  13.806   3.939  0.1470  0.0435  0.1584
 3049W        W19897   8.287   0.455  14.691 -0.1473 -0.0535 -0.2090
 3050W        W19898  11.160  14.718   0.145  0.2016  0.2279  0.1182
 3051W        W19899   0.326  13.756  12.048 -0.0035 -0.1458 -0.4978
 3052W        W19900  17.581  10.683  12.334 -0.0183  0.0181  0.0604
 3053W        W19901   7.188   7.114  12.420  0.0837 -0.0909 -0.0547
 3054W        W19902  17.602   4.422  14.910  0.0949 -0.0145  0.2091
 3055W        W19903   6.681  10.951  11.815  0.3996  0.0281 -0.0004
 3056W        W19904  16.300   0.299  12.177 -0.0398 -0.1886  0.0037
 3057W        W19905   3.455  16.070   0.130  0.1059  0.1926  0.0681
 3058W        W19906  10.323   4.066  13.850  0.0645  0.4183  0.4258
 3059W        W19907   2.076   1.389   0.453 -0.0298  0.1253 -0.0864
 3060W        W19908   7.166  15.706  15.129 -0.0379  0.1110 -0.0558
 3061W        W19909   9.252  17.113  11.586  0.1367 -0.1800  0.0844
 3062W        W19910   9.638   1.871  14.641  0.0167  0.0810 -0.1032
 3063W        W19911  10.696  10.986  14.607  0.0917 -0.1695  0.0918
 3064W        W19912   9.356  14.677   0.068 -0.1390 -0.1838  0.0046
 3065W        W19913   4.545   5.379  11.153 -0.2163  0.1159 -0.0445
 3066W        W19914   6.303   3.333  16.498 -0.2997 -0.3414 -0.2739
 3067W        W19915   4.126   9.886   5.263  0.2967 -0.0977 -0.1689
 3068W        W19916   0.773  12.301   3.710  0.1449  0.0893 -0.0544
 3069W        W19917   8.546   3.679  13.082 -0.1388  0.1265  0.1166
 3070W        W19918   4.817   3.977   5.184  0.1038  0.1347 -0.4417
 3071W        W19919   8.507  10.311   1.520  0.0234 -0.0203 -0.0986
 3072W        W19920  16.833  13.504   2.594 -0.0053 -0.1652 -0.0761
 3073W        W19921   9.599  17.216   0.523 -0.2661  0.0674 -0.0812
 3074W        W19922   4.726  17.230  12.921 -0.1498  0.0529  0.2197
 3075W        W19923  15.569  14.997  15.178  0.0483  0.1977  0.0769
 3076W        W19924   8.555  17.036   1.295 -0.0800  0.2098  0.0273
 3077W        W19925  10.226   2.604   3.119 -0.1753  0.0553 -0.2213
 3078W        W19926   7.064   4.319   0.729  0.0046  0.0997 -0.3793
 3079W        W19927   1.457   2.399  14.285  0.1648 -0.1674  0.0628
 3080W        W19928  13.020   3.656   3.736 -0.1220 -0.2353 -0.3315
 3081W        W19929  16.739   6.444   0.385  0.0113  0.2115 -0.0909
 3082W        W19930   8.351  15.419  12.799 -0.4724  0.1450 -0.1850
 3083W        W19931  17.031  10.292   5.570  0.1504 -0.3891  0.2742
 3084W        W19932  13.627   1.829  12.039  0.1593  0.0117 -0.0189
 3085W        W19933   5.658   6.929   3.866  0.1423 -0.1223 -0.0426
 3086W        W19934  11.657  11.306  16.115  0.0418 -0.0316 -0.0300
 3087W        W19935   1.485  13.665   4.149  0.2629  0.1034  0.3298
 3088W        W19936   7.307   0.401  16.317  0.1450  0.2012  0.2110
 3089W        W19937  13.079   3.496   4.207  0.1214  0.1784  0.0404
 3090W        W19938   6.798   6.715  12.724 -0.1553  0.1284  0.1951
 3091W        W19939   0.825  17.690  12.573  0.1078 -0.0895 -0.0513
 3092W        W19940   1.172  15.580   1.883  0.1227 -0.0878  0.0921
 3093W        W19941   6.772   5.295   1.213  0.0041  0.1151 -0.0393
 3094W        W19942  13.903  12.939   5.496 -0.0566  0.0019  0.0306
 3095W        W19943   9.120   6.527  13.646 -0.2275  0.3475 -0.0847
 3096W        W19944  13.753   7.282  13.853  0.1543  0.2662  0.1898
 3097W        W19945   2.873   8.342  12.860 -0.0640 -0.0004 -0.0277
 3098W        W19946  16.028   3.775   3.584  0.1050 -0.0327  0.5320
 3099W        W19947   8.816   1.495   1.029  0.3209 -0.1426  0.1044
 3100W        W19948   3.534   7.965   2.138 -0.1307  0.3454  0.3698
 3101W        W19949   0.174   9.518  12.898  0.0241  0.0015  0.1316
 3102W        W19950  14.628  15.331   2.629  0.0963 -0.1178  0.4241
 3103W        W19951  13.725   6.346  12.981  0.1456  0.0693  0.0027
 3104W        W19952  10.179   4.090  15.323  0.1424  0.3453 -0.0407
 3105W        W19953   9.920   2.900   0.911 -0.0967 -0.0186 -0.0915
 3106W        W19954   6.937  15.053   3.612  0.3055 -0.0672 -0.2405
 3107W        W19955  15.489  11.499  16.552 -0.2245  0.0818 -0.1815
 3108W        W19956  13.506   3.182   3.001 -0.1506 -0.0259  0.0984
 3109W        W19957   7.174  13.772  11.463  0.0002 -0.0346 -0.1363
 3110W        W19958   3.408   1.932  12.137 -0.0088 -0.0151 -0.1174
 3111W        W19959   1.760  10.062   1.779 -0.1933  0.1599  0.3157
 3112W        W19960  12.096   2.392  14.686 -0.0638  0.1282 -0.2341
 3113W        W19961   8.671   9.038   1.200 -0.3616  0.2663  0.1520
 3114W        W19962  16.981   8.335  14.680 -0.0323 -0.2162 -0.0867
 3115W        W19963   1.896  15.588   2.286  0.0072  0.3584  0.2724
 3116W        W19964   7.432  17.619   5.435 -0.0509 -0.0262 -0.2930
 3117W        W19965   2.019  12.307   2.499  0.3998 -0.2797  0.3594
 3118W        W19966   8.120  12.192  11.497  0.2893  0.1377  0.1320
 3119W        W19967   7.994   6.655   0.240 -0.0124 -0.0432  0.0589
 3120W        W19968  15.446  10.977  14.475  0.0787  0.1603 -0.2843
 3121W        W19969   1.032   7.585   4.890 -0.0620  0.0154  0.1356
 3122W        W19970  15.297   5.653  15.122 -0.0675  0.0453 -0.1316
 3123W        W19971  17.456   3.072  12.179 -0.0763  0.1018 -0.0359
 3124W        W19972   1.686   5.832  14.559  0.1740 -0.1826 -0.1449
 3125W        W19973  12.285   1.280   0.181  0.0739  0.2279 -0.0947
 3126W        W19974   8.905   4.024  11.535  0.1118  0.0117 -0.1991
 3127W        W19975  10.516  10.995  15.673  0.0011 -0.0259  0.6231
 3128W        W19976   1.921   1.291  14.491 -0.0864 -0.1909  0.0228
 3129W        W19977  15.371   3.456   1.012 -0.2574  0.1302 -0.2705
 3130W        W19978  15.019  15.057   3.848  0.1272  0.2512 -0.0604
 3131W        W19979   1.879  11.665  14.308 -0.1887 -0.0962  0.0331
 3132W        W19980   6.218   9.794   4.467 -0.2097 -0.2281 -0.0016
 3133W        W19981   4.390  13.405  14.248 -0.0881 -0.0591  0.0697
 3134W        W19982  15.225   9.282  13.901  0.1152 -0.1250 -0.0298
 3135W        W19983  15.682  15.371  16.581  0.1286  0.1070 -0.0116
 3136W        W19984  11.099  17.226   1.317 -0.2359  0.2225 -0.1401
 3137W        W19985   9.761   0.782  16.476  0.2604  0.2028 -0.2189
 3138W        W19986  15.171   1.615  12.051 -0.0463  0.0430 -0.3573
 3139W        W19987  11.406   9.124  11.714  0.4275  0.1417 -0.2765
 3140W        W19988   9.081   2.106   0.383 -0.3063  0.0527 -0.0016
 3141W        W19989   7.410   1.836  12.045 -0.2744 -0.1998  0.0094
 3142W        W19990   1.625   4.708   4.117  0.5084 -0.0058  0.0851
 3143W        W19991   9.803   2.547   1.598 -0.1407  0.1925  0.1711
 3144W        W19992   1.280  17.005   2.222  0.0966 -0.3430 -0.1476
 3145W        W19993   5.798   6.347   0.230  0.0885 -0.2665  0.1038
 3146W        W19994   1.492   6.105   4.689  0.0388  0.4272 -0.1497
 3147W        W19995  10.504   3.573   2.443 -0.0670 -0.0420  0.2852
 3148W        W19996  12.364  11.930   1.045 -0.0337  0.1635  0.0015
 3149W        W19997   4.728  10.538   2.332 -0.2031 -0.1525 -0.2485
 3150W        W19998   2.772   4.266  13.791 -0.1599 -0.0135 -0.0020
 3151W        W19999  15.888   6.856  12.428  0.0806 -0.2443 -0.1957
 3152W        W20000   9.974  17.411  13.519 -0.0556  0.0983 -0.0681
 3153W        W20001  16.752   5.949   1.891 -0.4670  0.2019 -0.0597
 3154W        W20002   6.686  16.924  11.901 -0.0702  0.0237  0.2375
 3155W        W20003   5.039  13.735   3.593  0.0276 -0.0281  0.3529
 3156W        W20004  14.956  10.635  15.667  0.0858  0.0260  0.1633
 3157W        W20005  14.260  14.459   0.035  0.1698  0.1098  0.0319
 3158W        W20006  16.418   4.824   0.215 -0.1857 -0.3184 -0.1390
 3159W        W20007   0.118  12.063   4.330 -0.1438  0.1530 -0.0413
 3160W        W20008   1.669   1.173  13.580 -0.0170 -0.0886  0.0881
 3161W        W20009   4.730  13.072  16.548 -0.0482  0.1675  0.0252
 3162W        W20010   5.967   0.885   3.087 -0.2440  0.3752  0.0348
 3163W        W20011   8.841   5.909   4.940 -0.0535  0.0532 -0.0683
 3164W        W20012   9.811  11.445   1.338 -0.2481  0.0911 -0.0543
 3165W        W20013   4.620   5.380   0.239 -0.0041  0.0402  0.1405
 3166W        W20014   4.166   7.119  12.293 -0.0648  0.0881 -0.0506
 3167W        W20015   0.768  15.151  11.967 -0.1170  0.1530  0.4379
 3168W        W20016  15.145  11.982   2.126  0.1023 -0.2008  0.0482
 3169W        W20017   0.324   2.399   2.166  0.0455 -0.2276  0.1207
 3170W        W20018   1.628   7.547   0.799  0.1830  0.1507  0.1293
 3171W        W20019  12.996   7.088   0.314 -0.0501  0.0670  0.3123
 3172W        W20020   9.964  16.017  15.806 -0.3717 -0.1487  0.0534
 3173W        W20021   4.447   7.833  14.171  0.1010 -0.0209  0.0431
 3174W        W20022  12.502  11.234  11.589  0.2635  0.1175 -0.1810
 3175W        W20023  14.101  15.866   2.055 -0.0094  0.3058  0.3513
 3176W        W20024   3.799  10.344  12.723  0.1850 -0.0542  0.2272
 3177W        W20025   3.013   8.665  14.169  0.1003 -0.0580  0.2556
 3178W        W20026  16.868  10.102   3.972 -0.2441 -0.2296 -0.0948
 3179W        W20027  13.249   7.280  15.681 -0.0330 -0.0028 -0.1092
 3180W        W20028  16.355  13.880   1.424 -0.1727 -0.1023 -0.0209
 3181W        W20029   2.118   5.361  13.258 -0.2602  0.1965 -0.3489
 3182W        W20030   1.746   1.148   0.703 -0.4231 -0.1537  0.0572
 3183W        W20031  12.499   3.667  12.881 -0.0378 -0.0447 -0.1480
 3184W        W20032   3.523   9.020   1.922 -0.1248 -0.0412 -0.0868
 3185W        W20033   0.093  15.253  11.300  0.0139 -0.0778  0.2997
 3186W        W20034   0.792   1.539   3.199  0.1054 -0.0606  0.1639
 3187W        W20035  12.808   7.503   0.566  0.0529  0.1093 -0.1423
 3188W        W20036   4.838   8.642  16.628  0.0737 -0.0523 -0.1200
 3189W        W20037   8.770  14.156   2.686  0.0381  0.0804 -0.1398
 3190W        W20038   2.675  16.371   3.967  0.1521 -0.0711 -0.0396
 3191W        W20039   6.410   1.198  12.924  0.0394 -0.0449  0.0487
 3192W        W20040  14.739  12.831   5.394 -0.1517 -0.1032 -0.2477
 3193W        W20041   3.599  11.595   0.264 -0.0546  0.0630  0.0575
 3194W        W20042  13.206   6.727  13.084  0.0728  0.0470  0.0711
 3195W        W20043   9.896   1.647   2.220 -0.2277 -0.0707 -0.1592
 3196W        W20044   8.961   0.236  16.200  0.1501 -0.1216 -0.0799
 3197W        W20045   5.471  16.848   0.528 -0.4789  0.4935 -0.0460
 3198W        W20046  10.170  16.768  10.582 -0.1380 -0.1813  0.2532
 3199W        W20047   0.465  13.051   3.845 -0.0944 -0.1696  0.0145
 3200W        W20048   9.997   8.733   3.683  0.1030 -0.1524  0.1536
 3201W        W20049  11.188   3.690   4.011 -0.1116 -0.0229  0.1338
 3202W        W20050   2.013   5.859   4.065  0.1621  0.1414  0.3032
 3203W        W20051   3.093   8.063  15.432 -0.0099  0.0950  0.2282
 3204W        W20052   5.018   8.480  15.141  0.0553  0.0551  0.3200
 3205W        W20053   6.266   6.513  13.684  0.1329  0.1398  0.2420
 3206W        W20054  16.603   2.491  14.684 -0.1147 -0.3902 -0.3429
 3207W        W20055  13.064  10.835   2.350  0.1593  0.3404 -0.1029
 3208W        W20056   7.247  10.492  12.316  0.0833  0.1052 -0.1359
 3209W        W20057  10.618   2.415  12.859  0.1767  0.1477 -0.1253
 3210W        W20058  10.118   9.006  15.655  0.0424 -0.0345  0.1629
 3211W        W20059   9.507   5.242  15.635  0.3160 -0.1904 -0.1724
 3212W        W20060   5.521   8.576   2.034 -0.0596 -0.0228 -0.1524
 3213W        W20061   9.554   8.282  15.990  0.2529 -0.2175  0.1962
 3214W        W20062   8.301  10.479  12.382 -0.2211  0.1670 -0.0069
 3215W        W20063   6.666   8.222   1.424  0.0334  0.0585  0.1609
 3216W        W20064  17.529   4.894  16.570 -0.1488 -0.1430 -0.1841
 3217W        W20065   1.859  16.578   1.251 -0.2458 -0.2179  0.0840
 3218W        W20066  10.440   9.043  14.558  0.0773 -0.0805 -0.0220
 3219W        W20067  16.387  11.946   2.705 -0.3448  0.1576  0.0682
 3220W        W20068   2.299  10.766   5.504  0.2651  0.0951 -0.0140
 3221W        W20069  11.397   2.719   0.044 -0.0948 -0.2416 -0.4520
 3222W        W20070   1.854  10.947  15.860 -0.0274  0.1300  0.2376
 3223W        W20071   0.251   4.727   2.986 -0.2300  0.0442  0.1287
 3224W        W20072  11.110  14.850  12.893 -0.1868 -0.1002 -0.3390
 3225W        W20073   6.015  15.580   6.611  0.5234  0.1949  0.0039
 3226W        W20074   6.548   9.479  16.589  0.3867  0.0656  0.1689
 3227W        W20075  15.209   3.202   5.124  0.1915  0.2484  0.1808
 3228W        W20076   4.662   6.879  15.521  0.0478  0.1223 -0.0312
 3229W        W20077   9.024  11.308   3.894 -0.0251  0.1803 -0.1430
 3230W        W20078   7.899  16.487  11.371  0.2104 -0.0831 -0.2324
 3231W        W20079  12.444   5.385  12.034  0.0769  0.0864 -0.2242
 3232W        W20080   8.009   5.800  13.660 -0.1501 -0.1745  0.0871
 3233W        W20081   0.421   3.918  13.840  0.1587  0.2195 -0.2401
 3234W        W20082   7.513  16.032   1.522 -0.3428 -0.4227 -0.0532
 3235W        W20083   0.591   8.291   2.493 -0.0726 -0.1275  0.0967
 3236W        W20084   3.814   7.046  14.123  0.0257 -0.2852 -0.1486
 3237W        W20085   2.770   5.294  14.375 -0.1851  0.4017  0.0350
 3238W        W20086   5.353   1.291  12.478  0.0746  0.0282 -0.0652
 3239W        W20087   8.247  15.082   5.170  0.3237  0.0182 -0.0263
 3240W        W20088   8.528   1.650  13.885 -0.3588 -0.1655  0.1129
 3241W        W20089  15.515   1.405  16.016  0.1702 -0.0326 -0.1070
 3242W        W20090  11.490   0.286   2.549 -0.1529  0.1083  0.1084
 3243W        W20091  13.998   1.812   3.864  0.1839 -0.0552 -0.1080
 3244W        W20092  11.756  16.817   1.281 -0.2729  0.4461  0.0293
 3245W        W20093   4.970  17.434   4.347  0.1128  0.0571  0.1784
 3246W        W20094   2.483  12.085   4.328 -0.2407  0.1990 -0.3206
 3247W        W20095   2.043   5.668  13.656 -0.0341  0.0657  0.0614
 3248W        W20096   9.037   7.309   2.709 -0.0955  0.2155 -0.3010
 3249W        W20097   4.567  11.430   4.969 -0.0084  0.3421  0.0195
 3250W        W20098   8.955   9.258  14.825 -0.1496  0.0559  0.1365
 3251W        W20099   5.662  14.049  13.763 -0.1620 -0.1342  0.0142
 3252W        W20100  12.533   7.288   4.621 -0.0885  0.4126  0.0655
 3253W        W20101  15.023   3.329   3.968 -0.1665 -0.1089  0.1768
 3254W        W20102   3.077   6.623  11.140 -0.3578 -0.2748  0.0631
 3255W        W20103   8.268   6.408   1.505  0.1064  0.0257  0.0069
 3256W        W20104   3.562  13.426  15.842  0.1608  0.2698 -0.1783
 3257W        W20105   7.874   6.872   1.598  0.0201 -0.0904  0.2392
 3258W        W20106  11.378  16.352   2.270 -0.0198  0.0982 -0.1321
 3259W        W20107  14.602  16.386  14.507  0.2102  0.1785  0.3837
 3260W        W20108   0.580  16.446  13.370 -0.0179 -0.0608 -0.0382
 3261W        W20109  15.087  16.633  16.585 -0.0351 -0.5380 -0.1468
 3262W        W20110   1.326  15.182  11.623  0.1895 -0.2464 -0.0378
 3263W        W20111  11.611   5.064   0.728  0.2517 -0.0636 -0.0711
 3264W        W20112   2.370   5.171   4.058  0.5350 -0.3099 -0.1467
 3265W        W20113   9.354  10.637   1.480  0.0565 -0.1647  0.5651
 3266W        W20114  12.368   0.628   1.936  0.1181  0.0173 -0.1807
 3267W        W20115  13.690   4.265  15.606 -0.2520 -0.0529 -0.0246
 3268W        W20116  11.077  16.220   2.716  0.0978 -0.2851  0.4100
 3269W        W20117   7.545  10.606  15.880 -0.1508 -0.0472 -0.1789
 3270W        W20118   1.427   5.672   1.132 -0.3657  0.2134 -0.2526
 3271W        W20119  12.522   5.158  15.150 -0.0773 -0.4587  0.2057
 3272W        W20120  17.451  13.304  16.202  0.0719 -0.0758  0.0765
 3273W        W20121   2.628  13.487  13.548 -0.2217 -0.2459  0.2499
 3274W        W20122  12.483   5.970  16.071  0.0366 -0.3133  0.0083
 3275W        W20123   7.013   7.036   2.017  0.0771  0.0265  0.1606
 3276W        W20124  14.787   9.112  12.067 -0.0451  0.1480  0.2037
 3277W        W20125   8.908  11.669  14.913  0.2871 -0.2352 -0.2268
 3278W        W20126   7.342   3.220   3.760  0.0977  0.1671 -0.0786
 3279W        W20127  11.972   6.027  14.163 -0.0400  0.1233 -0.1034
 3280W        W20128   4.123   3.316   5.174 -0.1267 -0.0287  0.2324
 3281W        W20129   1.251  15.334  14.714 -0.1176  0.3204  0.0817
 3282W        W20130  10.346   1.839  16.666 -0.0373 -0.0618 -0.0489
 3283W        W20131   1.727   3.572  13.870  0.2094  0.0604 -0.1097
 3284W        W20132   9.792  16.226  12.304 -0.0722  0.0059 -0.0404
 3285W        W20133   0.879   1.255  12.199 -0.0244 -0.3662 -0.1115
 3286W        W20134  15.514   9.839   4.942  0.2798 -0.0115  0.3099
 3287W        W20135  17.045  16.085   0.819  0.4262 -0.0952  0.3740
 3288W        W20136   0.325   7.063  16.108 -0.0586 -0.1795  0.4840
 3289W        W20137  14.344  14.522  12.410 -0.1562 -0.0210  0.0200
 3290W        W20138   3.936   0.209   1.548 -0.4444  0.0249  0.2357
 3291W        W20139  16.861   3.015  12.952  0.0207 -0.0103  0.2135
 3292W        W20140   3.128   1.417   1.399  0.0458  0.3828  0.1149
 3293W        W20141   5.413  17.193  14.345  0.0022 -0.0460  0.2058
 3294W        W20142   6.490   9.368   2.950  0.1304  0.0233 -0.0199
 3295W        W20143   2.560  16.893   3.729  0.0394  0.0132 -0.0530
 3296W        W20144  13.413   8.465  12.216  0.3183 -0.3239 -0.0985
 3297W        W20145  14.764   3.329  15.453 -0.1796  0.1975  0.0645
 3298W        W20146  13.057  14.815   0.433  0.0699  0.1660 -0.2508
 3299W        W20147  11.318   3.221  12.817  0.1670  0.3554 -0.1472
 3300W        W20148   6.300  10.695   4.644 -0.1226 -0.3555  0.2179
 3301W        W20149  16.458   4.090   3.642  0.1054 -0.0368  0.3045
 3302W        W20150   9.089  12.419  12.231 -0.0132  0.3684  0.0596
 3303W        W20151   7.222   3.638  12.701  0.0410  0.0223 -0.0333
 3304W        W20152   7.939  14.850   2.752  0.1401 -0.1778 -0.1762
 3305W        W20153   8.442   2.480   1.045  0.0613  0.0626 -0.1622
 3306W        W20154   2.403   5.174  13.680 -0.0533  0.3368  0.2840
 3307W        W20155   9.862  16.317  16.200 -0.2075 -0.2752  0.3459
 3308W        W20156   3.839  10.690   2.092 -0.2948 -0.1596  0.2906
 3309W        W20157   8.928   5.414   4.877 -0.2983  0.2916  0.2694
 3310W        W20158   1.528  16.389  15.599  0.0053  0.0572 -0.0258
 3311W        W20159   0.601  13.364   2.922 -0.1737 -0.0805 -0.1135
 3312W        W20160  13.630   2.346  14.770 -0.0970  0.1222  0.1632
 3313W        W20161  15.704   6.462   0.480 -0.0879  0.2075 -0.1995
 3314W        W20162   0.390  16.225   4.335 -0.0878  0.1611  0.3523
 3315W        W20163   0.564   0.834   4.668  0.1290 -0.2408  0.0002
 3316W        W20164   2.063  12.615  10.753 -0.1246 -0.1861 -0.4413
 3317W        W20165  10.891   1.032   2.421  0.1980 -0.1120  0.0390
 3318W        W20166   0.844   1.522  16.522 -0.1734 -0.0817 -0.3388
 3319W        W20167   3.406   9.410   3.096 -0.1264  0.3414 -0.1767
 3320W        W20168   0.612   6.402  12.712 -0.0473 -0.3474 -0.3155
 3321W        W20169  14.913   3.644  12.749  0.1259 -0.2448 -0.0500
 3322W        W20170  14.864  17.488   0.429  0.0182  0.0593  0.1802
 3323W        W20171   7.059   6.707  11.562 -0.0402 -0.1102  0.4590
 3324W        W20172   4.880  13.528  13.985  0.0559 -0.1918  0.3253
 3325W        W20173   6.935  11.299  12.323  0.0365 -0.1190 -0.1854
 3326W        W20174  10.941   1.316  14.838 -0.1339 -0.3275 -0.0279
 3327W        W20175   3.134  16.998  12.466  0.0237  0.0340  0.3244
 3328W        W20176   1.788  15.920  14.814 -0.2476 -0.0879  0.0847
 3329W        W20177  14.254  12.078   1.271 -0.0833 -0.1139  0.1336
 3330W        W20178  15.971   1.005  13.385  0.0124 -0.0274  0.1174
 3331W        W20179  13.157  12.396  12.150 -0.0958 -0.1670  0.0453
 3332W        W20180  16.391  13.043   1.888 -0.0366 -0.0150 -0.0173
 3333W        W20181   6.453  11.484   4.687 -0.1628 -0.2464 -0.1358
 3334W        W20182   7.933  14.125   3.107 -0.0545  0.1416 -0.0241
 3335W        W20183   0.919  12.574   3.305 -0.0754 -0.0048 -0.1202
 3336W        W20184   9.446  15.598   2.501  0.0592 -0.0404 -0.2741
 3337W        W20185   4.121   5.603  14.897 -0.1179  0.2406  0.1893
 3338W        W20186   6.690  11.479  13.173 -0.0476 -0.4969  0.0379
 3339W        W20187   2.782  14.229   2.610 -0.1291 -0.1263  0.1633
 3340W        W20188   7.279  12.384   0.647  0.0657 -0.2186  0.1601
 3341W        W20189  15.894  11.352  12.746  0.1193  0.4093 -0.0541
 3342W        W20190   0.478   2.289  15.891 -0.1515  0.0406 -0.0717
 3343W        W20191  17.623   6.719   0.662 -0.1197 -0.0114 -0.3771
 3344W        W20192  15.509   1.161   0.657  0.2820 -0.0869  0.0496
 3345W        W20193  11.926  12.423  12.034  0.2024  0.2119 -0.2617
 3346W        W20194  11.622   1.591   2.800 -0.0194 -0.0523  0.4895
 3347W        W20195   8.852   3.266  13.213 -0.1636  0.1933  0.1732
 3348W        W20196  16.516   0.485  13.411  0.1367  0.0945  0.1388
 3349W        W20197  13.643   7.864  11.188  0.1823  0.1519 -0.0363
 3350W        W20198   9.982   8.761   3.183 -0.0471 -0.3529  0.2745
 3351W        W20199   6.667  10.235   1.777 -0.0122  0.2038 -0.2409
 3352W        W20200  14.467  16.344   4.206  0.0707 -0.0360 -0.2355
 3353W        W20201  12.089   3.324   3.792 -0.0364 -0.1199  0.0029
 3354W        W20202  11.817  11.366  12.998  0.0132 -0.1547 -0.2266
 3355W        W20203  15.768   9.773   4.489 -0.0212 -0.2650 -0.1085
 3356W        W20204   5.142   3.705  13.408 -0.0651  0.0278  0.3381
 3357W        W20205   0.831  10.233  14.225 -0.0128  0.1459  0.1013
 3358W        W20206   8.534   4.712   2.294  0.2138  0.1084 -0.0054
 3359W        W20207  12.132  10.521   4.125  0.0890  0.1212  0.2473
 3360W        W20208   3.288   9.851  11.991  0.1703 -0.0065  0.1074
 3361W        W20209   5.526  10.743  10.619 -0.1199 -0.0222 -0.0485
 3362W        W20210   2.720  13.075  11.305  0.0335  0.0089  0.0790
 3363W        W20211   2.608   2.915  13.462  0.0616 -0.1199  0.0722
 3364W        W20212  14.140   1.705   4.922  0.1258  0.0792 -0.0859
 3365W        W20213  11.976   8.878   3.981  0.0098  0.1880 -0.1022
 3366W        W20214  13.699   1.585   3.193  0.0115  0.1950 -0.2026
 3367W        W20215  11.607   4.304  12.981 -0.1944 -0.1907 -0.1757
 3368W        W20216  17.124  14.650  14.435 -0.2108 -0.3468 -0.0210
 3369W        W20217  15.232   3.293  12.744  0.0576 -0.3890  0.0402
 3370W        W20218   0.953  10.733  12.533  0.2826 -0.0531 -0.1440
 3371W        W20219  12.716   8.139  12.755  0.0100 -0.0792  0.0255
 3372W        W20220   3.764  16.085  16.388  0.2892  0.1281  0.0650
 3373W        W20221   0.482  11.324  11.924 -0.0772 -0.0325 -0.0529
 3374W        W20222   5.037  16.187  13.892 -0.0464 -0.2715 -0.2577
 3375W        W20223  15.375   6.159  15.230  0.4985 -0.1778  0.0463
 3376W        W20224   7.618   3.409   5.419  0.3554  0.0294 -0.0345
 3377W        W20225  13.315   0.938   0.971 -0.3029  0.0130 -0.1250
 3378W        W20226  14.076  13.723  12.895  0.0090  0.0792 -0.0067
 3379W        W20227   5.123   5.743   4.336  0.2167 -0.1830  0.1060
 3380W        W20228   0.229   1.815   0.719 -0.1943 -0.1619  0.0502
 3381W        W20229   2.795   4.740  16.548 -0.0202 -0.0493  0.2641
 3382W        W20230  10.868   0.009  15.894 -0.1544  0.0387  0.0487
 3383W        W20231   1.763  10.455   0.002 -0.0911  0.1232 -0.2688
 3384W        W20232   9.878   5.935  13.044  0.0234 -0.1917  0.2554
 3385W        W20233   6.023   9.411   1.639  0.1450  0.0186  0.0462
 3386W        W20234   6.434   7.016   3.513  0.0112  0.2239  0.2427
 3387W        W20235   7.971  10.580  14.061 -0.0318 -0.1162  0.0144
 3388W        W20236   8.274   0.764  15.180  0.0048 -0.1702 -0.0298
 3389W        W20237  15.021   9.105   3.504 -0.1594 -0.0769  0.1644
 3390W        W20238   4.506   4.724  14.460  0.1926 -0.1124  0.1246
 3391W        W20239  11.750  11.867   2.107 -0.1833  0.1059  0.0582
 3392W        W20240   2.327   2.824   0.183 -0.1059  0.2721 -0.0500
 3393W        W20241   8.066  13.733  16.250  0.5950 -0.2760  0.0256
 3394W        W20242  15.507  11.206   2.058 -0.1721  0.3436  0.0536
 3395W        W20243  10.563   0.968  16.193  0.1621 -0.1915  0.1888
 3396W        W20244  13.241   9.715  13.044 -0.0145  0.1587 -0.1473
 3397W        W20245   8.888   4.134  14.934 -0.0865 -0.4343  0.0042
 3398W        W20246   8.995   7.086  14.479  0.1566  0.1138  0.1334
 3399W        W20247  10.956  14.296  15.733 -0.1338  0.2575  0.1834
 3400W        W20248   4.943  14.988   0.781 -0.2506  0.1069 -0.0319
 3401W        W20249  10.379   1.800   4.149 -0.0872 -0.0166  0.1015
 3402W        W20250  13.929   8.534  15.686 -0.0113 -0.1994  0.1734
 3403W        W20251  16.871   0.931   2.672 -0.2296  0.0346  0.0076
 3404W        W20252   2.849  15.842  14.153  0.2510 -0.1127 -0.2160
 3405W        W20253   4.916   3.300  15.877  0.0836  0.0755  0.0709
 3406W        W20254   1.388   7.928   4.794 -0.0215 -0.0554 -0.2907
 3407W        W20255   3.363   3.718   5.120 -0.0679  0.1246 -0.0641
 3408W        W20256   0.145   7.861   1.708  0.3494  0.0781 -0.0814
 3409W        W20257   9.697  11.733   0.162 -0.2330  0.0562  0.1451
 3410W        W20258  17.040  12.202  16.128  0.3744 -0.1012  0.0020
 3411W        W20259   4.035  12.562   2.079  0.0127  0.3729  0.2470
 3412W        W20260   6.362  17.377   4.596  0.2437  0.0684 -0.1977
 3413W        W20261  13.156  10.556   3.159 -0.1952 -0.4515  0.1897
 3414W        W20262   9.957  16.117   4.221  0.1128 -0.0124  0.0466
 3415W        W20263  11.696   2.037   1.021 -0.1595  0.0858  0.1068
 3416W        W20264  14.714  15.846   3.082 -0.1390  0.3610  0.1077
 3417W        W20265  10.858  10.489   2.926  0.3419 -0.1808 -0.3209
 3418W        W20266  14.984  16.728   0.667  0.3184  0.1286  0.1698
 3419W        W20267   2.617  14.613  13.806  0.2145 -0.0703  0.4326
 3420W        W20268  16.211   6.463  16.334 -0.3134  0.1618 -0.0810
 3421W        W20269   9.235   9.212  16.092  0.1356  0.1638  0.0905
 3422W        W20270  12.873   1.521  15.585  0.0961  0.1336  0.2798
 3423W        W20271  12.619   5.065  11.617  0.0899  0.0990  0.0928
 3424W        W20272   1.004   2.331  15.757  0.0165 -0.0664  0.0504
 3425W        W20273   1.999  15.191   3.046 -0.0714 -0.0676  0.2393
 3426W        W20274   3.077   3.610  15.791  0.1574  0.1202 -0.1461
 3427W        W20275   8.826   1.503  11.649 -0.0306  0.1510  0.0381
 3428W        W20276   5.346   8.407   3.538  0.3005  0.1260 -0.0757
 3429W        W20277   7.756  14.669  13.152 -0.0611  0.0579 -0.1670
 3430W        W20278   6.667  10.548   4.250  0.3112  0.2444 -0.3600
 3431W        W20279   1.532   9.908  16.046  0.2672 -0.0629  0.1007
 3432W        W20280   6.361   2.833   1.076 -0.0848  0.0289 -0.3974
 3433W        W20281  16.998   0.537  14.328 -0.1109  0.1201 -0.0614
 3434W        W20282   8.599  14.581  15.356  0.0196 -0.0599 -0.2532
 3435W        W20283   9.865   6.911  13.156  0.0180 -0.1311  0.3489
 3436W        W20284   3.216   6.421   3.007 -0.0158  0.0991  0.1151
 3437W        W20285  13.581  14.323   2.227  0.0658  0.2868  0.0623
 3438W        W20286  11.246   8.351  11.689  0.1770  0.1071  0.2663
 3439W        W20287  11.142  12.352   2.692 -0.3946  0.0198  0.0137
 3440W        W20288   9.012   8.090   2.246 -0.2859 -0.2482  0.1894
 3441W        W20289  10.725   5.762  14.128 -0.0654  0.0502  0.1461
 3442W        W20290   6.379  11.260   0.683  0.1272 -0.0288  0.0661
 3443W        W20291  17.585   7.064   4.525  0.0138  0.1743  0.3136
 3444W        W20292   1.679   6.793  16.057 -0.0284  0.0284  0.1991
 3445W        W20293  13.388  15.939   2.608  0.2056  0.2260  0.0976
 3446W        W20294   6.748  15.337  13.713 -0.2129  0.0160 -0.0690
 3447W        W20295  11.447   8.863   3.996 -0.0172  0.4048  0.0788
 3448W        W20296  13.321  14.155  13.796 -0.2858  0.0848  0.5694
 3449W        W20297  16.975   0.038   2.688  0.0700 -0.3971  0.1969
 3450W        W20298  12.801   6.438  13.974 -0.0930  0.0197 -0.2423
 3451W        W20299   3.821  16.542   4.882  0.0104 -0.2735 -0.2771
 3452W        W20300  15.516  12.366   3.516  0.2427 -0.1106  0.1262
 3453W        W20301   1.736   2.801  14.566 -0.0714  0.0466 -0.1286
 3454W        W20302   2.885  17.163  13.715 -0.2908  0.2035 -0.0174
 3455W        W20303  12.023   3.866  13.019 -0.0620  0.1633 -0.0058
 3456W        W20304   2.726   2.086   5.402  0.0881  0.0026 -0.0446
 3457W        W20305  10.157   0.847  14.972  0.1418  0.3212 -0.0615
 3458W        W20306   8.343   7.093  15.244  0.0234 -0.1131  0.0699
 3459W        W20307   8.217   2.735  11.434 -0.0355  0.3169  0.0860
 3460W        W20308   3.212   9.731  16.163 -0.0591  0.1811  0.0090
 3461W        W20309  16.785   5.879   4.864  0.0819 -0.2121 -0.4055
 3462W        W20310   6.521   9.834   0.345  0.0859 -0.0634 -0.1059
 3463W        W20311   4.756   5.923   4.672 -0.1392  0.0161 -0.1509
 3464W        W20312   9.488  14.650   2.492  0.2198  0.0870 -0.2807
 3465W        W20313   6.400  12.446   0.129  0.3258  0.0793 -0.0491
 3466W        W20314  11.964   9.753   4.464  0.2127 -0.3768  0.0624
 3467W        W20315  13.308  15.604  12.598  0.0279  0.1172 -0.0503
 3468W        W20316  15.981   0.257   4.739  0.2128  0.4507 -0.2651
 3469W        W20317   4.790   9.851   1.920  0.3179  0.0828 -0.0424
 3470W        W20318   0.787  12.834   4.719 -0.1851 -0.0301 -0.0091
 3471W        W20319   1.462   2.802  13.861  0.1689  0.1526  0.0880
 3472W        W20320   8.685   6.899  13.864  0.1974 -0.4765  0.1453
 3473W        W20321  12.560  15.813   4.506  0.2911  0.0749  0.2257
 3474W        W20322   6.066   0.799   1.446 -0.0519  0.2907 -0.0368
 3475W        W20323  12.311   8.291   5.028 -0.3969 -0.2356  0.0016
 3476W        W20324   9.992   5.806  14.871 -0.0249 -0.3801  0.0715
 3477W        W20325   1.267   4.029   0.851  0.0026 -0.1624  0.0780
 3478W        W20326   1.820   4.942   1.058 -0.0565 -0.2202 -0.1819
 3479W        W20327  15.027  17.517   1.910 -0.1186 -0.0151 -0.2073
 3480W        W20328  13.877   3.767   0.291  0.0181 -0.1991 -0.0913
 3481W        W20329   6.885   3.256   1.578  0.1885 -0.1178 -0.1376
 3482W        W20330   8.464   7.624  15.413  0.0500 -0.0067  0.0999
 3483W        W20331   4.691   8.262   0.312 -0.0283 -0.2379 -0.3921
 3484W        W20332  11.681   5.194  14.597 -0.2799 -0.1671  0.3490
 3485W        W20333  10.038   5.868  11.044 -0.3412  0.0055 -0.0557
 3486W        W20334   6.035   4.864   3.818  0.0425 -0.1486 -0.0078
 3487W        W20335  17.180   3.858  13.716 -0.0537  0.0949  0.2101
 3488W        W20336   8.122   1.491   2.329 -0.0145 -0.1489 -0.1985
 3489W        W20337   6.931   5.609  11.733 -0.2443 -0.3036 -0.0625
 3490W        W20338   8.077   3.771  13.756  0.2776 -0.0945 -0.2006
 3491W        W20339   2.251  10.881   0.987 -0.1669  0.0535 -0.1774
 3492W        W20340   6.212   7.770  14.285 -0.0823  0.0160  0.2237
 3493W        W20341   2.527  13.258   2.278  0.0983  0.1769  0.0129
 3494W        W20342   6.407  11.379  15.575  0.1737  0.0643 -0.2677
 3495W        W20343  14.855   8.954  13.094  0.1631  0.2042  0.1623
 3496W        W20344   1.847   8.468   2.649 -0.1246 -0.0440 -0.3605
 3497W        W20345  16.902  16.368  12.633 -0.3430 -0.1049 -0.1533
 3498W        W20346   7.673   9.045   3.078  0.4421 -0.2705  0.3258
 3499W        W20347  11.418   9.650   1.749 -0.0324 -0.0482 -0.0116
 3500W        W20348   0.484  13.836   3.005 -0.1595  0.0647  0.0050
 3501W        W20349   3.777  14.390   3.824 -0.2620 -0.1797 -0.0702
 3502W        W20350   9.328  13.020   4.970  0.1015  0.1031 -0.3234
 3503W        W20351   5.120   0.408   1.339  0.0092 -0.2594  0.1124
 3504W        W20352  15.218  13.434   4.284 -0.4259 -0.0944 -0.1558
 3505W        W20353  16.755  10.623   4.900 -0.0712  0.0548  0.4202
 3506W        W20354  10.889  14.408   1.183 -0.0309  0.2516  0.3073
 3507W        W20355   7.052   8.084   5.356 -0.0860  0.0741  0.1320
 3508W        W20356   2.615   2.850   1.161  0.1099 -0.1310  0.1525
 3509W        W20357   0.723   5.748   0.922  0.0272 -0.1808 -0.1958
 3510W        W20358  15.908  10.962   4.945  0.0351 -0.0365  0.4306
 3511W        W20359   3.661   5.423  11.532  0.0047 -0.1831  0.0812
 3512W        W20360  10.091   8.104  12.294 -0.2165  0.0903 -0.0365
 3513W        W20361  10.429   7.322   2.027  0.0129  0.0802 -0.0872
 3514W        W20362   5.178   2.479   0.199  0.0833  0.1889 -0.2403
 3515W        W20363  14.744  16.095  14.007  0.2713  0.3200  0.2500
 3516W        W20364  13.082  15.770   0.632  0.2341  0.1360  0.1268
 3517W        W20365   8.637  12.844   1.923  0.1244  0.2711  0.0193
 3518W        W20366   8.183  12.255   4.411 -0.0483 -0.2334 -0.0612
 3519W        W20367  13.982  16.204   4.314  0.1052 -0.1119 -0.3037
 3520W        W20368   1.885  11.830  16.561 -0.0945 -0.0884 -0.0570
 3521W        W20369   6.120   9.271  14.085 -0.2852  0.1167 -0.0395
 3522W        W20370   2.783   3.771  15.017 -0.3074  0.1563  0.0389
 3523W        W20371   0.998  12.379  10.465  0.2347 -0.0490 -0.1367
 3524W        W20372   1.561   5.819  16.433 -0.1618  0.0418  0.0324
 3525W        W20373   7.860   4.700  16.262 -0.3134 -0.2581 -0.2324
 3526W        W20374  15.803  10.375   1.601  0.2472  0.0940  0.0452
 3527W        W20375   3.726   8.302   1.753 -0.1184 -0.1002 -0.1852
 3528W        W20376   3.087  14.576   2.825  0.1697 -0.0787 -0.1435
 3529W        W20377   1.273   8.282  15.620 -0.2201 -0.0535 -0.0349
 3530W        W20378  10.611  10.259   0.736  0.0645 -0.3440 -0.0474
 3531W        W20379  11.349   8.057  14.862  0.0322 -0.0740  0.1227
 3532W        W20380  15.185  17.482  11.858 -0.1968 -0.1978 -0.0223
 3533W        W20381  16.994   1.566  12.691  0.1994  0.1113  0.0697
 3534W        W20382  10.190   0.603  15.937  0.0247  0.0577 -0.0216
 3535W        W20383  13.111  15.292   5.076 -0.2370  0.0415  0.1471
 3536W        W20384  11.338  11.794  11.791 -0.2916 -0.1002  0.1596
 3537W        W20385   6.544  11.031  13.316 -0.1071  0.1498 -0.2668
 3538W        W20386   9.017  12.474   3.126 -0.0601 -0.3057 -0.2455
 3539W        W20387   6.121  15.991   2.890  0.3100 -0.1530 -0.0867
 3540W        W20388   7.957  11.009   2.518 -0.0130 -0.2375  0.2811
 3541W        W20389  16.699  17.023   1.813  0.1439 -0.1715  0.0039
 3542W        W20390   5.576  15.503   4.612  0.0563 -0.0976 -0.0707
 3543W        W20391   8.887  17.564  15.182  0.1676  0.1923  0.1952
 3544W        W20392   3.876  11.180   2.222 -0.0442  0.2408 -0.0504
 3545W        W20393   3.783  15.231   1.009 -0.0394 -0.2395  0.1656
 3546W        W20394   5.689   7.549   3.710  0.0803  0.0447  0.0990
 3547W        W20395  14.062   5.505  16.673 -0.1868  0.2161 -0.0293
 3548W        W20396   6.253   8.581  15.641 -0.2836  0.0174 -0.0491
 3549W        W20397   0.550  11.817  13.192  0.1560 -0.1098  0.2097
 3550W        W20398   1.173   9.942   4.246  0.0803 -0.1979  0.3853
 3551W        W20399   3.918  13.015  11.344  0.1172 -0.3824 -0.0311
 3552W        W20400   5.974   5.309   1.535 -0.1005  0.1929 -0.2299
 3553W        W20401  13.415   3.628  14.454 -0.3674  0.0880  0.4482
 3554W        W20402  10.045  16.012   0.345  0.0847 -0.1291 -0.4224
 3555W        W20403   2.693   4.851   4.280 -0.2374 -0.0177  0.1343
 3556W        W20404   1.083   5.904  12.580 -0.0944  0.2220 -0.1274
 3557W        W20405   2.758  13.254   5.119  0.5506  0.1777 -0.3974
 3558W        W20406   2.130  10.446   5.135  0.2563  0.1305  0.0223
 3559W        W20407   8.002   9.698   4.340 -0.1199  0.2366 -0.3404
 3560W        W20408  16.462  12.691   2.224 -0.0314 -0.2382 -0.0620
 3561W        W20409  11.740   8.952   3.513 -0.2231  0.0323  0.0036
 3562W        W20410   6.597  14.479  14.765  0.0302  0.2355  0.1263
 3563W        W20411  10.131   7.373  14.051  0.0676  0.0945 -0.0205
 3564W        W20412  11.715   7.928  11.416  0.1041 -0.3097 -0.0650
 3565W        W20413   0.212  13.944  14.467  0.0241  0.1802 -0.0988
 3566W        W20414  16.367  13.238  15.484  0.1007  0.1802  0.3951
 3567W        W20415   5.601   6.737  11.875  0.0930  0.2489 -0.1219
 3568W        W20416   6.750  17.411   2.047 -0.1165 -0.0280  0.4100
 3569W        W20417  14.630   1.496   3.160 -0.2115 -0.1329 -0.1431
 3570W        W20418  16.175   7.750  14.966  0.1905  0.0472 -0.2834
 3571W        W20419  12.140   1.994   3.603  0.0831 -0.0720 -0.0602
 3572W        W20420   2.295  15.083   1.282  0.3223  0.0731  0.1632
 3573W        W20421   9.119   3.006   0.194  0.0689 -0.0321  0.0921
 3574W        W20422   6.445  16.135   3.243  0.1840  0.3469  0.1505
 3575W        W20423   8.410   1.918   2.522 -0.0529  0.1615  0.2983
 3576W        W20424  14.440   4.289   4.288  0.1006 -0.0482 -0.0912
 3577W        W20425  13.561  13.447  11.446  0.1893 -0.2056 -0.0597
 3578W        W20426   6.010  13.949   2.203  0.0175 -0.0623  0.1011
 3579W        W20427  16.921  17.101  12.161  0.0797  0.0041  0.0526
 3580W        W20428   5.011  14.513   0.683 -0.0072 -0.0942  0.1173
 3581W        W20429   8.170  11.832   5.260  0.0251  0.0090 -0.2070
 3582W        W20430   4.825   8.080   3.507 -0.1948  0.1876  0.1397
 3583W        W20431   9.329  14.775  14.791  0.1200  0.0440  0.0064
 3584W        W20432   7.679   8.093   2.237  0.2268 -0.2699  0.0788
 3585W        W20433  13.445   1.201   4.408 -0.2481  0.1780 -0.1318
 3586W        W20434  12.339   9.438  12.865 -0.0426 -0.0178  0.1316
 3587W        W20435   7.987   4.955   2.864  0.0527 -0.0561 -0.1216
 3588W        W20436   8.815   8.879  16.012 -0.1924 -0.2874  0.0326
 3589W        W20437  14.549  16.815  14.346 -0.0608 -0.2270  0.0738
 3590W        W20438  13.755   9.847   1.219 -0.2127  0.4246  0.1371
 3591W        W20439   7.993  13.285   4.777 -0.0676  0.0287 -0.0954
 3592W        W20440   1.552   1.189   0.264 -0.2553  0.1953  0.2965
 3593W        W20441   7.639   5.328   2.919 -0.0778 -0.1375  0.2700
 3594W        W20442  17.299   4.578  14.500  0.1967  0.2095  0.0119
 3595W        W20443   5.715  14.574  13.632 -0.0069  0.0870  0.0918
 3596W        W20444   7.972  14.375  11.675  0.0014 -0.0596  0.2712
 3597W        W20445  14.502   6.421   2.474  0.0247 -0.1140 -0.0777
 3598W        W20446   7.751   2.013  14.887  0.0939 -0.3716  0.1520
 3599W        W20447  17.589   6.423  12.263  0.3013 -0.3519  0.1726
 3600W        W20448  13.191   1.827  12.840  0.1256  0.0125  0.1839
 3601W        W20449  13.439   5.036   0.589  0.0774 -0.1728 -0.0353
 3602W        W20450  12.564  12.207   0.730 -0.1370 -0.0560  0.2370
 3603W        W20451   7.270  13.850  13.700  0.2647 -0.1361  0.1686
 3604W        W20452  15.610   5.627   3.238 -0.0964 -0.1984 -0.2306
 3605W        W20453   4.790  16.761   3.826 -0.2839  0.0497 -0.0139
 3606W        W20454   6.957  15.408   5.109  0.0612  0.1966 -0.3130
 3607W        W20455   4.425   6.202   5.654  0.1748  0.3036 -0.1318
 3608W        W20456   8.496   3.388  15.172 -0.0471 -0.0228  0.1696
 3609W        W20457   9.387  11.415   1.695  0.2617 -0.2972 -0.4850
 3610W        W20458   2.193  17.000   4.073 -0.2590  0.1256  0.1734
 3611W        W20459   3.553   0.635   0.283  0.0654 -0.1585  0.2301
 3612W        W20460   9.753   5.892   0.838  0.2335  0.1904  0.1130
 3613W        W20461   6.605   5.672  14.611  0.3490  0.0818  0.0015
 3614W        W20462   8.906   7.956   5.634  0.4388  0.1445  0.3069
 3615W        W20463  12.367  13.795   2.429  0.4044 -0.3145 -0.2624
 3616W        W20464   4.923   2.528  11.401 -0.0158  0.1502  0.3264
 3617W        W20465   9.868   4.241   4.490 -0.0352 -0.1338  0.3408
 3618W        W20466  12.874   4.437   0.882 -0.3155 -0.3747  0.2240
 3619W        W20467  12.142   6.071   1.301 -0.3235 -0.2089 -0.2992
 3620W        W20468   0.281  14.866   4.719  0.1140 -0.1881  0.4251
 3621W        W20469  14.211   4.210  12.955 -0.2407  0.0572  0.2017
 3622W        W20470  11.902   5.289   4.219 -0.3513  0.0114 -0.0080
 3623W        W20471   7.325   2.105  12.498  0.1169 -0.0720  0.0336
 3624W        W20472   6.523  12.772  12.825  0.1873  0.1554  0.1096
 3625W        W20473   1.640  11.925  12.885  0.1586 -0.2817 -0.0314
 3626W        W20474   8.187   4.877  12.176 -0.0234 -0.1657 -0.1843
 3627W        W20475   6.422  13.674  16.122  0.0838  0.2111 -0.3296
 3628W        W20476  10.373   0.006  16.032 -0.1161 -0.2672 -0.5623
 3629W        W20477  15.158   8.627   3.653 -0.0406 -0.1787 -0.0630
 3630W        W20478  17.639  16.052   4.168 -0.0589 -0.2193 -0.0319
 3631W        W20479   6.372   7.357   1.274 -0.2028 -0.1550  0.1402
 3632W        W20480  14.284  11.020   0.333  0.0618 -0.1128  0.1933
 3633W        W20481  12.415   0.668   2.534  0.1241  0.0010  0.1877
 3634W        W20482  13.988   4.774  13.881  0.1269  0.4087  0.0431
 3635W        W20483   1.028   1.521   5.990 -0.2661 -0.1586 -0.1227
 3636W        W20484   0.413   0.821  12.964 -0.0410 -0.2540 -0.1573
 3637W        W20485   0.450   7.711  13.793  0.4156  0.0508  0.0852
 3638W        W20486  10.774   2.634   4.756  0.2391  0.0452  0.2287
 3639W        W20487   2.487  14.129  15.573 -0.0147  0.0765  0.0049
 3640W        W20488   2.117  10.324   3.144  0.0007  0.1010  0.0189
 3641W        W20489   6.074   0.780  15.070  0.1954 -0.0046 -0.0178
 3642W        W20490   0.080  13.963   5.313  0.1789 -0.0866  0.0027
 3643W        W20491   6.548   1.846   2.289  0.0319  0.1056  0.0185
 3644W        W20492  10.155  17.617   2.807  0.2159 -0.2056  0.3061
 3645W        W20493  13.153   3.348   3.347 -0.1039 -0.2445  0.1174
 3646W        W20494   3.713   3.220   4.411 -0.0869  0.1221  0.1338
 3647W        W20495  10.247   5.101   5.135 -0.1631 -0.1261 -0.0062
 3648W        W20496   0.410   5.347   0.528  0.0935  0.3105  0.4935
 3649W        W20497   2.209   9.747  10.945 -0.1896 -0.0823  0.2681
 3650W        W20498   8.336   4.602  12.617  0.2638  0.0654 -0.2999
 3651W        W20499   8.666  11.157  13.150 -0.1450  0.1704  0.0302
 3652W        W20500   8.858  14.575   3.573  0.1278 -0.2937 -0.0755
 3653W        W20501  12.282  11.507  12.337  0.0834  0.1808  0.4666
 3654W        W20502   7.819   2.216  11.407 -0.1961  0.1370  0.1298
 3655W        W20503   4.371  13.166   4.242 -0.1053  0.0001 -0.2840
 3656W        W20504  13.281   3.945  12.922 -0.2863  0.1478  0.1022
 3657W        W20505   8.775  14.478   4.896  0.3157  0.3746  0.1198
 3658W        W20506  17.479   1.562   4.731 -0.0755 -0.0610 -0.1657
 3659W        W20507   1.208   3.712  15.222 -0.3376  0.0580 -0.2501
 3660W        W20508   3.417  16.016   2.011 -0.1494 -0.0157  0.0232
 3661W        W20509  17.291   1.340   3.946  0.0564 -0.2228  0.1194
 3662W        W20510  12.552   8.947   4.341 -0.1146  0.2388  0.3080
 3663W        W20511   7.120  10.684   1.026  0.2629  0.1550  0.0452
 3664W        W20512   5.055  16.758  14.189 -0.2179 -0.1146  0.0118
 3665W        W20513  15.820  17.211  14.775 -0.0406  0.2633 -0.1545
 3666W        W20514   4.945   0.455   5.595  0.1624  0.0067 -0.0419
 3667W        W20515   0.594   2.521   4.604 -0.3385  0.1578  0.0211
 3668W        W20516  11.557   7.702  10.403 -0.0730  0.2550 -0.0804
 3669W        W20517   0.530  13.331  15.685 -0.0305  0.3510  0.3154
 3670W        W20518  15.441   6.061  16.523  0.1209  0.1932 -0.2035
 3671W        W20519   8.822  14.598   0.771  0.1120  0.0181 -0.1729
 3672W        W20520  15.426   6.892  12.246 -0.2590 -0.1760  0.0684
 3673W        W20521   2.617   0.768  13.259 -0.0625  0.0783  0.1220
 3674W        W20522   1.372  11.732   4.469  0.1096  0.1350  0.1604
 3675W        W20523  16.901   4.646   5.342  0.0686 -0.0589  0.4390
 3676W        W20524  12.169   3.896   4.667 -0.1598  0.2895  0.0161
 3677W        W20525  10.739   2.452   3.401 -0.0365 -0.1158  0.0316
 3678W        W20526   0.223  11.090  12.400  0.2087  0.0395 -0.0506
 3679W        W20527   8.406   2.528   0.514  0.1222 -0.0225  0.0683
 3680W        W20528   5.459   2.699  16.097  0.0628  0.1820 -0.1031
 3681W        W20529  14.092  12.572   4.108  0.1729  0.0453  0.0197
 3682W        W20530   7.514   4.097   3.091  0.0566  0.0620  0.0666
 3683W        W20531   2.757  10.731  15.698  0.0293 -0.1580  0.2461
 3684W        W20532   1.611   2.916   2.743 -0.3082  0.0352  0.0371
 3685W        W20533   3.355  10.101  11.527  0.0944  0.2888 -0.0354
 3686W        W20534   3.455   4.752   5.112  0.0418 -0.0708 -0.0557
 3687W        W20535   4.175  15.410  13.956 -0.0355  0.3949 -0.1172
 3688W        W20536  15.931   6.927  10.688 -0.4793  0.0252  0.4786
 3689W        W20537  17.604   1.749  16.673 -0.1907 -0.0053  0.2978
 3690W        W20538   9.733  12.541   2.651  0.4094 -0.2772 -0.2517
 3691W        W20539   2.913   2.502   5.150  0.0666 -0.1763  0.0758
 3692W        W20540  11.990   8.266   3.283 -0.0981  0.2248  0.0612
 3693W        W20541   8.605   6.572   4.275  0.1018 -0.1315  0.0195
 3694W        W20542   9.737   2.077   3.746 -0.2507 -0.0823  0.0455
 3695W        W20543  15.709   4.741   4.068  0.1752  0.1643 -0.1708
 3696W        W20544   2.863  10.745  13.455  0.1866 -0.0036  0.1567
 3697W        W20545  13.572  12.598   4.785  0.0452 -0.1636 -0.0019
 3698W        W20546   9.549   1.016  13.190  0.0053  0.2692  0.0153
 3699W        W20547   6.107  13.279   3.470 -0.1841 -0.1563  0.2859
 3700W        W20548  14.939   0.476  12.461 -0.0133  0.2365  0.4349
 3701W        W20549  12.738  16.903   1.318  0.0237  0.1047 -0.2125
 3702W        W20550   3.077  13.791  11.074  0.0817 -0.0623  0.0519
 3703W        W20551   7.315   5.967  11.677  0.2219 -0.1289 -0.1065
 3704W        W20552   5.374  16.431   3.400  0.0269 -0.2174  0.1345
 3705W        W20553   9.357   4.212  12.404 -0.1847 -0.0880 -0.0330
 3706W        W20554   5.117   1.057  16.147 -0.0080  0.0542  0.0695
 3707W        W20555  15.976  15.654  16.325  0.0499  0.3283 -0.1638
 3708W        W20556   5.389   7.908   3.407 -0.1318  0.0905  0.1156
 3709W        W20557  16.548  16.898   3.778 -0.0748  0.0233  0.0031
 3710W        W20558   0.194  14.146  16.325  0.2884  0.1359  0.0478
 3711W        W20559   0.348  12.544   1.164  0.0558 -0.1241  0.1431
 3712W        W20560  16.666  16.222   2.626 -0.1141  0.1633 -0.0113
 3713W        W20561  14.379   3.756  13.992  0.3234  0.0375 -0.2630
 3714W        W20562   0.543   0.026  16.651  0.0969 -0.0735 -0.5179
 3715W        W20563   5.062  12.939   2.219  0.0897 -0.1519  0.0505
 3716W        W20564  16.434  17.104   5.192 -0.3543  0.0079  0.3221
 3717W        W20565  17.154  16.669   3.624  0.1246  0.1209 -0.2440
 3718W        W20566   4.730  12.111  14.559 -0.1737 -0.1510 -0.0378
 3719W        W20567   3.473   7.985  13.506  0.0173  0.2677 -0.2800
 3720W        W20568   9.207   0.138   5.071 -0.3863  0.0428  0.3364
 3721W        W20569  13.388   5.898   1.986  0.0705  0.0766 -0.0648
 3722W        W20570   8.744  15.744   2.597  0.2018  0.0547  0.0177
 3723W        W20571  10.006   6.973  12.641  0.0053 -0.1785 -0.2343
 3724W        W20572   9.902   1.036   3.997 -0.3954  0.1551  0.0310
 3725W        W20573   8.225   7.557  14.888  0.1026  0.0165 -0.1309
 3726W        W20574  13.262   9.080  15.473  0.0697 -0.3142  0.0532
 3727W        W20575  13.797   0.386  13.549  0.0751 -0.1828  0.0926
 3728W        W20576  10.898   8.156   4.594 -0.0716 -0.0086  0.1612
 3729W        W20577  10.395  11.261  13.853  0.0651  0.1131 -0.2001
 3730W        W20578   2.919  14.153  14.459  0.0707 -0.0505 -0.1066
 3731W        W20579  11.673   6.293   1.229 -0.1628  0.1658 -0.1505
 3732W        W20580  12.366   4.005   4.192  0.1859  0.0949  0.4236
 3733W        W20581   3.380  17.163  13.997  0.1438 -0.0430 -0.1906
 3734W        W20582   3.506  14.395   3.216 -0.2080 -0.0413  0.2003
 3735W        W20583   5.176  15.140  15.802  0.0393  0.0139 -0.0379
 3736W        W20584  12.949  13.334   0.200 -0.0563  0.0478  0.2474
 3737W        W20585   3.766   9.083  15.868 -0.0201  0.0348  0.0472
 3738W        W20586   8.761   2.435  12.143 -0.0284  0.1628  0.1645
 3739W        W20587   4.148   0.985  12.827  0.0046 -0.0043  0.0168
 3740W        W20588  16.697   4.503   0.464  0.1500  0.3076  0.0741
 3741W        W20589  12.130   1.547  12.185  0.1812 -0.0274  0.0466
 3742W        W20590   8.600   4.899  10.980 -0.1338  0.1166 -0.2331
 3743W        W20591  14.361   4.594  14.148 -0.1697 -0.1098  0.1314
 3744W        W20592  12.865  14.134  12.760 -0.1097  0.0682 -0.1107
 3745W        W20593   4.657  14.719   5.877  0.1183 -0.3731 -0.3580
 3746W        W20594  11.022   0.616   2.110  0.1599 -0.1075  0.0067
 3747W        W20595   5.049   3.046  16.381 -0.0965 -0.2562 -0.0475
 3748W        W20596  12.316  14.498  11.718  0.1330  0.0695  0.1285
 3749W        W20597  14.599  16.334   3.717  0.1209 -0.1804  0.0267
 3750W        W20598   7.841   6.310  14.818  0.2597  0.2179  0.0334
 3751W        W20599   6.448   8.203   2.314 -0.2973  0.0349 -0.2025
 3752W        W20600  10.164   3.112   1.611 -0.1980  0.2776  0.3268
 3753W        W20601   6.059  12.633  13.032 -0.0305 -0.2450  0.0553
 3754W        W20602   1.353  11.582  13.652 -0.0067  0.1534  0.1212
 3755W        W20603   6.436   1.726  11.659 -0.0046  0.1033  0.0235
 3756W        W20604   6.288  10.517   3.741  0.0918  0.2501 -0.1490
 3757W        W20605   1.436   3.458  16.205 -0.0023  0.1822  0.2883
 3758W        W20606   1.317  10.350  13.363 -0.1231 -0.2565 -0.2352
 3759W        W20607  16.007   5.785   1.783  0.4063 -0.1534  0.0117
 3760W        W20608  13.849   6.061   3.686  0.1767 -0.0560 -0.1483
 3761W        W20609   1.910   0.325   0.141 -0.0882  0.0596  0.5135
 3762W        W20610   3.699  14.386   0.614 -0.2840  0.0910 -0.0208
 3763W        W20611   1.120  11.183  13.902 -0.1911 -0.2427  0.4569
 3764W        W20612   4.676  15.955   6.537  0.0854  0.3311 -0.0684
 3765W        W20613   5.187  12.017  13.112  0.0933  0.2616 -0.0679
 3766W        W20614   7.292  13.079   0.816  0.0110  0.0067 -0.0654
 3767W        W20615  10.853   5.516  10.665  0.0629 -0.3117  0.1394
 3768W        W20616   8.357   8.232   0.522  0.1404  0.0439 -0.1182
 3769W        W20617   2.152  13.772  16.485  0.3275 -0.5047 -0.0834
 3770W        W20618   9.898   2.965  14.815  0.0900  0.1580  0.0649
 3771W        W20619  17.002   3.741   0.224 -0.0197  0.1095 -0.3669
 3772W        W20620  12.435  13.573   4.591  0.2397  0.2741 -0.4326
 3773W        W20621  12.803   1.344  12.804 -0.1002 -0.0446  0.1394
 3774W        W20622   8.824  16.769   4.234  0.0123  0.1355 -0.1757
 3775W        W20623  15.427  12.279   4.622  0.0400 -0.0252  0.1808
 3776W        W20624   7.944  14.306  12.461 -0.0518  0.0025 -0.0038
 3777W        W20625  17.315   3.045   3.160 -0.1202  0.2878 -0.3078
 3778W        W20626   4.920  13.678   4.871 -0.0164 -0.2471 -0.2950
 3779W        W20627   3.482  16.435   4.240  0.0356 -0.0623  0.0439
 3780W        W20628  16.891  12.890  12.886  0.0362 -0.0406 -0.1263
 3781W        W20629   9.162   5.691  13.970  0.1576 -0.2981  0.0732
 3782W        W20630   5.751  13.385  15.029 -0.2004  0.1393 -0.3438
 3783W        W20631   2.771   9.688  13.534  0.0771  0.0787  0.1156
 3784W        W20632  16.315   4.717   4.332 -0.1180 -0.1876  0.2525
 3785W        W20633   0.506   1.723   1.170 -0.1189  0.0206  0.1383
 3786W        W20634  13.153  16.518  13.913 -0.0041 -0.0886 -0.3709
 3787W        W20635   3.535   8.161  12.803  0.1019  0.1663 -0.2367
 3788W        W20636   1.314   6.747   1.271 -0.1378 -0.3978 -0.3528
 3789W        W20637   0.182  14.325   2.951 -0.2943  0.0708 -0.0419
 3790W        W20638   0.397  11.180  16.580 -0.0235  0.0628  0.1426
 3791W        W20639   7.730  15.562   4.808  0.1390  0.0722  0.0604
 3792W        W20640   4.224   1.116  15.650 -0.0340 -0.0324 -0.0521
 3793W        W20641  14.269   9.545  12.181  0.2062 -0.1921 -0.3423
 3794W        W20642  13.392   0.081   4.159  0.1047  0.0762  0.1958
 3795W        W20643  11.998  10.248  14.417 -0.2678 -0.0933  0.2236
 3796W        W20644   0.712  13.335   4.602  0.0569  0.0037  0.2001
 3797W        W20645   9.254   8.084  15.623  0.1068 -0.1585  0.0737
 3798W        W20646   1.775  12.502  11.622 -0.1525 -0.2367 -0.0523
 3799W        W20647  11.622   2.178   5.581 -0.1538 -0.1087  0.2521
 3800W        W20648  14.913   3.809  15.284  0.0288 -0.0498 -0.1738
 3801W        W20649   3.808  10.628   4.306 -0.3398  0.1044 -0.2792
 3802W        W20650  17.494   6.527  13.049 -0.0795  0.3352  0.0872
 3803W        W20651   8.305   0.966   2.607 -0.0680 -0.2894 -0.1395
 3804W        W20652  13.887  10.500  13.235 -0.1936 -0.0044  0.1859
 3805W        W20653   3.337  15.214   6.151 -0.1541 -0.3540  0.0486
 3806W        W20654  13.735   4.433   5.091  0.0329  0.0011  0.1608
 3807W        W20655   1.965   0.811   6.473  0.0947  0.2653 -0.0841
 3808W        W20656   7.234   4.394  13.588  0.0039 -0.3992  0.1025
 3809W        W20657  11.935   8.379  11.250  0.0125  0.1385 -0.3909
 3810W        W20658   2.752  15.958  11.892  0.2635  0.0137  0.1496
 3811W        W20659  12.520  17.110  14.260  0.1911 -0.3538 -0.1402
 3812W        W20660   6.944  12.646  11.774  0.0955 -0.1066 -0.1381
 3813W        W20661  14.477   7.782  15.737 -0.0890 -0.2288 -0.0740
 3814W        W20662  15.123   2.289  10.992 -0.1556  0.3535  0.1106
 3815W        W20663   8.735   5.024   1.321 -0.0907 -0.1255  0.0677
 3816W        W20664   0.174   0.085  14.694 -0.1562  0.1884 -0.0434
 3817W        W20665   3.200   7.953  11.457 -0.1403 -0.2228  0.2574
 3818W        W20666  14.002  16.488  12.865 -0.1182  0.2856 -0.2669
 3819W        W20667  15.102  15.190   3.103 -0.0312 -0.2274 -0.0930
 3820W        W20668  17.387  11.323   6.248  0.0451  0.0436 -0.1742
 3821W        W20669   7.099  16.418  13.693  0.1795 -0.1606 -0.0702
 3822W        W20670   7.320   4.078  11.673  0.0956 -0.0300 -0.0847
 3823W        W20671   4.500   0.825   3.702 -0.0664 -0.1804 -0.0821
 3824W        W20672  13.037  11.319   0.936 -0.0989  0.1878  0.0777
 3825W        W20673  16.650  17.477  12.311  0.1939 -0.4527  0.1288
 3826W        W20674   2.399   9.878   4.493  0.0381 -0.4781  0.1385
 3827W        W20675  10.318   8.729   4.939  0.0857  0.2579  0.1852
 3828W        W20676   7.223   0.363   1.776 -0.3015  0.1114 -0.1034
 3829W        W20677   2.140   9.624  16.496 -0.2687 -0.1319  0.0376
 3830W        W20678   6.631   2.255   0.393 -0.0220  0.1070  0.1751
 3831W        W20679   2.633   8.958   2.122 -0.2181 -0.2581  0.1765
 3832W        W20680   0.409   1.972  10.673  0.0397 -0.2258  0.0531
 3833W        W20681  17.573  14.161  14.066 -0.0489  0.0308  0.0595
 3834W        W20682   6.842   3.134   1.073  0.0738 -0.1573  0.1025
 3835W        W20683   6.330  10.867  12.330 -0.2133  0.3244 -0.0541
 3836W        W20684   0.407  14.065  15.409 -0.0599  0.3479  0.3639
 3837W        W20685  12.226  11.731  11.725 -0.3059 -0.0358 -0.0860
 3838W        W20686  10.858   8.643   1.204 -0.1643 -0.1789  0.2032
 3839W        W20687  17.147   4.141  12.035 -0.1144  0.0617 -0.0938
 3840W        W20688   1.970   0.251   4.891 -0.0076  0.1647 -0.2236
 3841W        W20689  16.877   3.235  14.327 -0.2623  0.1397 -0.3163
 3842W        W20690  12.478   0.007   1.306  0.0225 -0.0500  0.0035
 3843W        W20691   6.178  13.857   0.073  0.1985 -0.0332  0.2673
 3844W        W20692   4.408   7.797   0.420 -0.0121 -0.2226 -0.1184
 3845W        W20693   8.432   6.709  12.277  0.2688 -0.0926 -0.1740
 3846W        W20694   6.467   1.021   2.862 -0.2251  0.1354 -0.1721
 3847W        W20695  11.684   0.708   2.713  0.2444 -0.2038  0.3371
 3848W        W20696  13.703   8.779   2.535 -0.1611  0.0406  0.0443
 3849W        W20697   6.717  13.432  16.540 -0.1678 -0.1020 -0.0746
 3850W        W20698   5.746  16.720  15.215  0.0071  0.1883  0.4157
 3851W        W20699  13.252   3.168  12.366  0.0255 -0.2715 -0.0167
 3852W        W20700  16.160  15.663  14.115 -0.1804 -0.1329  0.2491
 3853W        W20701   5.647   0.819   1.876 -0.2554 -0.0453 -0.2308
 3854W        W20702  11.351  15.988  12.768 -0.1295 -0.0591  0.1117
 3855W        W20703   8.819   9.774  14.699  0.0910 -0.1657 -0.1182
 3856W        W20704   1.955   8.524   1.481  0.0442  0.0303 -0.1318
 3857W        W20705  11.676  16.857  13.821 -0.1147  0.2773  0.3337
 3858W        W20706  11.959   2.505  11.763 -0.3869 -0.2453  0.1424
 3859W        W20707  12.503   1.735   0.357  0.0856  0.5146  0.0408
 3860W        W20708   4.441   9.072   0.637 -0.0581  0.2041 -0.1010
 3861W        W20709  12.511  14.285   4.229 -0.2336 -0.2879 -0.2845
 3862W        W20710   8.959   9.732  13.289 -0.0386 -0.1926  0.0088
 3863W        W20711  12.851  13.098   3.488  0.1075  0.1637  0.1412
 3864W        W20712  16.993   2.709   3.297 -0.2488  0.1466 -0.1377
 3865W        W20713   9.866   4.018  11.243  0.0028 -0.3105  0.0557
 3866W        W20714   0.515  17.623  15.066  0.1208  0.1663 -0.0942
 3867W        W20715  13.318  16.054  11.720 -0.1112  0.1683  0.0422
 3868W        W20716  11.604   3.065   5.185  0.1028 -0.0231  0.1187
 3869W        W20717   0.328   7.121  15.580  0.1044  0.1999 -0.1059
 3870W        W20718  12.576   9.336   0.607 -0.3282 -0.1206 -0.2153
 3871W        W20719  10.609  12.943  12.276 -0.1400  0.0692  0.1185
 3872W        W20720   6.339   8.295  12.530  0.3474 -0.0127 -0.1750
 3873W        W20721   0.362  12.495  16.259 -0.1953  0.0699 -0.0580
 3874W        W20722   3.545   9.845  16.564  0.2652  0.2230  0.0134
 3875W        W20723   8.001  16.309  16.324 -0.1371  0.1050  0.3311
 3876W        W20724   3.621  15.750  15.628 -0.0566 -0.0924  0.0547
 3877W        W20725  15.584  14.408  14.591  0.2556  0.0836 -0.2021
 3878W        W20726  13.259   1.465  13.952 -0.3873 -0.5879  0.2060
 3879W        W20727  13.317   7.288  12.506 -0.0123  0.2395  0.0769
 3880W        W20728   0.724   4.538   2.936  0.2033 -0.0309 -0.1590
 3881W        W20729  11.614   2.895  11.636 -0.2083  0.1594 -0.1267
 3882W        W20730   6.396   7.833  12.097 -0.1009  0.0107 -0.1170
 3883W        W20731   3.944   3.524   3.785 -0.3437 -0.1877 -0.3604
 3884W        W20732   5.677   3.324   3.170 -0.1642 -0.2052 -0.0598
 3885W        W20733   4.873  16.944   4.486 -0.0827  0.0655 -0.1585
 3886W        W20734  14.051   6.601  15.685 -0.0979 -0.2097 -0.2871
 3887W        W20735   3.848  14.197  12.072 -0.1667  0.3013 -0.1712
 3888W        W20736   0.348  10.685  16.507  0.1599 -0.0354 -0.0749
 3889W        W20737   3.411  14.381  13.950 -0.2174 -0.0002 -0.1956
 3890W        W20738   6.101  13.871   4.621  0.0664 -0.0864 -0.0455
 3891W        W20739   0.106   8.753  12.446 -0.2463 -0.3724 -0.1010
 3892W        W20740   9.622   0.157   5.366  0.0191 -0.0694  0.0761
 3893W        W20741  11.644   9.397   3.997  0.2991  0.3253 -0.1797
 3894W        W20742  10.184   5.794   4.690 -0.3690 -0.1115 -0.1896
 3895W        W20743  12.170  15.992   0.887 -0.0641  0.2267 -0.0740
 3896W        W20744  16.252  11.912   4.189  0.1628 -0.1211 -0.0002
 3897W        W20745   3.995   0.367   4.258 -0.1556  0.0893 -0.2965
 3898W        W20746  13.914   3.044   1.933 -0.0430 -0.0150  0.0729
 3899W        W20747   5.802   5.716   2.960  0.1514  0.2779 -0.1254
 3900W        W20748   8.074   1.862   1.922 -0.0353  0.2187 -0.2427
 3901W        W20749  14.405   3.890   3.867 -0.1026  0.2317  0.0330
 3902W        W20750  15.607   8.148   1.635  0.0022  0.2517 -0.1553
 3903W        W20751  14.843   5.622  11.968 -0.0794  0.0159  0.1818
 3904W        W20752   0.108   0.541  15.847  0.3381  0.1576 -0.2095
 3905W        W20753  14.653  17.048  11.461 -0.1627  0.0297 -0.1435
 3906W        W20754   2.927  12.168   4.868 -0.0855  0.0338  0.0436
 3907W        W20755  15.183  12.527  13.499 -0.0793 -0.3499  0.1764
 3908W        W20756   6.662   8.585  13.877 -0.1540 -0.1114  0.2096
 3909W        W20757   4.786   6.694   0.023  0.1019 -0.0452  0.0839
 3910W        W20758   8.406  13.036  12.420 -0.3292 -0.1095  0.2290
 3911W        W20759   7.040   0.098  13.917 -0.2515  0.3059  0.3862
 3912W        W20760   2.062  14.202   1.192 -0.3528 -0.0209 -0.0224
 3913W        W20761  16.712  11.818   2.242 -0.1427 -0.0982 -0.0583
 3914W        W20762   3.933   9.370   3.192 -0.0039 -0.0200 -0.0161
 3915W        W20763   2.985   1.341  12.369  0.1710  0.3965  0.1706
 3916W        W20764  12.481  14.587   0.995  0.0963  0.0686 -0.0446
 3917W        W20765   3.602  12.861   2.837 -0.0568 -0.1992  0.2048
 3918W        W20766   3.440   2.451   3.902  0.0337  0.0141  0.3805
 3919W        W20767   0.822   7.670   2.171 -0.0080  0.0731 -0.1077
 3920W        W20768  12.592  13.157  13.373  0.3878 -0.1016  0.0552
 3921W        W20769  13.242  11.229  15.019 -0.1684 -0.5209 -0.0268
 3922W        W20770   6.805  15.903   3.030 -0.0823 -0.0363 -0.0051
 3923W        W20771  14.365   8.449   1.951 -0.2769 -0.2492 -0.1994
 3924W        W20772   1.497   7.873  12.855 -0.3394  0.1797  0.1035
 3925W        W20773  13.930   9.958   0.174  0.1655  0.0194  0.1585
 3926W        W20774   9.345   9.571  13.957  0.0263  0.1501 -0.0449
 3927W        W20775  12.180   4.900   2.925  0.0489  0.2834  0.0590
 3928W        W20776   6.005  12.242   3.548  0.2922 -0.0149 -0.0093
 3929W        W20777  13.218  15.011  13.196  0.0163 -0.0219  0.1106
 3930W        W20778   0.616   1.531  12.525  0.1179 -0.0942 -0.3025
 3931W        W20779   3.303   1.851   2.687  0.1664  0.3829  0.0284
 3932W        W20780   7.817   1.985  12.421  0.0747 -0.1023 -0.1252
 3933W        W20781  14.357  11.553  12.218  0.1223  0.0762 -0.1413
 3934W        W20782   8.449   5.465  13.109  0.2890 -0.1680  0.1942
 3935W        W20783  15.972  15.880  14.495  0.1245  0.1114  0.0005
 3936W        W20784   2.977  10.873   4.284  0.2367  0.1032  0.1748
 3937W        W20785   3.974  16.363   1.544 -0.0611  0.0702 -0.0300
 3938W        W20786  16.635   2.397   3.637  0.0450  0.1778  0.0753
 3939W        W20787   4.397  11.701  15.446  0.1809  0.0966 -0.0209
 3940W        W20788  17.004  13.467  15.917  0.1908  0.0858  0.4412
 3941W        W20789  14.235   7.475   4.715 -0.1976 -0.2177 -0.1327
 3942W        W20790  16.235   9.913   4.386 -0.1340  0.2629  0.1669
 3943W        W20791  10.750  15.840   2.698  0.1453  0.1603  0.2621
 3944W        W20792  15.955  11.350  15.733 -0.1139  0.0607 -0.0796
 3945W        W20793   4.524   6.377   4.734  0.1986  0.1125  0.0521
 3946W        W20794   7.825   4.247   4.869 -0.0241  0.2044  0.3394
 3947W        W20795  16.395   1.860   2.779  0.0770  0.4243  0.4068
 3948W        W20796   2.283   0.951   5.571 -0.0427  0.0280 -0.3178
 3949W        W20797   8.563  16.638  14.355  0.1234  0.0451 -0.3588
 3950W        W20798   5.789  16.760   3.166 -0.2416  0.0498  0.0017
 3951W        W20799   2.273  15.427   3.385  0.3302 -0.1704  0.4917
 3952W        W20800   6.890   2.142   1.912  0.2497  0.2450  0.0096
 3953W        W20801  12.016  16.999   2.645  0.3019 -0.0147  0.0973
 3954W        W20802   6.601   0.862  14.983 -0.3203  0.3251  0.0827
 3955W        W20803  13.734  10.657   1.895  0.1460  0.1675  0.1839
 3956W        W20804   5.391   0.309  13.718  0.1429  0.1034 -0.0076
 3957W        W20805   4.954   8.804   4.936 -0.0548 -0.0831 -0.3271
 3958W        W20806   3.695  13.077  15.152  0.1219  0.2208  0.1760
 3959W        W20807   8.399   5.381  12.106 -0.2304 -0.0042 -0.0285
 3960W        W20808   7.879   6.521   0.732  0.0626  0.0918  0.1788
 3961W        W20809   1.083   5.028   3.482 -0.2669  0.1042 -0.2328
 3962W        W20810  13.865  14.445  12.220 -0.0875 -0.1503 -0.0953
 3963W        W20811  13.162  10.292  14.054  0.1138  0.0516  0.2157
 3964W        W20812  15.567   1.639   3.683  0.4548 -0.1044  0.3988
 3965W        W20813  13.148   8.687  15.909  0.0968 -0.0958 -0.0363
 3966W        W20814  11.873   0.221   3.125  0.0185 -0.0642  0.2899
 3967W        W20815   9.919   6.721  14.859  0.3052  0.0361  0.3285
 3968W        W20816  13.398   2.893   2.131  0.0714  0.0317  0.1037
 3969W        W20817  16.547   1.165  15.487  0.0610  0.0540  0.0869
 3970W        W20818   4.989  15.416   0.617 -0.2767 -0.2838 -0.0883
 3971W        W20819  16.827   8.955  16.200 -0.0890  0.0900 -0.0537
 3972W        W20820   6.762   0.190   3.618 -0.2876 -0.1733 -0.1396
 3973W        W20821   8.483  16.977   4.969  0.1578  0.1772  0.0308
 3974W        W20822   9.225   1.942  15.082  0.1247 -0.0227 -0.1181
 3975W        W20823   0.078   7.096   1.139  0.1155  0.2349 -0.0291
 3976W        W20824   1.864   5.816   1.410 -0.1658 -0.4377  0.1700
 3977W        W20825   3.620  11.696   3.839  0.0058  0.0007  0.0685
 3978W        W20826   1.579  15.342   6.077 -0.0711  0.3018  0.4140
 3979W        W20827   5.045   0.851   4.426 -0.0510  0.2451 -0.4673
 3980W        W20828   5.181   8.085   4.456  0.1079  0.0035 -0.2166
 3981W        W20829   5.183   5.868  11.054 -0.3071 -0.0399  0.0381
 3982W        W20830   1.173   7.127   5.096 -0.1679 -0.0201  0.0698
 3983W        W20831   0.991   0.270  15.044 -0.0710 -0.1040  0.1300
 3984W        W20832   0.865  12.913   2.929 -0.0518 -0.2886  0.2358
 3985W        W20833   6.762  10.096   3.269 -0.2064  0.2415  0.2124
 3986W        W20834  10.684  15.397   0.429 -0.1952  0.0023 -0.0562
 3987W        W20835   7.406  15.096   3.914 -0.3023  0.0129 -0.1159
 3988W        W20836   4.949  16.995   0.221 -0.1315  0.2431 -0.0394
 3989W        W20837   3.002   4.489   1.071  0.1484  0.1347 -0.0064
 3990W        W20838   8.136   9.514  16.375  0.0022  0.1545  0.1301
 3991W        W20839   9.379   2.458   3.792 -0.0535  0.0058 -0.0018
 3992W        W20840  13.390  16.719  16.390 -0.2610  0.1398  0.0325
 3993W        W20841  14.412  12.716   0.047 -0.2584  0.1119 -0.3533
 3994W        W20842  17.049  12.767   2.384  0.1502 -0.0812 -0.0982
 3995W        W20843   7.050  11.726   3.932 -0.2101  0.0586  0.1064
 3996W        W20844  11.967  17.348  13.146  0.1606  0.2285 -0.0622
 3997W        W20845  10.237   4.534  16.196 -0.2384 -0.1175  0.1033
 3998W        W20846   6.788  16.752  12.919  0.2015 -0.0986 -0.0699
 3999W        W20847  17.576   1.134  12.178  0.0964 -0.1043  0.0391
 4000W        W20848   3.071   3.014  13.095 -0.1542 -0.0770  0.2713
 4001W        W20849   5.944   1.542   6.294 -0.1230  0.1936 -0.0802
 4002W        W20850  11.418  14.195  12.525  0.0082 -0.2161  0.0439
 4003W        W20851  12.008   5.372   2.847 -0.1943 -0.1419 -0.3069
 4004W        W20852  11.315  13.178   3.311 -0.0167 -0.1137  0.2611
 4005W        W20853   8.843   7.572   2.367  0.1283  0.1540  0.1021
 4006W        W20854   9.546  13.554   5.140  0.1989 -0.0099  0.1048
 4007W        W20855  10.421  13.662  13.735  0.1653 -0.2850  0.4383
 4008W        W20856   6.118   3.773  16.347 -0.1821 -0.0741 -0.0967
 4009W        W20857  14.863  16.211   0.251 -0.0697 -0.0438 -0.2483
 4010W        W20858  17.206   1.452  15.148 -0.0443 -0.4362  0.2397
 4011W        W20859   0.447   7.062  12.445 -0.0808  0.0715 -0.0576
 4012W        W20860   0.042   7.498  15.894  0.0190  0.0292  0.0416
 4013W        W20861  15.242   4.241   5.518  0.2269 -0.1195  0.0053
 4014W        W20862  13.146   5.454   2.699  0.3973  0.0109 -0.0061
 4015W        W20863  15.894   0.145   2.753 -0.0775 -0.0240 -0.0177
 4016W        W20864   8.852  16.825   5.327 -0.1643  0.2639  0.3158
 4017W        W20865   6.942   9.608   4.075 -0.0975 -0.0666 -0.2215
 4018W        W20866   4.125   2.241  10.934 -0.0382 -0.1243  0.2195
 4019W        W20867   5.007   2.732   5.339  0.1501  0.0972  0.1254
 4020W        W20868   1.725   8.957   3.493  0.1336  0.2488  0.0784
 4021W        W20869   8.023  13.855   4.842 -0.1053  0.2075 -0.0718
 4022W        W20870   9.503  17.054   4.744  0.3960  0.0832 -0.0190
 4023W        W20871   7.990  15.368  15.435  0.0921  0.0263  0.2062
 4024W        W20872   4.936  11.294  16.496  0.0158 -0.1760 -0.1117
 4025W        W20873  13.121   1.772  11.879 -0.1398  0.0583  0.1508
 4026W        W20874  15.016   0.266  12.937 -0.1488  0.0677 -0.0320
 4027W        W20875  14.418   7.505  12.114  0.1350  0.0171  0.3027
 4028W        W20876   0.214   4.597   4.983 -0.0581 -0.1089  0.0902
 4029W        W20877   9.451   4.598   4.228 -0.0477 -0.1548 -0.0445
 4030W        W20878  11.692   6.988   2.237 -0.0887 -0.1304 -0.1670
 4031W        W20879   7.155  15.747   0.289 -0.0210 -0.0492 -0.1531
 4032W        W20880   1.406   7.940  16.625  0.0827  0.1125 -0.0610
 4033W        W20881   0.267  12.641   5.010 -0.1462 -0.0996 -0.3019
 4034W        W20882   1.181  16.929  13.930 -0.1390  0.0386  0.0262
 4035W        W20883   6.236  15.900   6.268 -0.0055 -0.0795 -0.1777
 4036W        W20884  12.299   0.254   2.239 -0.0512 -0.0890  0.0576
 4037W        W20885   6.197   1.840   3.233 -0.0405  0.0409  0.2875
 4038W        W20886   4.921  12.651  13.826  0.0987 -0.1287  0.0053
 4039W        W20887   0.421  14.080   0.170  0.1427  0.0444 -0.1482
 4040W        W20888   5.769   9.213  16.106  0.0096  0.0854 -0.3434
 4041W        W20889  15.616   9.379   4.754 -0.0323  0.0912 -0.2260
 4042W        W20890   9.060  12.341  15.505 -0.0876 -0.2967  0.0159
 4043W        W20891   7.537  14.490   5.251 -0.0252 -0.0226  0.1749
 4044W        W20892  13.331  16.781   3.295 -0.0516 -0.0738 -0.1545
 4045W        W20893   1.606  13.897  14.449  0.0830 -0.1383  0.1936
 4046W        W20894   7.524   2.105  14.170  0.0593  0.3639  0.1262
 4047W        W20895   3.254   3.939  13.038  0.2343 -0.0442  0.2696
 4048W        W20896   5.084   7.916  14.125 -0.0213 -0.0529 -0.0828
 4049W        W20897  16.031  14.515  13.207 -0.0760  0.3106 -0.0207
 4050W        W20898  17.309   1.910  11.554 -0.0649  0.3023 -0.1457
 4051W        W20899   2.443  16.229   4.866 -0.1770 -0.2699  0.0815
 4052W        W20900   9.264   7.531   1.526 -0.1519  0.1786  0.1034
 4053W        W20901   7.090   2.242  12.049 -0.0547 -0.3846 -0.1489
 4054W        W20902   6.775  16.479  16.385 -0.0426  0.3080  0.1366
 4055W        W20903   4.910   3.127  14.673  0.0507  0.0641  0.1452
 4056W        W20904   7.868  16.547   3.400 -0.0694  0.2434 -0.0708
 4057W        W20905   1.355  15.900  13.450  0.2380  0.2174  0.0157
 4058W        W20906   3.353  11.798  11.409 -0.1564  0.0764  0.1656
 4059W        W20907  12.443  16.973   2.374 -0.1030 -0.1086  0.3858
 4060W        W20908   2.917  11.672  13.452  0.1765  0.0913  0.0622
 4061W        W20909  16.755  11.959  15.761  0.2695 -0.4175  0.2221
 4062W        W20910   9.182  17.674   1.354  0.2275 -0.1418  0.0368
 4063W        W20911  16.159  12.363  16.659  0.1078 -0.0531 -0.3885
 4064W        W20912   3.597   0.609   2.848 -0.2122  0.0371 -0.3268
 4065W        W20913  12.695   1.790  11.085 -0.0300 -0.0124 -0.3100
 4066W        W20914   4.911  13.424  12.416 -0.1508 -0.1463 -0.0077
 4067W        W20915  12.669   6.491   4.118  0.0122  0.2831  0.3742
 4068W        W20916   2.758  10.095  14.786  0.0041  0.0877 -0.0564
 4069W        W20917  14.875  17.005  16.328  0.0113  0.0204  0.1697
 4070W        W20918  16.444   4.479   2.924 -0.0444  0.1276 -0.1195
 4071W        W20919   0.654  14.704  12.163 -0.1188  0.0163 -0.0633
 4072W        W20920   9.204   0.550   2.634  0.1182 -0.0061  0.0879
 4073W        W20921   2.807  12.328  15.575  0.0827  0.2499 -0.0670
 4074W        W20922  11.836  11.373   2.382  0.0810  0.0833  0.1717
 4075W        W20923  15.473  12.046  16.004 -0.0451 -0.1195 -0.0449
 4076W        W20924   8.749   6.448   5.501  0.2128 -0.0477 -0.0115
 4077W        W20925   0.976  12.055   4.624 -0.0434 -0.3055  0.3861
 4078W        W20926  12.581  14.988   2.812 -0.2275 -0.0134  0.0975
 4079W        W20927  16.297  15.707   0.869  0.0017 -0.3713  0.0743
 4080W        W20928   5.063   2.629   3.001 -0.0895 -0.0954 -0.2896
 4081W        W20929   5.134  16.127  16.193  0.1052  0.1868  0.2361
 4082W        W20930   9.151   2.649   3.023  0.1099 -0.1272 -0.1284
 4083W        W20931   5.477  11.162  11.014 -0.1249  0.4614  0.0112
 4084W        W20932  10.014   9.762   3.757 -0.0170 -0.2557  0.0520
 4085W        W20933  12.555  10.476  13.337 -0.2172 -0.0245  0.1963
 4086W        W20934  13.225   7.375  13.922 -0.0665  0.0281 -0.1311
 4087W        W20935  15.535   5.799  13.119  0.1794  0.1368 -0.0976
 4088W        W20936  14.319   9.375  15.610 -0.0442  0.1353  0.1374
 4089W        W20937  15.636   3.218  14.132  0.0446  0.2548  0.2965
 4090W        W20938   4.680   7.642  15.516  0.0538  0.1750  0.1959
 4091W        W20939   6.647   6.598   3.740  0.1226 -0.1664  0.1218
 4092W        W20940   7.944   8.426   3.454 -0.0447  0.0655 -0.1140
 4093W        W20941   3.382  17.638  14.158 -0.0010  0.0839 -0.3313
 4094W        W20942   7.001   3.453   0.014 -0.1142  0.3930 -0.2425
 4095W        W20943  16.620   7.262   4.310 -0.1625 -0.1515  0.1562
 4096W        W20944   6.882   8.136   2.626 -0.1795 -0.1035  0.1099
 4097W        W20945   9.201   9.938  13.699  0.1106  0.2281  0.1198
 4098W        W20946  15.164  11.984   3.265 -0.1633  0.0147 -0.1544
 4099W        W20947  13.814   7.998   0.376 -0.1725 -0.1759  0.0299
 4100W        W20948   7.946   0.565  12.227  0.0058  0.1295  0.2198
 4101W        W20949   3.866   5.391  15.827 -0.0721  0.0104 -0.2043
 4102W        W20950   8.852  13.143   4.744 -0.1594  0.0800 -0.1675
 4103W        W20951   6.776  13.174  13.225 -0.1069 -0.1475 -0.2607
 4104W        W20952   0.241   6.168  12.370 -0.1675 -0.0258  0.1962
 4105W        W20953   2.545  15.488   1.052  0.0820  0.3095 -0.0447
 4106W        W20954   3.191  12.927  13.874  0.0558 -0.0890  0.2952
 4107W        W20955   1.298  17.445   4.517 -0.1680 -0.1987 -0.0133
 4108W        W20956   2.545   9.550   5.522  0.2685  0.3029 -0.0657
 4109W        W20957  10.084   3.131   4.847  0.2399  0.3799 -0.1151
 4110W        W20958  15.858   8.156  14.629  0.0307 -0.0047 -0.0414
 4111W        W20959  13.724   6.838  13.057  0.0705 -0.1703 -0.1015
 4112W        W20960   1.875   6.111   2.331  0.0926 -0.0377 -0.1035
 4113W        W20961   9.733  12.798   3.747  0.0476 -0.2372  0.0398
 4114W        W20962  12.240   7.974  11.209  0.2026 -0.0794  0.1585
 4115W        W20963  12.598   3.554   4.004 -0.1561  0.2168  0.1109
 4116W        W20964  13.997  12.546   0.313 -0.0488  0.0167 -0.0090
 4117W        W20965  15.132   9.494   3.778  0.0143 -0.1052 -0.0264
 4118W        W20966  15.638   8.912  14.507  0.0757  0.0548  0.1270
 4119W        W20967  16.371  10.881  15.161  0.2007 -0.0933 -0.2626
 4120W        W20968   9.565  12.866   0.149 -0.0496 -0.1561  0.1234
 4121W        W20969   6.606  10.876  12.851 -0.0866 -0.0455 -0.1115
 4122W        W20970   6.312   8.290   4.933 -0.1280 -0.0832  0.2140
 4123W        W20971  13.312  17.052  13.816 -0.2007 -0.1945 -0.0128
 4124W        W20972  11.289   6.685  15.169 -0.2381  0.1656  0.0146
 4125W        W20973   4.629   5.029   1.856 -0.0479  0.0303 -0.1763
 4126W        W20974   2.178  11.234   1.388  0.2444 -0.3695  0.2450
 4127W        W20975  14.348   6.742  13.697  0.0773  0.1976  0.0113
 4128W        W20976   2.873  14.850   4.759 -0.1001 -0.0218 -0.2513
 4129W        W20977   1.510   9.913  12.169 -0.2189  0.0678  0.2412
 4130W        W20978  13.072  10.831  12.414  0.0421 -0.1246  0.2433
 4131W        W20979   1.637  15.066  14.782 -0.2639  0.0596  0.0185
 4132W        W20980   7.085  13.409  11.057  0.1618 -0.0463 -0.4061
 4133W        W20981  12.706   4.931  13.605 -0.2151  0.1218 -0.2711
 4134W        W20982   2.071  16.497   6.027 -0.1883  0.1530  0.1899
 4135W        W20983  15.058   6.890  13.130  0.4659 -0.0975  0.2015
 4136W        W20984   7.473  16.644  15.119  0.0870  0.2678  0.0164
 4137W        W20985   7.474  14.142   1.853  0.3561  0.1532 -0.3880
 4138W        W20986  16.156  13.058   4.213  0.1551  0.4050 -0.1248
 4139W        W20987  15.045  11.613   4.124  0.2491  0.1859  0.0911
 4140W        W20988   8.198   2.824  12.834 -0.0693 -0.0185 -0.3261
 4141W        W20989   1.639   9.305   2.545  0.1916  0.0844 -0.2809
 4142W        W20990   4.296   6.502   5.271  0.0812  0.1528  0.1462
 4143W        W20991   6.177   2.273  16.191 -0.0483  0.1181  0.3288
 4144W        W20992   1.295  16.172  14.468 -0.0160 -0.1251  0.3251
 4145W        W20993  14.443   5.933   2.785 -0.2096  0.2050  0.0537
 4146W        W20994  11.858  11.644  12.022 -0.0131  0.0733  0.1915
 4147W        W20995   7.378   8.638  12.532  0.1688 -0.3334 -0.0482
 4148W        W20996   3.339  13.530   0.942 -0.0398  0.1326 -0.2895
 4149W        W20997   8.462  12.119   3.995 -0.1244  0.1162  0.0040
 4150W        W20998  11.455   2.525  12.597 -0.0599 -0.1124 -0.1990
 4151W        W20999   4.847   8.046   2.353 -0.0912 -0.0107  0.2262
 4152W        W21000  17.272  13.036   1.396 -0.1140 -0.0316  0.0715
 4153W        W21001   7.149   7.689  16.323  0.0834 -0.1225 -0.2816
 4154W        W21002  15.853   6.929   5.377  0.0630  0.0887 -0.2641
 4155W        W21003  15.111   7.644  11.573  0.2275 -0.1258 -0.0992
 4156W        W21004   2.947   7.750  14.986 -0.2110  0.0688 -0.4331
 4157W        W21005   0.340  13.423  11.666 -0.2211  0.2930 -0.1042
 4158W        W21006   2.154  14.290  16.466 -0.1047  0.2600 -0.1433
 4159W        W21007   8.437  14.383   0.582  0.3024 -0.1334 -0.0097
 4160W        W21008   2.445   2.238   1.919 -0.0357  0.1362  0.0619
 4161W        W21009  10.624   0.412   2.373  0.1047  0.3228  0.0137
 4162W        W21010  11.553   9.100  15.965 -0.2128 -0.2262 -0.2349
 4163W        W21011  17.522  15.733   2.761 -0.2228  0.1878 -0.0583
 4164W        W21012  11.928  14.859   4.774 -0.2347 -0.2376  0.1656
 4165W        W21013  11.074   4.564  14.872 -0.1005 -0.5800  0.1440
 4166W        W21014   0.018   3.473   0.812 -0.0473 -0.1836  0.1248
 4167W        W21015   6.687   7.348   2.739 -0.0351  0.2471  0.3851
 4168W        W21016   2.468   0.050   4.869 -0.1272  0.2106 -0.0658
 4169W        W21017  10.389   4.508   4.596 -0.0333 -0.0578  0.4344
 4170W        W21018  13.625  14.709  13.148  0.3305  0.2075  0.2334
 4171W        W21019  17.459  14.779   4.889 -0.1065  0.0050  0.1112
 4172W        W21020  13.676   1.639   5.234 -0.0429  0.2850 -0.0588
 4173W        W21021  10.082   4.870   0.249  0.4892  0.2719  0.0766
 4174W        W21022   9.691  17.173  11.762  0.0628 -0.0640 -0.1642
 4175W        W21023  11.169   2.411  13.238 -0.1016 -0.2601  0.4410
 4176W        W21024   7.746   9.946   0.947 -0.0370 -0.1294 -0.0640
 4177W        W21025  15.148   6.922   1.097 -0.0256  0.3268 -0.0129
 4178W        W21026  13.087  11.663   1.329  0.1018  0.1660  0.3112
 4179W        W21027   9.572   1.355   2.594 -0.2657 -0.3027  0.3230
 4180W        W21028   1.732  16.703  15.227  0.0487 -0.0010  0.1098
 4181W        W21029   8.820   6.914   5.676  0.2180 -0.1947  0.4318
 4182W        W21030  14.363   8.448  13.885 -0.1995 -0.3210 -0.0221
 4183W        W21031  11.155   2.400  16.329 -0.3438  0.0453 -0.1385
 4184W        W21032  12.047  15.160   3.875 -0.0076  0.2620 -0.3904
 4185W        W21033  13.023   6.726   3.590 -0.1250 -0.0353  0.1932
 4186W        W21034  13.881  12.208  10.835  0.0993  0.2818  0.0705
 4187W        W21035  14.650   9.351  12.488 -0.2067  0.0940 -0.1033
 4188W        W21036   3.181   6.333  14.207  0.1332  0.0149 -0.1335
 4189W        W21037  13.570   2.557   5.086  0.1641 -0.0247 -0.0656
 4190W        W21038  17.044   9.501   0.264  0.0554 -0.0186 -0.2465
 4191W        W21039   2.217   4.651  15.381 -0.2901  0.2768  0.1193
 4192W        W21040   2.450   4.652   4.956  0.1846  0.1817 -0.1621
 4193W        W21041  13.555  10.283  13.568  0.2152  0.1650 -0.2187
 4194W        W21042  10.755   9.435   5.054 -0.1744  0.0290  0.2342
 4195W        W21043   3.518   0.820  11.581 -0.1136  0.0221  0.0678
 4196W        W21044  14.626   7.520   0.401  0.0366 -0.0801  0.1103
 4197W        W21045  14.659   0.060   5.302 -0.0103  0.3036  0.1149
 4198W        W21046  16.610   0.912   4.989  0.2074 -0.2307  0.1059
 4199W        W21047  12.138   1.049  11.311 -0.0359 -0.0567  0.1435
 4200W        W21048   9.962   7.404   2.998  0.1373  0.0284 -0.0951
 4201W        W21049   2.354   1.693  15.192 -0.3299  0.1582 -0.2847
 4202W        W21050   3.162  17.191   4.237 -0.2218 -0.1857 -0.1332
 4203W        W21051   0.682  13.845  11.710 -0.0850  0.2213  0.2168
 4204W        W21052  15.532  13.952   2.778 -0.1517 -0.1913 -0.2094
 4205W        W21053   4.087  14.061  12.556  0.0071  0.1395  0.1070
 4206W        W21054   0.452   6.760  10.766 -0.0043  0.0439 -0.0859
 4207W        W21055  16.159  12.765   2.779  0.1377  0.3194  0.1688
 4208W        W21056  15.170   2.119   0.924 -0.1450 -0.3060 -0.2064
 4209W        W21057   1.260  17.413  12.553 -0.2552  0.2886  0.0867
 4210W        W21058   1.399   0.206   3.296  0.0490  0.0440 -0.0538
 4211W        W21059  11.211   2.074  11.932  0.2634 -0.1537 -0.3250
 4212W        W21060  12.050   5.673  12.237  0.3142 -0.2462  0.0016
 4213W        W21061  16.790  15.044   2.503 -0.1453 -0.1972 -0.0476
 4214W        W21062  16.106  15.199   0.762  0.1750 -0.0694 -0.6291
 4215W        W21063  13.884   4.282   1.159 -0.0967  0.1674 -0.1716
 4216W        W21064  13.361  13.723   2.972  0.1076  0.2603  0.3021
 4217W        W21065   3.650  15.106  16.587 -0.0939  0.0614 -0.0506
 4218W        W21066   9.418  17.206  16.307 -0.1042 -0.0128  0.0574
 4219W        W21067  11.813  15.362   0.441 -0.0744 -0.0421 -0.1510
 4220W        W21068   7.680   1.361  13.640  0.2167  0.2449 -0.1028
 4221W        W21069  13.539   9.215  14.690 -0.0715  0.2507 -0.0009
 4222W        W21070  14.514   5.662  16.444 -0.0277 -0.0539 -0.3069
 4223W        W21071   8.426  10.129  14.175 -0.0013  0.1831 -0.0593
 4224W        W21072   8.693  14.476  13.099 -0.1269  0.0476  0.0077
 4225W        W21073  12.743   8.355  13.433 -0.0298  0.4626 -0.1349
 4226W        W21074  14.688  11.811   2.985  0.0905 -0.2166  0.1762
 4227W        W21075  10.241   6.881  14.042  0.1815 -0.0278 -0.0849
 4228W        W21076   0.233  15.938  12.657  0.3674 -0.2582  0.0744
 4229W        W21077   5.311  10.756  16.635  0.1459 -0.1204  0.1676
 4230W        W21078   4.510  12.368   4.765 -0.0779 -0.6670  0.1302
 4231W        W21079   2.619  12.513   4.627 -0.1898  0.1241  0.1374
 4232W        W21080  11.300   3.876   3.499  0.0246  0.0516  0.1748
 4233W        W21081   0.732   0.287   1.455  0.3291  0.0747 -0.1100
 4234W        W21082   3.580   7.974  11.826 -0.1445 -0.1068 -0.2171
 4235W        W21083   6.901  15.656   0.681  0.2130 -0.0321 -0.2076
 4236W        W21084  15.726   4.631  16.189  0.0461 -0.1058 -0.1078
 4237W        W21085  15.727   9.094   6.059 -0.2202 -0.2889  0.0461
 4238W        W21086   4.500   2.537  12.257  0.2041  0.1050  0.2800
 4239W        W21087  11.311   6.178   2.183 -0.1507  0.2555 -0.2246
 4240W        W21088   0.927  14.539  16.023  0.0855 -0.2379 -0.0974
 4241W        W21089   9.366   6.624  13.157 -0.1902 -0.1828 -0.0024
 4242W        W21090  15.588  15.463  14.861  0.2183  0.0459 -0.0081
 4243W        W21091  15.035   0.376   4.426  0.2053 -0.0326 -0.1434
 4244W        W21092   5.425   4.815  12.061 -0.2813  0.2235 -0.1158
 4245W        W21093   2.342  14.474   2.406  0.0107 -0.1390  0.1246
 4246W        W21094  17.019  15.043   3.634  0.1666  0.2560  0.2148
 4247W        W21095   9.867  12.980  15.459  0.0141  0.1284 -0.0691
 4248W        W21096  14.201  13.136   0.117 -0.0645 -0.1026 -0.2208
 4249W        W21097  15.552   2.086  15.282 -0.1432  0.1635 -0.0439
 4250W        W21098  14.542  12.265  14.164 -0.0915 -0.2833  0.2043
 4251W        W21099   0.653  16.724   4.484 -0.0703  0.2090  0.3107
 4252W        W21100   4.906   1.699  12.629  0.2335 -0.0107 -0.1789
 4253W        W21101   0.705   1.116   3.374  0.0746 -0.0973  0.1888
 4254W        W21102   0.485   3.832  12.977  0.3012 -0.1560 -0.1975
 4255W        W21103  16.979   8.069  15.668  0.1253  0.2519 -0.2001
 4256W        W21104   1.748   1.042   2.927 -0.2577  0.0424  0.3130
 4257W        W21105  15.191  13.861   3.943 -0.3000 -0.4770  0.0070
 4258W        W21106   7.549   4.195  15.424 -0.0150  0.0373 -0.1335
 4259W        W21107  14.677  11.548   2.030  0.1134 -0.0533 -0.1900
 4260W        W21108   2.298   5.792   2.220 -0.1292  0.0167 -0.2479
 4261W        W21109   3.829  15.671  13.503 -0.0836 -0.0838  0.0224
 4262W        W21110  16.229   5.693   0.136  0.0784  0.1216  0.3434
 4263W        W21111   1.897   2.794   3.759 -0.1605  0.2187 -0.3463
 4264W        W21112   2.239   2.193  13.842 -0.1520  0.3784 -0.3675
 4265W        W21113  11.287  12.429  12.544 -0.0860 -0.2236 -0.2262
 4266W        W21114   9.133   8.895   1.889  0.1582 -0.0340  0.0947
 4267W        W21115   3.116   5.026   4.550 -0.1474  0.0286 -0.0233
 4268W        W21116  14.521   8.597   5.114 -0.0916  0.0893 -0.1005
 4269W        W21117   6.985  15.996   2.556  0.1198  0.1029 -0.2477
 4270W        W21118   6.480  12.053   1.379 -0.0339 -0.0499  0.0391
 4271W        W21119  10.087   5.680   2.277 -0.1063  0.1581 -0.1590
 4272W        W21120   4.914  15.975  12.609  0.1570  0.0820 -0.2356
 4273W        W21121  17.493  13.456   4.961 -0.2007 -0.2746 -0.0694
 4274W        W21122   5.714   0.847  10.327  0.0886  0.1393 -0.0166
 4275W        W21123  11.552   0.994  13.414  0.2060 -0.0209 -0.1513
 4276W        W21124   6.701  12.812   0.362 -0.3680 -0.1613 -0.0859
 4277W        W21125   8.003   7.306  14.574 -0.1065  0.0831 -0.1604
 4278W        W21126  14.577   0.904  13.767  0.3306 -0.1391 -0.3263
 4279W        W21127  15.894   7.791  12.551 -0.0775 -0.0963 -0.0602
 4280W        W21128  10.869   0.790   4.439  0.0787 -0.0992 -0.0762
 4281W        W21129   8.541   0.310   4.130 -0.1012 -0.3335 -0.3611
 4282W        W21130   9.445  11.791  12.376 -0.0248 -0.0720  0.1051
 4283W        W21131   6.867  17.125   4.631  0.3238 -0.0328  0.1382
 4284W        W21132  13.449   6.338   0.173 -0.0635  0.0702 -0.1746
 4285W        W21133   7.441   4.474  13.029 -0.2120  0.2049  0.2138
 4286W        W21134  14.353  12.952  11.651  0.2309 -0.0458  0.3878
 4287W        W21135   9.279   9.720   1.272 -0.0703  0.1047 -0.1975
 4288W        W21136   1.976   1.249   5.099 -0.3163 -0.1107  0.1508
 4289W        W21137   8.958  16.896  16.493 -0.2653 -0.0653 -0.0793
 4290W        W21138  15.451  14.331   1.484 -0.0110 -0.0445 -0.3276
 4291W        W21139   5.746   6.703   1.003  0.2748  0.0790 -0.2815
 4292W        W21140   3.136   4.844   0.243 -0.0060  0.0131  0.1541
 4293W        W21141   3.737   2.131  11.860 -0.0377 -0.0161  0.1724
 4294W        W21142  13.381  14.759   2.770  0.2337 -0.0354  0.1605
 4295W        W21143   7.069   5.835   5.154 -0.0994 -0.2602  0.1459
 4296W        W21144  16.578   1.163  12.713  0.0827 -0.2213 -0.1858
 4297W        W21145   8.751  11.447  16.537  0.1100 -0.2659  0.2051
 4298W        W21146  12.382   2.375   5.087 -0.1202 -0.0938 -0.1971
 4299W        W21147   8.711  10.708  16.063 -0.0495 -0.1418 -0.0238
 4300W        W21148   8.004  13.521  11.368 -0.0711 -0.2351  0.1469
 4301W        W21149  13.478   1.836  14.351  0.2384 -0.0877 -0.0010
 4302W        W21150   3.125   5.592   0.096  0.0382 -0.0267 -0.1724
 4303W        W21151  13.276  14.873   5.295  0.1336  0.0177 -0.0677
 4304W        W21152  17.124   0.459   1.430 -0.0711  0.4405  0.0516
 4305W        W21153   1.014   5.609   4.401  0.1991 -0.1918  0.1452
 4306W        W21154  15.463  12.309   4.082  0.1427 -0.1136  0.0683
 4307W        W21155  12.295   3.925  14.323 -0.1033 -0.0567 -0.0900
 4308W        W21156   4.419  14.917   2.746  0.0775  0.0929  0.0948
 4309W        W21157   4.955  16.519   0.372 -0.0151  0.0707  0.0940
 4310W        W21158   3.473   3.103  13.410 -0.1155  0.0532  0.1520
 4311W        W21159   6.794   3.846  15.111 -0.2744  0.2855 -0.0480
 4312W        W21160  16.300  16.558   0.450  0.2347  0.0231  0.1237
 4313W        W21161   9.188  10.404   5.439  0.0719  0.0292 -0.0271
 4314W        W21162   6.673  16.325  12.471 -0.1019 -0.0010  0.2899
 4315W        W21163  12.334   5.659  11.643  0.0420 -0.0473 -0.0826
 4316W        W21164   2.351   4.969   1.406  0.0531 -0.2682 -0.0224
 4317W        W21165   6.602  10.664  14.385 -0.1104 -0.0922 -0.3225
 4318W        W21166   9.797   2.917   3.779 -0.3632 -0.3710 -0.0437
 4319W        W21167   5.035   3.299   4.427  0.0788  0.0661  0.2104
 4320W        W21168   3.237   3.198  12.613 -0.0142 -0.1295  0.0118
 4321W        W21169  17.352   6.342   5.330 -0.1063  0.0537 -0.3094
 4322W        W21170  12.818   9.064  12.720 -0.0644 -0.1712  0.0740
 4323W        W21171   4.785   8.425   2.701  0.0686 -0.0567  0.1005
 4324W        W21172  15.375   3.844  15.112 -0.0724  0.0622  0.2730
 4325W        W21173  11.868   0.907  14.629  0.1484 -0.1684  0.0946
 4326W        W21174   5.538  10.568  15.008  0.0010  0.3145 -0.0523
 4327W        W21175   9.063  14.057   0.719  0.0535 -0.0064 -0.0752
 4328W        W21176   7.941   5.305   2.426 -0.2033 -0.1557  0.0367
 4329W        W21177   9.634   9.000   4.082  0.2002  0.0656  0.1115
 4330W        W21178  10.771  14.328  12.451  0.3313  0.2274  0.0509
 4331W        W21179   9.994   8.733   4.557 -0.4597  0.0444 -0.1983
 4332W        W21180  11.683   2.372   4.543  0.0009 -0.1515 -0.1792
 4333W        W21181  11.060  14.386  14.563  0.1724 -0.3170 -0.1778
 4334W        W21182  10.489  12.514   4.133 -0.4919  0.2007  0.1712
 4335W        W21183  17.178  10.989   0.748  0.0756  0.1879 -0.0405
 4336W        W21184   6.222  13.986   3.166  0.0333  0.2038 -0.1078
 4337W        W21185   2.231   0.758  12.258  0.1571 -0.2587 -0.0541
 4338W        W21186   7.410  16.572  11.444 -0.1113 -0.4197  0.1659
 4339W        W21187  14.277  10.795  13.139  0.3100 -0.0318  0.1519
 4340W        W21188   2.155   5.184   5.021 -0.1118  0.1378 -0.1430
 4341W        W21189   8.032  11.945   3.853 -0.3190 -0.1379  0.1844
 4342W        W21190  14.040  11.579   2.660  0.1419  0.0232 -0.0533
 4343W        W21191  10.099  10.244  14.170 -0.0123 -0.2201 -0.0429
 4344W        W21192  10.965  10.235  16.018  0.1443  0.0134 -0.0067
 4345W        W21193  15.998  15.172  14.936 -0.2999  0.3115  0.0147
 4346W        W21194   6.602  14.958  16.506 -0.1956  0.0771  0.1612
 4347W        W21195   7.659  16.088   3.354  0.1736 -0.0618 -0.1970
 4348W        W21196   9.015  13.797   2.367  0.0358  0.0393 -0.2206
 4349W        W21197   0.427   8.022  14.364 -0.0528  0.1696 -0.1680
 4350W        W21198   4.771  11.740   0.054 -0.0947  0.2403 -0.0931
 4351W        W21199  12.798   5.673   0.512  0.0386 -0.0848 -0.2114
 4352W        W21200   5.590   8.580  13.862 -0.2967  0.0041  0.0990
 4353W        W21201   6.706  10.901  16.454 -0.0809  0.1382 -0.3365
 4354W        W21202  13.771   1.530  14.066  0.1673  0.2391 -0.0778
 4355W        W21203   1.776   6.591   1.076  0.0674  0.3779 -0.1522
 4356W        W21204  11.263   7.384   3.607 -0.2901 -0.1320 -0.0714
 4357W        W21205   9.253   8.971  14.527  0.0683  0.1652 -0.1748
 4358W        W21206  15.328  17.652  11.264  0.1897 -0.2736 -0.1756
 4359W        W21207  12.044   1.672   1.030  0.3014 -0.1230  0.1191
 4360W        W21208  16.480   6.117  15.177 -0.0122 -0.0849  0.0107
 4361W        W21209   0.069  17.500  15.192 -0.0445 -0.2223  0.1903
 4362W        W21210   8.395   1.157  12.463  0.0464 -0.3090 -0.2873
 4363W        W21211   9.742  11.463  11.617 -0.0028  0.1665 -0.1847
 4364W        W21212   6.227   3.383   0.386  0.2334  0.3046 -0.3355
 4365W        W21213   7.304   9.753  16.260  0.2760  0.3721  0.0128
 4366W        W21214   7.483  10.542  12.858  0.1418  0.2008  0.2003
 4367W        W21215   1.575   5.369  11.502  0.0304 -0.2463  0.1341
 4368W        W21216  11.287   1.163  11.721 -0.1291  0.1089  0.2010
 4369W        W21217  14.174   9.514  14.088 -0.1202 -0.1558  0.1613
 4370W        W21218  10.200  12.118   3.340 -0.0598  0.0604  0.2334
 4371W        W21219  15.115   4.971   4.792 -0.2722  0.2206  0.0050
 4372W        W21220   2.078  10.028  12.730  0.0764  0.2217  0.3997
 4373W        W21221   2.802   3.795  12.295 -0.0071 -0.0769 -0.1903
 4374W        W21222   1.162   0.569  12.956  0.0750  0.1590 -0.2937
 4375W        W21223   8.587   9.693   2.926 -0.0039  0.1805  0.3000
 4376W        W21224   2.824  16.263   4.512  0.1283  0.3892 -0.1076
 4377W        W21225  10.823   9.015   3.444 -0.0481 -0.0266  0.0407
 4378W        W21226   9.624   1.988  12.327  0.3962 -0.2412 -0.1714
 4379W        W21227   8.122   5.373   3.091  0.0753 -0.1801  0.1734
 4380W        W21228   1.115  10.520  15.387  0.0402 -0.1593 -0.0554
 4381W        W21229   8.022   4.228  14.674  0.1088  0.2975 -0.0472
 4382W        W21230   5.161  15.371   2.514 -0.1197 -0.0173 -0.2328
 4383W        W21231   8.859   7.478  14.897 -0.1011 -0.2579 -0.1892
 4384W        W21232   4.699  15.683  11.470  0.1054 -0.1192 -0.0946
 4385W        W21233   7.377   4.105  12.650 -0.2567  0.2791 -0.0587
 4386W        W21234   7.958  11.470  12.414 -0.2123  0.2612 -0.1208
 4387W        W21235  12.923   4.036  12.222  0.1811 -0.1704  0.1218
 4388W        W21236   8.038  13.431   4.289  0.4620 -0.0743  0.0938
 4389W        W21237  16.189  12.759  16.237  0.2286 -0.0240  0.0789
 4390W        W21238  17.261   6.217  14.450  0.2798  0.0060  0.1802
 4391W        W21239  11.671  17.468   3.433 -0.2210 -0.1941 -0.1754
 4392W        W21240  15.537  17.281  12.148  0.0994 -0.1462 -0.0829
 4393W        W21241  11.063   2.015   3.371  0.0522 -0.1294  0.0759
 4394W        W21242  13.729   1.413  12.290 -0.1724  0.2007  0.4033
 4395W        W21243  11.828  15.646   4.081  0.2478 -0.1239 -0.3028
 4396W        W21244   4.962   4.692   6.344  0.0592 -0.0859 -0.0274
 4397W        W21245   6.689   1.923  13.286 -0.1800 -0.2249 -0.1295
 4398W        W21246   7.668  15.137  12.369 -0.1331  0.0029  0.0781
 4399W        W21247  11.563   1.351  13.058  0.2013 -0.0251 -0.2211
 4400W        W21248  13.597  15.152   4.258  0.6225 -0.2887  0.2794
 4401W        W21249   7.065   4.094   3.535  0.0710  0.1273 -0.2737
 4402W        W21250   1.987   2.760   3.144  0.2088  0.0299 -0.1722
 4403W        W21251  12.199   1.651   1.894 -0.1319  0.0855  0.1282
 4404W        W21252   2.869   0.410   4.022 -0.3051 -0.0315  0.0962
 4405W        W21253  11.559  14.708  14.469 -0.3774 -0.1293  0.0394
 4406W        W21254   4.487   9.791  14.880 -0.2288  0.0744 -0.0598
 4407W        W21255   9.271   4.919   3.813 -0.0598 -0.1202 -0.0043
 4408W        W21256  12.665  10.930  13.773  0.1199  0.1625 -0.2593
 4409W        W21257   1.852   1.626  15.034 -0.0878 -0.2266 -0.0014
 4410W        W21258   2.243   8.074   1.333 -0.1852 -0.0165 -0.1366
 4411W        W21259  15.473  15.932  14.640  0.0731 -0.1924 -0.1748
 4412W        W21260   9.905  13.129  13.341  0.1366  0.0282 -0.0068
 4413W        W21261   5.835  14.339  14.112  0.1037 -0.0740 -0.1607
 4414W        W21262   6.107   1.273  16.364  0.1373 -0.2495  0.1969
 4415W        W21263  17.576  13.692  14.802 -0.0482 -0.1704  0.0638
 4416W        W21264  17.229  11.384  14.822 -0.3438  0.1752  0.3695
 4417W        W21265   1.621   5.082   2.513 -0.0109 -0.0591  0.1433
 4418W        W21266   1.192  12.716   2.158  0.2591 -0.2429 -0.1996
 4419W        W21267   8.751   1.324  15.588  0.0556  0.0149  0.0497
 4420W        W21268   7.060  12.527   1.309  0.0903 -0.0499  0.0889
 4421W        W21269  13.751   5.040  14.618  0.2110 -0.0208 -0.0828
 4422W        W21270  15.568   3.368  14.633 -0.0598 -0.1064  0.1330
 4423W        W21271  16.915  12.175  10.926  0.1234  0.0239 -0.0317
 4424W        W21272   0.097   7.945   0.063  0.1591 -0.0495 -0.3583
 4425W        W21273  17.039  15.116   4.771 -0.0050 -0.0017 -0.0005
 4426W        W21274   7.592  13.449  11.625  0.0679 -0.0787 -0.0390
 4427W        W21275   5.285  16.563   3.899 -0.0246  0.0193 -0.0210
 4428W        W21276   3.799  15.999   0.499 -0.0644  0.1390  0.2319
 4429W        W21277  12.824  13.350  14.261 -0.3909 -0.0271 -0.1406
 4430W        W21278   6.301  15.973  15.709  0.1722 -0.0587 -0.1169
 4431W        W21279  17.255  12.023  15.691  0.1432 -0.1089 -0.0198
 4432W        W21280   2.719   5.697  11.484  0.1070  0.0092 -0.0076
 4433W        W21281   7.217  12.047  16.632 -0.0325 -0.0608  0.0552
 4434W        W21282   7.090  14.730  12.020  0.0968 -0.0920 -0.0483
 4435W        W21283   3.976   7.162   2.486 -0.1160 -0.0804 -0.1304
 4436W        W21284  10.122  16.585   0.965  0.0092  0.0068  0.2990
 4437W        W21285   1.065   5.654  16.286  0.0792 -0.3765 -0.1912
 4438W        W21286  12.430  13.580   6.057  0.3874 -0.2868 -0.2686
 4439W        W21287  13.367   3.989  15.365  0.1065  0.2416 -0.0671
 4440W        W21288   2.604   7.054  12.911 -0.2314 -0.1428 -0.1608
 4441W        W21289   1.626   9.698  12.749 -0.0095 -0.2000 -0.0494
 4442W        W21290  14.477   0.114  11.933 -0.0689  0.0699  0.1386
 4443W        W21291   9.712   5.570  15.882 -0.2199 -0.3835 -0.1518
 4444W        W21292   1.963   2.090   2.006 -0.1923 -0.0100 -0.0663
 4445W        W21293  10.932  12.882   4.263  0.1516  0.1336  0.0336
 4446W        W21294   2.987  17.203   4.798 -0.2169 -0.1868  0.3049
 4447W        W21295  16.072   1.782   2.173 -0.0922 -0.3124  0.1662
 4448W        W21296   9.353   5.092  16.053  0.0413 -0.0448  0.1493
 4449W        W21297  17.452   5.971  16.072  0.2199  0.0007 -0.0169
 4450W        W21298   9.056  15.386  15.223 -0.0727 -0.4120  0.0601
 4451W        W21299   5.306   4.486   2.127  0.1827  0.4056  0.0025
 4452W        W21300   3.547   9.967  15.433 -0.0608 -0.0360  0.0197
 4453W        W21301   5.293   3.376   6.026  0.0567  0.0490 -0.1672
 4454W        W21302  17.144   4.807  13.285 -0.1961 -0.1089  0.5105
 4455W        W21303   5.399   3.332  16.630 -0.1272  0.2838  0.0323
 4456W        W21304  16.741  14.055  11.954 -0.1599 -0.0474  0.0335
 4457W        W21305   0.158  11.795   0.619  0.0339 -0.0154 -0.0732
 4458W        W21306   8.411   4.690   4.762 -0.1467  0.0725 -0.0623
 4459W        W21307   4.990   9.464  14.729 -0.2278  0.0253  0.3095
 4460W        W21308  11.217   5.323  16.239 -0.2286 -0.1523  0.0332
 4461W        W21309   3.845   7.355   2.926  0.0122  0.0525 -0.0383
 4462W        W21310  13.563   4.013   4.503 -0.0075  0.0609 -0.0919
 4463W        W21311   8.993   3.565  12.011  0.0554  0.0587 -0.0553
 4464W        W21312  10.380  14.418  13.783  0.1058  0.1867 -0.1293
 4465W        W21313  15.456   0.244   3.543 -0.0248 -0.1003  0.2060
 4466W        W21314   1.668  11.097  13.585  0.1147 -0.0492  0.1296
 4467W        W21315   6.644  10.151  15.154 -0.0284  0.1175 -0.2561
 4468W        W21316   9.721   0.439  12.193 -0.2950  0.2503  0.0761
 4469W        W21317   9.217  16.457  13.755  0.3152  0.1974 -0.0660
 4470W        W21318  12.145   6.488  11.273 -0.0008 -0.1051  0.0037
 4471W        W21319  13.234   5.644  14.326  0.3792 -0.0904  0.2070
 4472W        W21320  15.861  14.635  14.950  0.1991 -0.0737  0.0681
 4473W        W21321   8.560  12.137  11.641 -0.2648 -0.0126  0.1813
 4474W        W21322  14.848   4.376   3.042  0.0610 -0.0830 -0.0130
 4475W        W21323  14.211  14.431  13.967 -0.0863 -0.1208 -0.1081
 4476W        W21324  15.039   2.498  13.144  0.0864  0.2394 -0.3359
 4477W        W21325  17.509   1.493  11.310  0.0881  0.0354  0.2118
 4478W        W21326   7.601   4.152  14.946 -0.2674 -0.0491 -0.3859
 4479W        W21327  13.800   2.241  11.737  0.2301 -0.2609  0.1016
 4480W        W21328  16.918   8.389   1.886 -0.0268 -0.1478 -0.0603
 4481W        W21329  10.237   1.514  12.841 -0.2018  0.2526 -0.0951
 4482W        W21330   5.021  11.467   5.273  0.1536  0.0526 -0.2809
 4483W        W21331   1.836  11.038  10.881 -0.1386 -0.0262 -0.1628
 4484W        W21332   5.782   4.147   0.738  0.1113  0.0199 -0.2970
 4485W        W21333   9.587   4.800   2.035  0.0834  0.1627  0.1614
 4486W        W21334   0.943   5.302   0.407 -0.2256 -0.1338  0.0483
 4487W        W21335  12.845   5.936  11.578  0.2426 -0.0950  0.2732
 4488W        W21336   0.647  11.840   3.781 -0.0818 -0.1088  0.0724
 4489W        W21337  13.460  12.558   0.495  0.1099 -0.0906  0.2412
 4490W        W21338  13.647   2.348  12.204  0.0035  0.3018 -0.2613
 4491W        W21339   4.296  13.861  14.955 -0.2131  0.2210  0.0357
 4492W        W21340   0.002   5.666   4.341 -0.1784 -0.0114  0.1250
 4493W        W21341   5.772  13.856   5.251 -0.1364 -0.5136  0.2920
 4494W        W21342  10.709  13.888   0.556  0.3485  0.0195 -0.1959
 4495W        W21343   3.602   4.442  16.071  0.1577 -0.0433  0.1509
 4496W        W21344  13.600   9.110   2.885 -0.1977  0.1177 -0.1766
 4497W        W21345  16.345   9.125   0.810  0.1645  0.0338 -0.0008
 4498W        W21346   6.325  13.406   4.055 -0.4412  0.1925 -0.3110
 4499W        W21347   1.187   6.140   1.058 -0.1026  0.0375  0.2448
 4500W        W21348  16.946   8.548   1.305 -0.0357 -0.1600 -0.0654
 4501W        W21349  16.400   1.880  16.200 -0.1046  0.0081 -0.3567
 4502W        W21350  13.878   8.096   3.982  0.1512 -0.0398  0.1308
 4503W        W21351  10.723  10.747  12.740  0.0603  0.2010  0.2664
 4504W        W21352  17.072   1.610   0.803  0.2789  0.2127  0.5537
 4505W        W21353   4.405   1.633   3.405  0.2274  0.0699  0.0003
 4506W        W21354   2.412  12.286   1.152  0.2470  0.0674 -0.0389
 4507W        W21355   9.832   2.236  11.412  0.0614 -0.1898 -0.0882
 4508W        W21356  15.362  14.651  11.605 -0.2319 -0.2894  0.0321
 4509W        W21357   6.067   6.599   1.457  0.0803  0.1585  0.1407
 4510W        W21358   7.470   9.480   1.241  0.0277 -0.0925  0.2094
 4511W        W21359   8.477  12.618   5.109  0.3332 -0.2033 -0.0797
 4512W        W21360   2.383  10.893  15.166  0.2844  0.2691  0.0942
 4513W        W21361   5.752   6.501  12.551  0.0455  0.2417  0.1179
 4514W        W21362  13.615   0.518  12.524  0.0552  0.0671 -0.0086
 4515W        W21363  15.428  16.689  11.369 -0.2390  0.0234 -0.2837
 4516W        W21364   8.242  14.220  12.048 -0.1159 -0.2581  0.0516
 4517W        W21365  10.838  15.860  11.863  0.0095  0.2271 -0.2756
 4518W        W21366  11.663   2.915   0.551 -0.2703 -0.1032  0.2175
 4519W        W21367  16.734  16.787  13.806  0.1599  0.0543 -0.0109
 4520W        W21368   2.134   0.300  12.367  0.1176 -0.2434  0.2140
 4521W        W21369   3.584   4.780   2.785  0.0470  0.0884 -0.0930
 4522W        W21370   9.062   8.939  11.094 -0.0015  0.0491  0.3481
 4523W        W21371  11.804   3.047  13.231  0.0471  0.1714  0.1193
 4524W        W21372  10.690  15.735  16.437  0.3250 -0.3012  0.0706
 4525W        W21373   0.264  10.013   4.256  0.1487  0.1260 -0.0029
 4526W        W21374  16.215   7.353   3.603  0.3085  0.1384  0.0109
 4527W        W21375  11.314  15.658  13.410  0.1139 -0.2960 -0.3481
 4528W        W21376  15.896  14.112  12.118 -0.1136 -0.2372 -0.0943
 4529W        W21377  10.333   8.421  16.495  0.1841 -0.0027  0.0343
 4530W        W21378   4.654   5.540  13.313  0.1506 -0.0545 -0.4112
 4531W        W21379  14.418   0.430  11.282  0.0193  0.1831 -0.0302
 4532W        W21380   0.735   9.036   5.025 -0.0968 -0.3627 -0.2248
 4533W        W21381   4.226   4.730   5.899 -0.1751  0.0824 -0.0771
 4534W        W21382   3.960   8.195   2.209  0.0252 -0.0913  0.3244
 4535W        W21383  15.958  10.553   4.576 -0.0740  0.1841  0.1728
 4536W        W21384  17.059   7.859  14.000 -0.0672 -0.2999  0.1686
 4537W        W21385  10.145  16.615   0.455  0.1175 -0.0266  0.2060
 4538W        W21386   0.243   8.843   0.314 -0.3463 -0.0938 -0.0108
 4539W        W21387   9.203   7.533  15.733 -0.2018  0.0431  0.0422
 4540W        W21388  16.088   2.510   0.337  0.2635 -0.2289  0.2669
 4541W        W21389   7.099  15.121  13.929  0.2805 -0.1857 -0.0169
 4542W        W21390   1.703   4.226   4.892  0.0991 -0.1132  0.2449
 4543W        W21391  11.745   3.888  16.307 -0.1194  0.1506  0.3285
 4544W        W21392  12.378  16.399  15.383  0.3253 -0.1935 -0.0444
 4545W        W21393   3.892   4.164   4.153  0.0557 -0.0913 -0.1523
 4546W        W21394  13.931   7.057   3.834 -0.1224  0.1446  0.1680
 4547W        W21395   3.835  15.164   6.111 -0.0839 -0.0110 -0.0354
 4548W        W21396  11.729   3.140  15.366 -0.2100 -0.0688  0.1392
 4549W        W21397   9.552   0.239  13.389  0.0528 -0.0101  0.3981
 4550W        W21398   4.895  12.330   3.082  0.1304 -0.0454 -0.1611
 4551W        W21399   4.724  14.008   3.302  0.0243 -0.0589  0.3074
 4552W        W21400   9.148  10.951   1.796  0.0891  0.0115  0.3078
 4553W        W21401   9.934  14.782   5.458  0.2721  0.0015  0.3671
 4554W        W21402   0.200  15.303  13.763 -0.0440  0.0335  0.1596
 4555W        W21403   2.267   8.709   2.410 -0.0722 -0.2222 -0.1512
 4556W        W21404  14.990   1.317  12.438  0.1847  0.0570  0.0795
 4557W        W21405   2.395   5.862  11.836  0.5668 -0.1021 -0.0057
 4558W        W21406  10.585  11.728  13.808  0.0529 -0.1749  0.3078
 4559W        W21407   4.923  14.741  14.837  0.0982  0.2876  0.0235
 4560W        W21408   2.826   3.105   3.992  0.1203 -0.1999  0.0888
 4561W        W21409  17.046   4.839  15.863  0.4386  0.4254 -0.0878
 4562W        W21410  11.808   0.494   4.653 -0.1281  0.3120 -0.0745
 4563W        W21411   6.750  12.861   6.306  0.2224  0.0827 -0.0333
 4564W        W21412  15.610  15.985   0.323 -0.0312  0.0758 -0.0526
 4565W        W21413   5.312   1.433   2.435  0.1747 -0.1934 -0.0416
 4566W        W21414  17.248  14.178   4.543 -0.1971 -0.1239 -0.0904
 4567W        W21415   3.898  12.848   2.480  0.2057 -0.1298 -0.3362
 4568W        W21416   2.522  15.590   0.052  0.1715 -0.0918 -0.2404
 4569W        W21417  15.869  15.669  13.147  0.2520  0.0590  0.0809
 4570W        W21418   3.812   5.683   4.077 -0.3795  0.1572  0.4269
 4571W        W21419  16.237  11.154   3.845 -0.1598 -0.0428 -0.1019
 4572W        W21420  14.051  12.554   1.195 -0.0363  0.1359 -0.0265
 4573W        W21421   4.480  13.960   4.781  0.2376  0.0997  0.2080
 4574W        W21422   9.195  14.305  14.544 -0.0608  0.1387 -0.1907
 4575W        W21423  10.363   2.040  13.422  0.3105  0.0481 -0.0015
 4576W        W21424   0.352   7.019   4.383 -0.3404  0.3128 -0.0203
 4577W        W21425  15.236   9.880   4.516  0.1336  0.0336  0.1227
 4578W        W21426   6.899  15.322  14.670  0.1917  0.0311  0.1975
 4579W        W21427   2.008  13.756  14.679 -0.3686 -0.1336 -0.0960
 4580W        W21428   6.975   8.063  12.990  0.1914 -0.0720 -0.0347
 4581W        W21429  14.478  17.363  15.852 -0.5187  0.0409 -0.0862
 4582W        W21430   5.309   2.333   1.303 -0.0282  0.2957 -0.2666
 4583W        W21431  16.720  15.443   3.385  0.2851 -0.1839 -0.0801
 4584W        W21432  13.793  17.249  12.147 -0.1699 -0.0003  0.2099
 4585W        W21433   4.003   0.374  16.025 -0.0100  0.0923 -0.2003
 4586W        W21434   4.987  11.819  11.640  0.0711 -0.0006  0.0463
 4587W        W21435  10.320   1.705   2.517 -0.3467  0.0689 -0.3862
 4588W        W21436   7.914   9.304   3.730 -0.0197 -0.0447 -0.0251
 4589W        W21437   4.235  15.772   2.503 -0.3805  0.1859 -0.2258
 4590W        W21438  16.622  17.135  15.053  0.1966  0.0244  0.1810
 4591W        W21439   3.115  11.211  15.986  0.3325 -0.3776  0.1210
 4592W        W21440  10.990   9.038  12.472 -0.0498  0.0353  0.0895
 4593W        W21441  10.724   4.648   1.414  0.2295  0.4184  0.0542
 4594W        W21442   3.644   0.779   2.301 -0.0003  0.3615 -0.0445
 4595W        W21443   7.194  16.572  13.208  0.2268 -0.2717 -0.2373
 4596W        W21444  10.969   4.205   2.960  0.2945  0.0230  0.0454
 4597W        W21445   4.341   6.444  15.093  0.0164 -0.0475 -0.1146
 4598W        W21446   8.499   3.986  14.473  0.1022 -0.0684 -0.4586
 4599W        W21447  14.532   7.959   6.330  0.0080 -0.0137  0.0022
 4600W        W21448   0.622  12.605  13.501 -0.0470  0.1427 -0.0277
 4601W        W21449   2.071  15.654   2.936  0.0188 -0.1109 -0.0095
 4602W        W21450  11.380  10.438   0.614 -0.1199  0.0535  0.0167
 4603W        W21451   0.503  15.037   0.476 -0.1530 -0.3584 -0.0762
 4604W        W21452  15.131   2.095   1.932  0.1596 -0.1439 -0.0413
 4605W        W21453   4.589   1.155  13.898  0.0197  0.2831 -0.2701
 4606W        W21454   2.382   5.595   0.386  0.2478  0.2120  0.0115
 4607W        W21455   9.750   3.415  14.164  0.0891 -0.1503 -0.0532
 4608W        W21456  11.216   2.340  13.756 -0.0903  0.0584  0.1203
 4609W        W21457   0.983   3.893  12.842  0.0450  0.0035  0.0567
 4610W        W21458   6.569   1.941   0.823 -0.0134  0.0446  0.1565
 4611W        W21459   4.983  12.992   1.332 -0.4591  0.0414  0.0295
 4612W        W21460  13.550   8.715  10.694 -0.2536 -0.0681 -0.1309
 4613W        W21461   3.020  10.297   5.238 -0.0501 -0.1917  0.1551
 4614W        W21462   4.164  13.050  12.307 -0.2391 -0.3881  0.1413
 4615W        W21463   6.131  15.200   3.177 -0.1202 -0.0963 -0.0740
 4616W        W21464   8.632   4.082  13.447  0.0490 -0.2825  0.3948
 4617W        W21465  15.241  11.417  12.394 -0.1673 -0.1506 -0.2644
 4618W        W21466   2.223   2.527  14.639 -0.0468 -0.0555  0.1405
 4619W        W21467   7.355   1.661  15.475  0.0515  0.1401 -0.0608
 4620W        W21468   9.305   7.036   5.653 -0.1464 -0.1132 -0.0202
 4621W        W21469  13.116   8.770  11.916  0.2269 -0.0416 -0.2108
 4622W        W21470   6.734   9.713   1.759 -0.2521  0.1744  0.2501
 4623W        W21471  16.178   4.986   5.906  0.0529 -0.0569  0.0342
 4624W        W21472   5.151   3.734   4.192  0.0755 -0.1252  0.2156
 4625W        W21473  10.619   5.912  13.653 -0.0883  0.1035  0.2334
 4626W        W21474  14.477   9.521  11.647 -0.2467  0.1318  0.1555
 4627W        W21475   3.191   2.896  14.567 -0.4135 -0.1717 -0.1510
 4628W        W21476  13.434   5.857   3.919 -0.1473  0.2238  0.1212
 4629W        W21477  10.267   6.144  11.362  0.1548 -0.1348 -0.0601
 4630W        W21478   6.955  13.680  13.366  0.0423  0.0450 -0.1400
 4631W        W21479   9.963   4.070  15.735 -0.1892 -0.0468  0.3442
 4632W        W21480   2.179   5.882  14.784  0.0853 -0.0800  0.3932
 4633W        W21481   2.902   6.825   5.241 -0.1525 -0.0676 -0.1569
 4634W        W21482  17.012  12.600   1.192 -0.0205  0.0796  0.2028
 4635W        W21483   5.387   2.820  14.840 -0.0718 -0.0123  0.0826
 4636W        W21484   0.048   3.981   2.352 -0.0082 -0.0616  0.1240
 4637W        W21485   0.894   0.576   5.004  0.1249  0.1170 -0.0124
 4638W        W21486   4.157   4.353  14.424  0.1015  0.0202  0.0057
 4639W        W21487   9.628  16.779  16.068  0.0141  0.2196  0.0169
 4640W        W21488  13.900   3.405  15.270 -0.1139  0.0218  0.1297
 4641W        W21489  14.260  12.944   5.148 -0.1602  0.0155  0.2739
 4642W        W21490  11.450   6.159   0.790  0.0211 -0.1277  0.0452
 4643W        W21491  14.146   4.554  13.425  0.0739  0.0502  0.1585
 4644W        W21492  14.534   4.629   0.447  0.4342 -0.0053 -0.1880
 4645W        W21493   2.402   4.392  16.403  0.0000 -0.1236  0.0532
 4646W        W21494   4.106   5.149   3.201 -0.1596 -0.1159  0.0125
 4647W        W21495   8.573   8.891  12.950 -0.0237 -0.2899 -0.1237
 4648W        W21496   0.974  11.470  12.133  0.0789 -0.0808  0.1920
 4649W        W21497   8.686   2.990   0.499 -0.1697 -0.1067  0.1782
 4650W        W21498   8.467  13.230   0.801  0.2820 -0.1886 -0.2163
 4651W        W21499  17.369   8.433  15.029  0.0471 -0.0294 -0.1293
 4652W        W21500   8.835   8.374   0.080 -0.1019 -0.2909  0.1324
 4653W        W21501  12.530   7.469   3.256 -0.1186 -0.1701  0.0179
 4654W        W21502   9.220   1.900   3.513  0.3336  0.3989 -0.0876
 4655W        W21503   6.033   8.075   2.564  0.0357 -0.1006  0.1861
 4656W        W21504   0.621   8.732  11.976 -0.4643  0.0766  0.1775
 4657W        W21505   1.915  14.606   0.894 -0.0486  0.2204  0.1056
 4658W        W21506   3.035  14.108  13.078  0.0426  0.0409  0.2930
 4659W        W21507   3.283   6.373   0.514  0.1370 -0.0359  0.0575
 4660W        W21508  15.984   8.933   3.598 -0.5216  0.1326  0.2277
 4661W        W21509  15.994  15.534   0.426  0.1428  0.2487 -0.4250
 4662W        W21510   2.853   1.527   4.832 -0.0693  0.0052 -0.2968
 4663W        W21511   0.908  13.813  11.225  0.0211 -0.0135 -0.1466
 4664W        W21512   6.479   5.313   1.695  0.2074  0.1017  0.0384
 4665W        W21513   5.284  16.358   4.715  0.2906  0.1645  0.0541
 4666W        W21514   8.378   7.954  11.409  0.0592 -0.3061 -0.0236
 4667W        W21515   6.425  10.834  11.413  0.0083  0.1753 -0.1197
 4668W        W21516  10.912  11.575   2.029 -0.0665  0.1078  0.0417
 4669W        W21517   2.649  11.580  14.711 -0.0608 -0.0471  0.2017
 4670W        W21518  15.684   9.574  12.175 -0.0939 -0.0381 -0.1178
 4671W        W21519  11.173  11.531   5.068  0.2731  0.0501 -0.1950
 4672W        W21520   1.965   7.350  10.930  0.3685  0.0401 -0.0611
 4673W        W21521   4.268   1.751  13.734 -0.0366  0.0843  0.1208
 4674W        W21522   4.422   9.572   0.378  0.1370  0.0469 -0.2386
 4675W        W21523   1.983   9.296  10.073  0.2143  0.0910 -0.1249
 4676W        W21524  15.044   2.502   1.505 -0.3930 -0.0651 -0.0608
 4677W        W21525   6.598   7.810   0.314 -0.1079  0.0036  0.1721
 4678W        W21526   4.787  17.004  15.978 -0.0729  0.0356 -0.0063
 4679W        W21527   9.512  17.665  11.645  0.2522  0.0404  0.1226
 4680W        W21528  11.996   3.385  11.325 -0.0894 -0.0445 -0.1657
 4681W        W21529   6.760   0.392   0.386  0.4281 -0.0924  0.3674
 4682W        W21530   9.840   6.228  14.137  0.0813 -0.0853 -0.1983
 4683W        W21531   3.841  16.725   5.355 -0.0719 -0.1448 -0.1786
 4684W        W21532   6.362  16.469  14.248  0.0537 -0.0101  0.1344
 4685W        W21533   5.497  13.695   2.352  0.1664  0.1471 -0.1708
 4686W        W21534   3.151   7.457   4.312  0.4981 -0.0717  0.0231
 4687W        W21535   2.358   3.114   1.714 -0.2442  0.1300  0.2394
 4688W        W21536   2.565   0.201   0.580 -0.0703 -0.1068  0.0489
 4689W        W21537   3.146  11.832   4.080  0.1281  0.2673  0.2074
 4690W        W21538   4.704   6.732   4.977 -0.0776  0.1894  0.0962
 4691W        W21539  16.985   1.612   4.253 -0.1367  0.1534  0.1520
 4692W        W21540   7.153  15.769  16.071  0.1181 -0.0002  0.2923
 4693W        W21541   5.927  11.457  11.072  0.2201  0.3965 -0.3018
 4694W        W21542   7.825   1.863   0.898 -0.3687 -0.1503 -0.1051
 4695W        W21543  11.939   9.820  14.237 -0.1949 -0.0901  0.1160
 4696W        W21544  16.879  16.240   4.996  0.0571  0.1352  0.1185
 4697W        W21545  17.162   5.119  12.927 -0.1432  0.1598 -0.4654
 4698W        W21546  13.142   0.214  13.406  0.0783  0.2518 -0.3538
 4699W        W21547  15.287  14.986  13.262 -0.0517 -0.1025  0.0170
 4700W        W21548  10.821  13.375   2.586 -0.0383  0.3750  0.1910
 4701W        W21549  13.825   6.643  12.050 -0.4743  0.1072 -0.1663
 4702W        W21550   4.321   9.967  15.943  0.0024  0.0854  0.0780
 4703W        W21551  16.500  10.541  11.570 -0.3690 -0.0134  0.0804
 4704W        W21552   9.226   7.250  11.702  0.0498 -0.0722 -0.0584
 4705W        W21553   8.416  15.768   1.444  0.2356 -0.2350  0.0104
 4706W        W21554  16.906   3.702  12.860 -0.0224 -0.2001  0.0491
 4707W        W21555  11.614   1.225   4.271 -0.0063  0.0158 -0.1685
 4708W        W21556   3.610  13.412  13.712 -0.1166 -0.1295  0.1278
 4709W        W21557  15.639   4.734   2.765 -0.1511 -0.4495 -0.2773
 4710W        W21558  11.996   0.731   2.281  0.1254  0.2287 -0.1722
 4711W        W21559  12.558  12.621   5.123  0.0702  0.1380 -0.1982
 4712W        W21560  11.222  15.613  12.171  0.1159 -0.0911  0.0897
 4713W        W21561  13.851  16.123   2.885 -0.2988 -0.1810  0.0448
 4714W        W21562  13.815   9.789   2.436  0.0015 -0.1202 -0.2665
 4715W        W21563   2.289   6.001  15.402 -0.0174 -0.1167 -0.1407
 4716W        W21564   0.414  11.359   3.757 -0.0118 -0.1900  0.4450
 4717W        W21565   9.707   9.863  14.710 -0.0127  0.0202  0.1361
 4718W        W21566   1.816   4.060   0.852 -0.0482  0.2596  0.0135
 4719W        W21567  11.546   7.384  16.506 -0.1614 -0.1433 -0.3725
 4720W        W21568   5.349  14.190  12.810 -0.1219 -0.2227  0.3624
 4721W        W21569  17.619  13.270   9.963 -0.0244  0.1810  0.2443
 4722W        W21570   5.574   4.517   0.296 -0.0920  0.0961  0.0954
 4723W        W21571   2.840   8.077   0.393  0.0709 -0.0864 -0.1977
 4724W        W21572   1.710  11.442  11.390  0.2315 -0.1690 -0.0780
 4725W        W21573  11.006  13.851   1.751  0.1109 -0.1886  0.0644
 4726W        W21574   1.441   5.893  14.977 -0.2069 -0.0058 -0.2917
 4727W        W21575  16.076   9.197   2.308 -0.0966 -0.2066 -0.0179
 4728W        W21576   7.676  16.433  14.613  0.0297 -0.2061  0.0499
 4729W        W21577   6.235  11.036   3.700  0.1516 -0.0957 -0.1701
 4730W        W21578   9.120  15.147  14.263 -0.1081 -0.0152  0.1566
 4731W        W21579   7.589   7.001  15.431  0.1359 -0.0689  0.0941
 4732W        W21580   3.143  11.327  14.434 -0.0887  0.3808 -0.0968
 4733W        W21581   4.002   6.452  12.965 -0.1999 -0.2387 -0.3614
 4734W        W21582  11.301   1.648  14.733 -0.0076 -0.1452 -0.0259
 4735W        W21583  16.142   0.668  13.755  0.2202  0.3126 -0.0043
 4736W        W21584   6.656   7.773   5.201 -0.0238  0.0050 -0.2598
 4737W        W21585   7.723  13.401  12.117 -0.4673 -0.3733 -0.3465
 4738W        W21586  12.772   9.870   4.164 -0.1888  0.0275 -0.1769
 4739W        W21587   9.882  17.021  12.787 -0.0249  0.0275  0.0073
 4740W        W21588   9.560   0.863  15.413 -0.0658  0.2062 -0.1046
 4741W        W21589  12.263  16.675   4.459 -0.0206 -0.1250  0.0285
 4742W        W21590   0.455  14.274  13.046  0.1819 -0.1771  0.1172
 4743W        W21591   1.974  16.031   2.584  0.0195  0.0229  0.0227
 4744W        W21592   5.574   1.678   4.177 -0.1424 -0.0428 -0.1697
 4745W        W21593   3.115   4.870  13.073  0.0672 -0.2611  0.1825
 4746W        W21594  13.107   6.751  11.328 -0.2299 -0.1354  0.1959
 4747W        W21595  16.293   5.277   2.717  0.0640  0.1486 -0.3968
 4748W        W21596  10.064   3.261  16.286 -0.0077  0.0903  0.0060
 4749W        W21597   4.146   9.418   4.708  0.1106 -0.0009  0.0145
 4750W        W21598  14.263  16.185  14.181 -0.2987 -0.1248  0.1472
 4751W        W21599   3.012  11.363  11.491  0.1516 -0.1390  0.3234
 4752W        W21600   0.823   7.218   0.080 -0.1384 -0.0416  0.1181
 4753W        W21601  13.173   4.796   1.002  0.0187  0.1824  0.3205
 4754W        W21602  12.040  13.486  15.650 -0.0732  0.2191  0.0651
 4755W        W21603   3.165   8.168   2.941  0.0900 -0.2807 -0.3204
 4756W        W21604  10.284  16.185  11.902  0.1746 -0.1326 -0.0254
 4757W        W21605  10.419   8.123  11.678  0.1486 -0.1784 -0.1086
 4758W        W21606   0.791   6.905   4.550 -0.0394 -0.1636 -0.0292
 4759W        W21607   9.589  14.579  12.702  0.1058 -0.2402  0.0023
 4760W        W21608   7.373   7.643  12.407 -0.1719 -0.3610 -0.2315
 4761W        W21609   4.526  14.748   0.536  0.6014 -0.0135  0.1291
 4762W        W21610   0.268  12.307   3.926  0.2171  0.1857  0.3322
 4763W        W21611   4.192   1.375  11.832 -0.3615 -0.0416  0.1232
 4764W        W21612  16.058   1.160   1.512 -0.1412 -0.0730  0.0323
 4765W        W21613  15.616  10.024  15.142  0.0344 -0.1651  0.0766
 4766W        W21614  13.523   5.415  12.645  0.0846  0.2160  0.1336
 4767W        W21615   4.467  10.903  16.100  0.1609 -0.1711  0.0197
 4768W        W21616   6.767   5.341  11.268  0.1215 -0.2402  0.0841
 4769W        W21617  17.168   0.315  12.652  0.1045  0.0646 -0.0682
 4770W        W21618  14.052   7.708  16.273 -0.1162  0.2091 -0.1566
 4771W        W21619  17.004  13.603  15.402  0.4111 -0.0995  0.0225
 4772W        W21620  10.572   5.344  15.876  0.0939 -0.1624  0.0376
 4773W        W21621   4.418  14.126   1.763 -0.0053 -0.0014  0.2017
 4774W        W21622   1.437   5.580   0.170  0.1964 -0.0222 -0.0687
 4775W        W21623   9.250   4.078  11.899 -0.2229  0.0020 -0.2528
 4776W        W21624  16.418   4.912   0.751 -0.0839 -0.0331  0.2129
 4777W        W21625  12.411  13.783  13.116  0.0809  0.2740  0.0113
 4778W        W21626   1.498   7.762   0.410  0.0290  0.0408  0.3378
 4779W        W21627  13.504   8.836   4.868  0.4182  0.0495 -0.0213
 4780W        W21628   8.787   3.659  16.354  0.0267  0.0131  0.2331
 4781W        W21629   8.465  12.812  13.101 -0.0063 -0.2563 -0.0055
 4782W        W21630   6.071  12.534   0.508 -0.1646  0.0255  0.2514
 4783W        W21631  13.767  15.822   4.146 -0.1549  0.0292  0.3086
 4784W        W21632   4.798   7.914  14.517 -0.3070  0.2685 -0.0020
 4785W        W21633   1.095  13.601  15.194 -0.1500 -0.2553 -0.2395
 4786W        W21634   3.825  10.834   5.740 -0.1167 -0.1921  0.0114
 4787W        W21635  10.417   9.848   2.649 -0.2192 -0.4111 -0.3523
 4788W        W21636   6.320  11.444   5.666  0.0163 -0.3363  0.1427
 4789W        W21637   5.793   1.381  13.039 -0.2038 -0.1850 -0.1770
 4790W        W21638  10.503  11.955  13.366  0.0750  0.2485  0.2194
 4791W        W21639   8.735   3.814  12.616  0.0296 -0.4405 -0.0399
 4792W        W21640   9.920   3.512  14.570  0.0996 -0.1571 -0.1921
 4793W        W21641   8.253  16.291   1.931 -0.0078  0.1387  0.1596
 4794W        W21642   8.412  16.170  13.610 -0.2308 -0.0501  0.3686
 4795W        W21643  15.404  14.307  14.121  0.2037  0.1181 -0.0148
 4796W        W21644   1.793   5.581   2.407 -0.0164 -0.1670  0.0210
 4797W        W21645  16.326  16.270   3.944  0.2414  0.1747  0.0073
 4798W        W21646   3.938   1.951  12.890  0.1301  0.1155  0.0325
 4799W        W21647  14.141   3.520  12.891 -0.2326 -0.3029 -0.1502
 4800W        W21648  17.173  12.004   2.445 -0.0836 -0.4674  0.2800
 4801W        W21649   7.882  11.376   4.514 -0.1487 -0.1827 -0.0567
 4802W        W21650   8.894   4.897  13.756 -0.2063  0.0284  0.2416
 4803W        W21651  16.600   5.598  15.432 -0.2885 -0.1336 -0.1380
 4804W        W21652  14.995   8.608   1.210  0.1815  0.0196  0.1843
 4805W        W21653  16.995  10.238   6.042  0.0581  0.0978  0.0969
 4806W        W21654   0.465   4.342   3.451 -0.1688 -0.0302  0.3411
 4807W        W21655   6.218  10.730  16.344 -0.1024 -0.3441 -0.3915
 4808W        W21656   2.136  17.322  13.397  0.1772  0.0548 -0.0508
 4809W        W21657   8.674  15.498   3.868  0.0208  0.0332 -0.0954
 4810W        W21658   5.380   6.450   3.672 -0.2909  0.1371 -0.0715
 4811W        W21659  12.919   4.406   2.369  0.0320  0.0754  0.1483
 4812W        W21660  14.726   1.094   4.188 -0.0599  0.0068  0.1633
 4813W        W21661   7.074  14.113  15.624 -0.0190  0.0006 -0.0330
 4814W        W21662  17.029   8.371   3.083  0.2996 -0.1676 -0.1870
 4815W        W21663  15.203   9.762   0.420 -0.0029  0.0505 -0.1132
 4816W        W21664  10.470   4.466   3.345  0.2423  0.1995 -0.0830
 4817W        W21665  16.796   3.971   4.220  0.0775  0.1678 -0.0958
 4818W        W21666   2.003  15.502  11.444  0.2087 -0.1311  0.1473
 4819W        W21667   2.710  12.966   1.271 -0.0423  0.3018 -0.0730
 4820W        W21668  11.201   5.820  10.832  0.0628  0.2250 -0.1642
 4821W        W21669   5.618   3.322  14.025 -0.2853  0.0271  0.2057
 4822W        W21670   2.023   1.876  15.807  0.1758 -0.0545  0.0226
 4823W        W21671   5.949  10.094  14.078  0.0527  0.1267 -0.0894
 4824W        W21672   3.942   3.473   2.334  0.0430 -0.1850 -0.0016
 4825W        W21673  17.117   5.311   1.184  0.0851 -0.1471  0.1083
 4826W        W21674   9.413  15.786   0.903  0.0506 -0.2145 -0.0569
 4827W        W21675  10.398  16.352  15.761  0.1400 -0.0969  0.1392
 4828W        W21676  12.529   7.246   2.099 -0.1472  0.1128  0.0653
 4829W        W21677  17.531   3.977   0.462 -0.2006 -0.1227 -0.1348
 4830W        W21678   2.356   5.641  16.151 -0.4892 -0.1022  0.2665
 4831W        W21679  11.487   0.285   2.040 -0.5576  0.0424 -0.1059
 4832W        W21680  13.399   4.774  14.900 -0.1274 -0.3109  0.3690
 4833W        W21681  14.202  12.578   2.064  0.1914 -0.0099  0.1237
 4834W        W21682   9.563   5.339  14.147  0.1190  0.1473 -0.0651
 4835W        W21683   1.931  14.025  11.988  0.1886 -0.1540 -0.0163
 4836W        W21684  12.365  16.456   1.641 -0.1159 -0.1835 -0.2530
 4837W        W21685   6.644  13.913  16.530 -0.5184 -0.1707  0.1038
 4838W        W21686   7.803   2.099   5.481 -0.2285 -0.1550  0.0654
 4839W        W21687  12.774   9.840   3.618  0.1796 -0.1073 -0.0893
 4840W        W21688   5.654  10.091  13.380 -0.1350 -0.0709 -0.1395
 4841W        W21689   9.152  16.270   3.557 -0.3243  0.4260 -0.3719
 4842W        W21690   3.576  13.449   1.408 -0.2189  0.0581  0.0785
 4843W        W21691  13.220  12.142   1.444 -0.0642  0.1562  0.3372
 4844W        W21692  14.188  16.816  13.589  0.2654 -0.1092  0.0388
 4845W        W21693  15.651  11.180   0.481 -0.1727  0.0403 -0.0507
 4846W        W21694  13.308   0.297  16.003  0.1475 -0.2051 -0.0217
 4847W        W21695  13.004   7.122   2.016  0.0487 -0.2287  0.2107
 4848W        W21696  14.577   8.856  13.509 -0.0504  0.0787 -0.3203
 4849W        W21697  13.322   8.388   0.436  0.2564  0.0728 -0.0423
 4850W        W21698  12.813  16.738  12.099  0.1645  0.4970  0.1440
 4851W        W21699  14.221   3.676   3.300  0.0125 -0.0538  0.0675
 4852W        W21700  12.266  17.297  15.819  0.0699 -0.0513 -0.2505
 4853W        W21701   9.256   1.009   2.834 -0.0080 -0.1992  0.3810
 4854W        W21702  16.163  11.702   1.137  0.1731  0.2528 -0.2330
 4855W        W21703   4.481   2.108   3.386  0.1902  0.0378 -0.1057
 4856W        W21704   4.430   3.541  15.937  0.1635  0.2586  0.1122
 4857W        W21705  17.088   8.045   0.948 -0.0610  0.1932 -0.3544
 4858W        W21706   4.645   0.319   3.597  0.2430 -0.3350  0.0153
 4859W        W21707  17.090  14.206  14.177 -0.0658 -0.1506  0.1924
 4860W        W21708  17.310  12.837  10.566 -0.1247 -0.3517 -0.0878
 4861W        W21709  15.159  14.280  11.345  0.2329 -0.0856 -0.2079
 4862W        W21710   6.842   0.109  15.546  0.1202 -0.0540 -0.0087
 4863W        W21711  15.867  12.194  13.053 -0.0251 -0.1052  0.3733
 4864W        W21712   7.902  15.408  13.650 -0.1278  0.0650 -0.0864
 4865W        W21713   6.058   5.278  16.343 -0.2806 -0.3311 -0.0517
 4866W        W21714  16.429   2.235  13.576  0.2697 -0.1127  0.1810
 4867W        W21715   1.957   7.972  11.180 -0.0524  0.0368 -0.2190
 4868W        W21716   4.277  16.892   4.641  0.0275  0.1000  0.1754
 4869W        W21717   5.362   4.542  15.513  0.1700 -0.1515  0.2201
 4870W        W21718   2.867  13.452   1.980  0.0420 -0.0027  0.1769
 4871W        W21719  10.376   9.824   0.694  0.1709  0.1961  0.3162
 4872W        W21720   5.825  14.846  14.060  0.0037 -0.1973 -0.0024
 4873W        W21721   0.464   8.524   3.585  0.1089 -0.1183  0.0970
 4874W        W21722  13.957   9.548   0.491  0.1216 -0.2245  0.4396
 4875W        W21723   5.687  11.278   3.748 -0.0210 -0.3080 -0.1137
 4876W        W21724  13.062   8.744   5.081 -0.0127  0.1021  0.1923
 4877W        W21725   4.793   1.837  13.662 -0.2913 -0.1729  0.1039
 4878W        W21726   0.239   3.247  13.974  0.0579  0.2245  0.0322
 4879W        W21727  15.942   8.807   1.235  0.2131 -0.0026 -0.2842
 4880W        W21728   6.089   4.951  14.097  0.0566 -0.0065  0.1693
 4881W        W21729   7.131   9.511   0.815 -0.0799  0.0786 -0.0905
 4882W        W21730   6.484  13.386  12.798 -0.0858  0.0551 -0.0344
 4883W        W21731  15.570  12.331   3.016 -0.1260  0.2161  0.1929
 4884W        W21732   1.511   3.275  15.407 -0.0222 -0.0006 -0.2762
 4885W        W21733  14.244  11.052  12.264  0.1228  0.1020  0.1474
 4886W        W21734   8.070  13.776   6.522  0.0758 -0.1948  0.0841
 4887W        W21735   7.880  10.854   5.812  0.0437 -0.1037 -0.2787
 4888W        W21736  15.313  13.015  14.755 -0.3613  0.0942 -0.1191
 4889W        W21737   4.588   6.580   2.373  0.2108  0.1193  0.2305
 4890W        W21738   9.980   9.288   3.792 -0.3803 -0.0953 -0.2399
 4891W        W21739   6.022  11.885  14.728 -0.2401  0.1663 -0.2423
 4892W        W21740  17.025  17.297  14.781 -0.0797  0.0627  0.0341
 4893W        W21741   6.672  15.822   3.617  0.0368  0.2447 -0.0545
 4894W        W21742  14.825  10.179  13.896 -0.2446 -0.0195 -0.1321
 4895W        W21743   8.565   1.316   1.427  0.0349  0.0965  0.3764
 4896W        W21744   4.875   9.260   3.500  0.1431  0.1948 -0.0277
 4897W        W21745  15.947   1.358  14.839 -0.1803 -0.2764  0.0551
 4898W        W21746   0.742  11.301   4.256  0.3092  0.3784  0.3632
 4899W        W21747   2.980  15.373   4.895 -0.0876  0.3448  0.0481
 4900W        W21748  10.752   6.037  10.657 -0.1361  0.0091 -0.0478
 4901W        W21749   9.478   9.512   2.818  0.2734 -0.1474  0.2238
 4902W        W21750  10.783   8.655   3.797  0.0411 -0.1800 -0.1702
 4903W        W21751  12.646   2.566  15.598  0.2799 -0.2642  0.0539
 4904W        W21752   4.270   2.800  15.413  0.1456  0.3252  0.0633
 4905W        W21753   4.686   0.482   0.436 -0.0175 -0.1638  0.0811
 4906W        W21754   7.586   2.946  12.140  0.0219  0.0134  0.0961
 4907W        W21755   3.115   6.500  12.563 -0.0284 -0.1606 -0.0247
 4908W        W21756   2.221   7.050  14.289 -0.0279  0.0147  0.0483
 4909W        W21757  14.543  15.969  16.136 -0.0431 -0.1732  0.0586
 4910W        W21758  11.889   1.585   0.382 -0.3903  0.0051 -0.0727
 4911W        W21759  17.132   8.640  11.811  0.2587  0.1990  0.1545
 4912W        W21760   6.958  13.518   3.221  0.0247 -0.1481 -0.1222
 4913W        W21761   8.735   1.104   2.905 -0.1890 -0.0483  0.1032
 4914W        W21762   2.073  10.723  11.766 -0.0732  0.0020  0.1011
 4915W        W21763   6.001  15.309  14.883  0.3255  0.0444 -0.1376
 4916W        W21764   6.406   2.989  13.678 -0.0012  0.0971 -0.0811
 4917W        W21765  13.125  11.117  13.890 -0.3296  0.0866 -0.1349
 4918W        W21766  13.382  11.431   3.586  0.0984  0.0588 -0.0568
 4919W        W21767  10.636   5.348  11.473 -0.3730 -0.1957 -0.2099
 4920W        W21768   1.968   0.662   2.731  0.0540  0.0925  0.0953
 4921W        W21769   2.066   2.694  14.146 -0.1379  0.4622 -0.3008
 4922W        W21770   8.571   8.319   2.552  0.0932 -0.0103 -0.0433
 4923W        W21771   0.663  11.068  13.761  0.1068 -0.2674  0.2961
 4924W        W21772  13.758  16.962   0.105 -0.1447 -0.2775  0.0494
 4925W        W21773  17.138   3.588   3.902  0.0324  0.2425 -0.0629
 4926W        W21774   5.730   9.608  14.254  0.1321  0.0152 -0.0609
 4927W        W21775   3.541   7.455   4.786 -0.2394  0.4275 -0.0651
 4928W        W21776   1.955   2.994   4.745  0.0331  0.2564 -0.0844
 4929W        W21777   7.604   0.433   0.914  0.3682  0.0586 -0.1877
 4930W        W21778  13.544  15.637   1.011 -0.0977  0.2007 -0.1685
 4931W        W21779   5.771   4.371   4.161  0.1902 -0.0063 -0.0044
 4932W        W21780   2.239   1.924  11.469  0.0924  0.0896 -0.0101
 4933W        W21781  14.967  15.604  16.208  0.2868  0.0404  0.3460
 4934W        W21782   7.250  11.099  14.980 -0.0665  0.0284 -0.1245
 4935W        W21783  17.289   9.227   3.974  0.0642 -0.1298 -0.3509
 4936W        W21784  11.150  14.042   3.676 -0.0159  0.4048  0.0204
 4937W        W21785   8.619   4.990   4.375 -0.0615 -0.1737  0.0128
 4938W        W21786  12.920  14.115  12.224 -0.1024 -0.1077 -0.2247
 4939W        W21787   7.373  11.151  15.912  0.3030  0.1187  0.0904
 4940W        W21788   9.867   8.885  15.212  0.2268  0.0480 -0.1268
 4941W        W21789   5.561   7.780   1.297 -0.1291  0.1169  0.0013
 4942W        W21790   5.143   5.943  13.264  0.1378 -0.0613 -0.2050
 4943W        W21791   7.830  17.052   0.936 -0.1079 -0.0333 -0.1453
 4944W        W21792   0.067  15.965   0.420 -0.1172  0.2469  0.1776
 4945W        W21793  15.064  10.612  10.814 -0.0679  0.2204  0.4258
 4946W        W21794  17.634   1.110  11.675  0.0268  0.1824 -0.2543
 4947W        W21795   4.138  17.380  13.875  0.0207  0.0204  0.0551
 4948W        W21796  15.350  16.529   0.977 -0.1848 -0.0146 -0.0667
 4949W        W21797  11.970   1.860   1.484 -0.0173  0.1828 -0.0665
 4950W        W21798   9.835   5.172   2.286 -0.0510 -0.2313  0.3219
 4951W        W21799   8.327   5.574   2.669 -0.0985  0.0206 -0.1209
 4952W        W21800   4.970   8.506   2.123 -0.2223  0.2835  0.4581
 4953W        W21801   8.219   8.197  12.445  0.0830 -0.0472  0.6190
 4954W        W21802   4.782  10.346   3.722  0.2126 -0.0686  0.0011
 4955W        W21803  15.978   4.452  12.659  0.2064 -0.1292 -0.0251
 4956W        W21804   4.903   6.794   2.687  0.2600  0.0324 -0.1137
 4957W        W21805   2.591  13.726  15.908 -0.0859  0.2338 -0.2861
 4958W        W21806   5.121  15.373  14.382  0.0878  0.0781 -0.1672
 4959W        W21807  17.321  17.415  13.356  0.1833  0.3473  0.2176
 4960W        W21808   7.625   8.226  14.558  0.2956  0.1991 -0.0371
 4961W        W21809  15.089   9.372  11.768 -0.0717 -0.1367  0.0822
 4962W        W21810   9.350   2.579   0.420 -0.0715 -0.2286 -0.0554
 4963W        W21811   6.359   6.500   4.172  0.0279  0.1406 -0.1831
 4964W        W21812   2.661   0.839   1.878  0.1992  0.3061 -0.2079
 4965W        W21813   5.175   0.703  14.907  0.1870  0.2983  0.3443
 4966W        W21814  10.617  12.755  14.838  0.1748 -0.1174  0.2660
 4967W        W21815  15.521  12.022   1.715 -0.1553 -0.2584  0.1912
 4968W        W21816  17.180  10.722  16.617  0.0214 -0.1602  0.1990
 4969W        W21817  17.476   8.496  12.151 -0.3058  0.1779  0.1165
 4970W        W21818   8.576  10.466   3.859 -0.0700 -0.0207  0.0770
 4971W        W21819  14.312   2.255  12.925 -0.1620 -0.0271  0.0786
 4972W        W21820  16.080  10.738   1.374 -0.1174 -0.3518  0.2865
 4973W        W21821  12.023   6.831   0.428  0.4452 -0.4394 -0.0492
 4974W        W21822  17.517   1.468  13.483 -0.5354 -0.1301 -0.0315
 4975W        W21823  14.674  11.158  12.028  0.0417 -0.1143  0.2149
 4976W        W21824   9.191   6.626   5.296 -0.0932 -0.0704 -0.1213
 4977W        W21825  17.488   9.897  15.737  0.1389  0.2268 -0.1423
 4978W        W21826  14.476  10.446  14.139 -0.1319 -0.1299  0.2135
 4979W        W21827   9.985  10.800  12.033  0.1664 -0.3083 -0.1103
 4980W        W21828   4.545  14.365   2.519  0.0945 -0.1838 -0.0186
 4981W        W21829   5.027  15.422  12.697  0.0261  0.0885 -0.0198
 4982W        W21830  13.695   7.587  12.732 -0.3473  0.1474  0.0154
 4983W        W21831   3.452   9.526  12.847  0.1419 -0.0542 -0.1510
 4984W        W21832   8.755   4.863  12.891  0.0997 -0.0905  0.2252
 4985W        W21833   9.654   5.315   1.841  0.2145  0.0975 -0.2613
 4986W        W21834   2.499   8.013   4.600  0.1032  0.0370 -0.2080
 4987W        W21835  11.839   1.328  15.086 -0.0267 -0.0877 -0.1143
 4988W        W21836   9.487   1.832   0.488 -0.4524 -0.2376 -0.0585
 4989W        W21837  10.587   5.112   0.348  0.0617 -0.2411 -0.0746
 4990W        W21838  15.936  10.852  12.690  0.3605  0.1368  0.0097
 4991W        W21839   7.705  15.880   4.006  0.2932 -0.1463 -0.0221
 4992W        W21840   6.432   9.213  12.059  0.3648  0.3446 -0.1200
 4993W        W21841   2.644  11.420   2.644  0.2193  0.0918  0.0292
 4994W        W21842  14.626  15.852  15.001  0.2787 -0.0318  0.2580
 4995W        W21843  16.114  16.828   4.828  0.1656 -0.0048 -0.2924
 4996W        W21844  14.556  12.329   4.535 -0.1215 -0.1557  0.0488
 4997W        W21845   6.879  13.344   5.552 -0.1311 -0.2180 -0.3105
 4998W        W21846  13.519   1.242   5.001  0.3226 -0.3035 -0.0166
 4999W        W21847  14.863   8.295   4.948  0.2096  0.1922  0.1178
 5000W        W21848   6.651  17.554   4.218 -0.1500 -0.0230  0.1157
 5001W        W21849   3.148  17.656  11.309 -0.0227  0.1227 -0.0044
 5002W        W21850   7.860   5.303  14.099  0.0126  0.1631  0.0819
 5003W        W21851  14.133  10.388  16.466 -0.3150 -0.1570  0.0183
 5004W        W21852   1.165  10.379   4.028 -0.3102 -0.0041  0.0283
 5005W        W21853  10.345   3.863  13.403  0.0861  0.0465 -0.0331
 5006W        W21854  15.773  10.745   3.056 -0.0477 -0.1062  0.0890
 5007W        W21855  10.878  12.082  12.908 -0.1047 -0.0166 -0.1207
 5008W        W21856   2.551   5.291  11.742  0.3802  0.2782  0.0204
 5009W        W21857   3.303   6.643   4.741  0.0204  0.0511 -0.3419
 5010W        W21858  15.441  16.360   6.204  0.0885  0.1646  0.2140
 5011W        W21859   9.699  13.687   1.743 -0.0778  0.3000  0.0370
 5012W        W21860  15.442  15.121   2.183 -0.1721 -0.3673  0.0392
 5013W        W21861   1.237  14.726   3.977  0.0073 -0.0192 -0.1522
 5014W        W21862  16.306  12.613   6.049  0.0061 -0.3260 -0.2823
 5015W        W21863   6.211  17.426  16.576  0.2098 -0.1421 -0.2568
 5016W        W21864  10.631  12.724   5.378  0.2608 -0.2306  0.0301
 5017W        W21865   4.212   5.263   1.975 -0.1737 -0.0989 -0.0458
 5018W        W21866   3.776   7.703  12.880 -0.0419  0.3181  0.1506
 5019W        W21867   5.203   3.571  15.181 -0.0352 -0.2881  0.1108
 5020W        W21868  13.025   3.603   1.052  0.1433 -0.0996  0.2396
 5021W        W21869  14.150  13.569  12.231  0.1044 -0.2347  0.2443
 5022W        W21870   0.113  11.650  14.048  0.1790  0.0758 -0.1998
 5023W        W21871  17.609   5.580   1.133 -0.0742 -0.4227 -0.2624
 5024W        W21872   3.530   9.249   1.045 -0.0653  0.1095 -0.2135
 5025W        W21873  15.774  17.178  16.184 -0.0541 -0.0636  0.1935
 5026W        W21874   2.743   6.367   6.478 -0.2287 -0.2511 -0.1265
 5027W        W21875   5.639   7.686  15.212  0.2598  0.0584 -0.0537
 5028W        W21876   7.605  16.246   5.122 -0.1146  0.1115 -0.2251
 5029W        W21877   6.794  11.044  15.204 -0.0427  0.0549 -0.1480
 5030W        W21878   1.818   4.932   0.546 -0.1980 -0.0858 -0.2780
 5031W        W21879  11.192  13.332  12.175  0.3700  0.3098  0.1340
 5032W        W21880   6.146   9.130   5.216 -0.1120 -0.1358 -0.3774
 5033W        W21881   3.828  11.112  13.154 -0.0672 -0.0615  0.1087
 5034W        W21882   8.307   3.106  11.881  0.4423  0.0608  0.1231
 5035W        W21883   3.261   2.537  12.873 -0.1138  0.0005  0.0401
 5036W        W21884   8.738  11.951   4.404  0.3115  0.2361  0.0562
 5037W        W21885   0.575   3.597  14.289  0.0115 -0.0625 -0.1653
 5038W        W21886   4.287   8.197  14.461  0.0314  0.0848  0.1674
 5039W        W21887  16.063   2.764  12.514 -0.1609 -0.0445 -0.2535
 5040W        W21888   4.062  15.112  13.606 -0.0515  0.0454 -0.1358
 5041W        W21889   5.421  12.426   0.238  0.0325  0.2111  0.1076
 5042W        W21890  11.679   5.556   2.445 -0.1433 -0.0736 -0.1789
 5043W        W21891   1.609  17.187  15.220  0.0636 -0.2851 -0.2577
 5044W        W21892  10.088   6.024  13.543  0.0623 -0.0951 -0.3937
 5045W        W21893   3.049   2.994   0.771 -0.0403  0.0697 -0.0533
 5046W        W21894   6.126   4.689  13.674  0.1234  0.1680 -0.1731
 5047W        W21895   1.623   0.922  15.941  0.1744 -0.4636 -0.0942
 5048W        W21896   6.728  14.900   5.268  0.1763 -0.1649 -0.0370
 5049W        W21897   8.762  11.681  11.794 -0.0354  0.1414 -0.2199
 5050W        W21898  15.606  11.012  15.919 -0.3553  0.2005 -0.1858
 5051W        W21899   9.449   1.350   0.326  0.0055 -0.0390 -0.3025
 5052W        W21900  17.014  10.864  13.490  0.0606  0.2142  0.1546
 5053W        W21901  11.206  15.452   3.275 -0.0538  0.1136  0.1816
 5054W        W21902  13.878  17.456  14.449  0.0963 -0.0581  0.1042
 5055W        W21903  12.129   1.349   1.510 -0.0036 -0.0531  0.1179
 5056W        W21904   9.740  14.505   0.960 -0.0208  0.0381  0.0045
 5057W        W21905   7.903  12.259   1.841  0.1254 -0.0097  0.0076
 5058W        W21906   1.380  15.042   4.340 -0.2092 -0.3110 -0.1154
 5059W        W21907  10.210  13.283  16.238 -0.0942  0.1358  0.1073
 5060W        W21908  10.069   0.606   2.261  0.2098  0.1131 -0.2102
 5061W        W21909   7.782   9.890  11.888 -0.0248 -0.1167  0.0297
 5062W        W21910   0.018   9.860  13.893 -0.0072  0.1895 -0.0475
 5063W        W21911   8.307   7.445  11.664  0.0276  0.1108  0.0907
 5064W        W21912   4.255   2.915  12.069  0.0925 -0.0002  0.1012
 5065W        W21913  13.422   3.012   3.569  0.0383 -0.1554  0.0780
 5066W        W21914   6.560  10.535  15.951 -0.1998  0.0871 -0.0122
 5067W        W21915  15.565   7.842   3.239  0.0017  0.2246  0.1780
 5068W        W21916  16.970  17.287   0.684  0.0913 -0.0338 -0.2594
 5069W        W21917   7.118  17.133   0.495 -0.0831 -0.2001 -0.2074
 5070W        W21918  10.075   1.110   4.897 -0.1200 -0.4670 -0.2694
 5071W        W21919   3.800  13.343   5.141  0.1244  0.1669  0.1745
 5072W        W21920   4.050   2.916  14.378 -0.0650 -0.1290 -0.2627
 5073W        W21921   1.410   8.560   5.545  0.0594  0.1924 -0.1115
 5074W        W21922   5.824  13.780  15.315  0.1795  0.2722 -0.1074
 5075W        W21923   2.204  11.131   4.964 -0.0671  0.0465  0.1633
 5076W        W21924   7.820   3.355   1.134  0.0211  0.0094  0.0825
 5077W        W21925   9.618   8.350   4.559  0.0466 -0.1464 -0.2377
 5078W        W21926   6.796   2.707   5.015 -0.2004 -0.2585 -0.4040
 5079W        W21927  13.173  12.898   0.771  0.0192  0.1409  0.0577
 5080W        W21928   9.374  11.487  15.957 -0.0342  0.0687 -0.1146
 5081W        W21929  10.302  12.280  11.462 -0.3703 -0.4071  0.1191
 5082W        W21930   5.500   2.494   5.366 -0.0813  0.0913 -0.0200
 5083W        W21931  16.067  15.455  11.374 -0.1835  0.1955 -0.4198
 5084W        W21932   6.895  13.625  11.883  0.2925  0.0417  0.1678
 5085W        W21933   3.631   3.881   3.851  0.0058  0.0972 -0.0403
 5086W        W21934   6.080  14.008  13.121  0.4212 -0.0706 -0.0683
 5087W        W21935   5.760  10.219   4.547 -0.1053  0.1728  0.0518
 5088W        W21936   2.163   9.483  15.358 -0.0781 -0.0057  0.0598
 5089W        W21937   5.320   6.172   4.118 -0.0179  0.3719 -0.1436
 5090W        W21938  15.107  16.403  13.671  0.5301  0.2530  0.0810
 5091W        W21939   4.102  12.442   5.032  0.1601 -0.3355  0.0500
 5092W        W21940  13.981   5.852   1.857 -0.1064 -0.0763 -0.1446
 5093W        W21941   2.697  12.784  15.277  0.1963  0.3943 -0.0375
 5094W        W21942   9.616  10.937  16.065  0.1170  0.1306  0.0155
 5095W        W21943  13.637   0.946  12.116 -0.1206  0.0140  0.2517
 5096W        W21944   9.837  16.140   0.793 -0.1201 -0.0082  0.3813
 5097W        W21945   0.353   6.460   0.557  0.0308  0.1349  0.0908
 5098W        W21946   9.671   2.908  14.357 -0.2080  0.3667  0.2332
 5099W        W21947  16.575  10.789   1.123  0.0228 -0.0241  0.1034
 5100W        W21948   2.499  16.514   2.576 -0.2268  0.0183 -0.0378
 5101W        W21949  16.813   4.046  12.521 -0.3815  0.2182 -0.1465
 5102W        W21950   9.351   3.134   3.030 -0.0848  0.1863 -0.1684
 5103W        W21951  10.187  12.513   3.729  0.0197  0.1738  0.2969
 5104W        W21952  11.636  14.862  14.921  0.1023  0.1821 -0.0490
 5105W        W21953  13.265  11.583  13.251 -0.1682  0.1488  0.2064
 5106W        W21954  15.774   3.106   3.378  0.0625  0.2364 -0.2511
 5107W        W21955   7.233  11.945   4.366 -0.1441  0.1733  0.1501
 5108W        W21956   4.531   9.990   1.470  0.0795 -0.0445  0.1265
 5109W        W21957   4.099   4.612  13.380  0.0822  0.3142  0.0877
 5110W        W21958  14.166   9.340   2.374 -0.1379 -0.2222 -0.0239
 5111W        W21959  16.956   5.452  16.583 -0.1021 -0.1434  0.4053
 5112W        W21960   8.892   1.790  15.729 -0.1320 -0.1188 -0.2207
 5113W        W21961   4.108  17.383  12.380 -0.0008  0.1724 -0.0894
 5114W        W21962  13.538   4.385   3.468 -0.0273 -0.0371 -0.3233
 5115W        W21963  15.392  10.462  14.837 -0.1764  0.1324 -0.0957
 5116W        W21964   6.949  12.340  13.682  0.1242 -0.0045  0.3397
 5117W        W21965  16.687  14.222  14.681 -0.0788 -0.1337  0.0234
 5118W        W21966   1.544  17.580  15.551 -0.2316  0.0267  0.2373
 5119W        W21967  11.185  13.449  15.921  0.1398  0.1517  0.0683
 5120W        W21968  12.545  17.538   2.142  0.2052  0.0713  0.1425
 5121W        W21969   7.450   3.791   3.563 -0.0268  0.1818 -0.3300
 5122W        W21970  15.993  14.148   3.431  0.2479  0.4532  0.0440
 5123W        W21971  12.812   0.316  13.840  0.0360  0.0587 -0.3270
 5124W        W21972   5.353   2.554   2.064  0.1043 -0.0548  0.1393
 5125W        W21973   5.974  15.064   2.247  0.0784 -0.3109 -0.0574
 5126W        W21974  11.514  15.527   0.101  0.2598  0.0123  0.1837
 5127W        W21975   3.593   2.195  15.170  0.0632 -0.0228 -0.1613
 5128W        W21976  11.186   9.085   1.110  0.0394  0.1643 -0.0802
 5129W        W21977   2.376  16.924   5.834  0.0813 -0.1348 -0.1236
 5130W        W21978   7.668   1.641   1.644 -0.2121 -0.0978  0.1159
 5131W        W21979  11.476   0.311   4.285  0.1798  0.0884  0.1011
 5132W        W21980  15.623   3.479   2.269  0.0663  0.0185  0.3297
 5133W        W21981   3.115  11.830  14.805  0.0455  0.0531 -0.2270
 5134W        W21982   5.826  17.520  15.535  0.4234  0.1191 -0.2198
 5135W        W21983  12.324   6.508   0.197  0.1171 -0.2930  0.0498
 5136W        W21984   1.759  13.915  13.639  0.0213 -0.2126  0.0128
 5137W        W21985   1.742  11.892   3.249 -0.1784 -0.0344  0.0969
 5138W        W21986   5.730   4.135  15.633 -0.0598  0.0669  0.2716
 5139W        W21987   9.655  11.911  14.732  0.1303  0.0763 -0.4092
 5140W        W21988   4.220   7.839  15.427  0.0132  0.0267  0.1409
 5141W        W21989   5.916  16.464   0.794 -0.1126 -0.0219  0.3218
 5142W        W21990   3.789  17.599   2.497  0.0382 -0.2760 -0.0197
 5143W        W21991   1.895  16.952  12.844 -0.1173  0.0954 -0.1595
 5144W        W21992  16.011   9.287  13.544 -0.0332  0.1463  0.2065
 5145W        W21993  13.416  15.258  14.378  0.0971 -0.3868 -0.2833
 5146W        W21994   3.871   0.692  16.489  0.1980 -0.2307  0.4561
 5147W        W21995   5.598  16.666   1.069  0.2642  0.0088  0.0136
 5148W        W21996   9.095  10.286   3.816 -0.0917  0.0019 -0.2376
 5149W        W21997   2.989  12.375  12.473 -0.2338 -0.0908 -0.1309
 5150W        W21998   0.763   9.853  16.509  0.3360  0.2886  0.0303
 5151W        W21999  12.238   2.177   1.061 -0.0255  0.0501  0.1837
 5152W        W22000   0.100   2.662  14.496  0.2299 -0.1582  0.2975
 5153W        W22001   3.105  12.797   2.234 -0.2916 -0.1908 -0.1709
 5154W        W22002   7.836  10.665  16.314 -0.0083  0.0624  0.0237
 5155W        W22003   6.137   7.282  11.514 -0.2014 -0.2974 -0.2607
 5156W        W22004   2.728  10.768  14.613 -0.2137 -0.1648  0.0204
 5157W        W22005   7.517  12.969  14.641 -0.0064 -0.0768 -0.0388
 5158W        W22006   7.116  11.671   5.270 -0.3465 -0.0377  0.0453
 5159W        W22007  14.235   7.250  13.666 -0.0371  0.2008 -0.0311
 5160W        W22008   0.794   9.005   0.868 -0.0713 -0.0058 -0.1122
 5161W        W22009   5.611   0.575  15.189 -0.0252 -0.1375  0.0326
 5162W        W22010  16.521   1.101   1.728 -0.1741 -0.3789  0.0393
 5163W        W22011   6.972   7.542   1.872 -0.3744  0.1648 -0.2185
 5164W        W22012  16.547  13.816  10.414  0.0387 -0.2378 -0.0056
 5165W        W22013  13.736   3.634   4.157 -0.0130  0.1700  0.1864
 5166W        W22014   3.922   3.152   1.358  0.1097 -0.1878 -0.3870
 5167W        W22015  15.967   5.864   3.563  0.3360 -0.3172  0.0044
 5168W        W22016  17.398   8.040  14.734 -0.0850 -0.2218 -0.0572
 5169W        W22017   6.316   9.805   1.520  0.2293 -0.1906 -0.0010
 5170W        W22018   7.494   0.032   3.117  0.3866 -0.2091 -0.1410
 5171W        W22019  16.525   3.485   5.133  0.1785  0.3724 -0.3768
 5172W        W22020  17.128  15.275  12.649 -0.0343  0.2638  0.0342
 5173W        W22021  11.277   4.984  11.937 -0.1937 -0.0377 -0.1459
 5174W        W22022  10.908   0.079   2.846  0.1067  0.1923 -0.2871
 5175W        W22023  16.077   8.957  16.494 -0.0137 -0.2202  0.2495
 5176W        W22024  15.702   6.859  11.286 -0.1205  0.0847  0.1425
 5177W        W22025   9.683   7.820  12.266  0.1163 -0.1138 -0.1889
 5178W        W22026  15.985  17.501  12.078  0.2533 -0.1211 -0.3524
 5179W        W22027   0.046   2.537   2.701  0.1778 -0.0636  0.0520
 5180W        W22028   3.108   3.837   1.339 -0.0379 -0.0916  0.0023
 5181W        W22029  11.924   4.650  12.351 -0.0540 -0.0685  0.1296
 5182W        W22030   9.124   1.519  16.098  0.1161  0.0900 -0.0801
 5183W        W22031   4.204  14.332  14.784 -0.0641  0.0549 -0.1746
 5184W        W22032   8.479   6.195  15.322  0.0480  0.0143 -0.3874
 5185W        W22033   3.850   1.235   1.169 -0.1202  0.0855  0.2381
 5186W        W22034  13.830   2.288  13.608 -0.0432 -0.0091  0.0448
 5187W        W22035  14.992   4.516   4.837  0.3937  0.1083 -0.0898
 5188W        W22036   0.129   6.540   3.104  0.2313 -0.2724  0.0768
 5189W        W22037  17.238  12.531   1.611  0.2176  0.1723 -0.0638
 5190W        W22038   7.252   2.738  13.653 -0.0635  0.1626 -0.0091
 5191W        W22039  13.632   2.504   1.954 -0.0016 -0.1311 -0.0123
 5192W        W22040   0.248   2.390  14.922 -0.0908 -0.2226  0.1348
 5193W        W22041   0.300   7.616  12.362  0.1787 -0.0602 -0.3495
 5194W        W22042  16.187   2.993   2.675  0.0206  0.0640 -0.0084
 5195W        W22043   8.092  11.112   0.464 -0.1584 -0.0105 -0.1545
 5196W        W22044  10.522  13.170  11.404  0.0768 -0.2269 -0.0507
 5197W        W22045  14.975   2.580  16.545  0.0970 -0.2953  0.0644
 5198W        W22046  13.418  11.571  11.968  0.2471 -0.0276  0.1823
 5199W        W22047  14.493  14.008   0.456 -0.2172  0.0247 -0.0205
 5200W        W22048   4.013  13.797   3.843 -0.5729 -0.1973  0.1837
 5201W        W22049  10.260   3.143  12.311 -0.0843  0.0194 -0.1630
 5202W        W22050   8.215   5.218   0.230  0.2200  0.1445  0.1732
 5203W        W22051   3.187   0.587  11.939 -0.1048 -0.4566  0.0070
 5204W        W22052   2.651  13.035   4.665  0.2319  0.2820 -0.1875
 5205W        W22053   8.037  12.000   0.960 -0.0958  0.1449 -0.3138
 5206W        W22054   9.595   6.684   1.776 -0.0791  0.5199  0.2150
 5207W        W22055   0.825   1.628   1.931  0.0304 -0.1093 -0.1222
 5208W        W22056   1.614   2.760  12.588 -0.3895 -0.0195  0.1019
 5209W        W22057  15.243   7.303  15.772 -0.2234  0.0544 -0.1010
 5210W        W22058  14.615   2.998   4.290 -0.2101 -0.3250 -0.0036
 5211W        W22059   5.604  13.222  13.662 -0.1948  0.0761  0.0135
 5212W        W22060   4.679   8.885   2.072  0.3921 -0.0926  0.0640
 5213W        W22061  13.982   7.741  12.292  0.0276  0.0187  0.1249
 5214W        W22062   8.905   4.595  13.275  0.2053 -0.0617 -0.0215
 5215W        W22063   6.821   8.358  12.601 -0.1285  0.1199  0.0402
 5216W        W22064  13.932  13.052  15.992  0.2288  0.3661  0.0427
 5217W        W22065   4.371   2.345   4.786  0.2157  0.0799  0.1855
 5218W        W22066   7.430  12.109   3.947  0.0292  0.0117  0.2574
 5219W        W22067  17.086  11.594   0.038 -0.2315 -0.1895 -0.2875
 5220W        W22068   3.649  13.004   0.940  0.3246  0.0030  0.1700
 5221W        W22069  15.575  17.702  14.816 -0.0196 -0.2922  0.2604
 5222W        W22070  13.571  10.983   3.363  0.1448  0.0459 -0.0899
 5223W        W22071   2.101   5.866   2.695  0.1727  0.2295  0.0923
 5224W        W22072  13.487   4.884  12.817 -0.0644 -0.1092  0.0534
 5225W        W22073   1.982   4.274  14.421 -0.3907 -0.4314 -0.1383
 5226W        W22074  17.603   1.799  15.260  0.0027 -0.0680  0.0489
 5227W        W22075  12.242   1.377   0.703 -0.0062  0.2354  0.0785
 5228W        W22076  14.080  16.032  16.433  0.0605  0.1014 -0.1019
 5229W        W22077  11.244  16.088   0.860  0.0469  0.1994  0.0136
 5230W        W22078   6.341   0.507   5.295  0.0890 -0.1985 -0.1732
 5231W        W22079   8.466   4.898   5.259 -0.1180  0.1043  0.2356
 5232W        W22080   6.072  11.501  13.374 -0.2675 -0.0233  0.1322
 5233W        W22081   1.288   6.629  14.027  0.1133 -0.2941 -0.0405
 5234W        W22082  11.394   6.670   5.597  0.0071 -0.2499 -0.2038
 5235W        W22083  13.977   4.833   5.255 -0.1975 -0.1827  0.0342
 5236W        W22084  11.242  17.401   3.667 -0.0629  0.1006 -0.0562
 5237W        W22085   0.823   1.016   1.986  0.0459  0.0532  0.2257
 5238W        W22086   5.102   8.172   6.166  0.0287 -0.0655  0.1411
 5239W        W22087  11.299   1.223   1.054  0.0832  0.1155  0.1881
 5240W        W22088   3.832  10.135  13.204  0.1502  0.0203  0.0800
 5241W        W22089  16.549   9.853   1.665  0.0212 -0.1211  0.0256
 5242W        W22090   7.995  17.509  15.756 -0.2535 -0.0630 -0.2179
 5243W        W22091  10.268   7.200  13.226 -0.0572  0.0088 -0.2539
 5244W        W22092   8.687   9.613   3.391  0.0898  0.2951  0.5315
 5245W        W22093   2.195  16.493   0.606 -0.3393 -0.2934 -0.2212
 5246W        W22094  10.066   4.983   1.599  0.2198  0.0596 -0.1514
 5247W        W22095   1.959  17.607  16.495 -0.3188  0.1389 -0.2757
 5248W        W22096   5.734   5.846  14.862  0.1466 -0.1975 -0.4019
 5249W        W22097   9.367   4.916  11.384 -0.0552  0.1462 -0.0281
 5250W        W22098   1.423  12.272   5.030  0.0222 -0.0139  0.0199
 5251W        W22099   0.343  16.149   1.476 -0.0652  0.2582  0.0945
 5252W        W22100  16.785   2.725   4.994 -0.0831 -0.4307  0.1777
 5253W        W22101   9.671   3.391   4.020  0.1110 -0.0825  0.3888
 5254W        W22102   1.127   6.105  11.627 -0.0095 -0.0215 -0.3063
 5255W        W22103   8.557  13.484  13.245  0.1012  0.0924  0.0249
 5256W        W22104  10.352   7.459  10.512 -0.0720 -0.2153  0.0259
 5257W        W22105  11.758   7.430   0.274  0.3052 -0.1645  0.1879
 5258W        W22106   4.369  15.082   1.746 -0.1314  0.0989  0.1190
 5259W        W22107  16.969   0.467  11.674 -0.1196  0.0726  0.1267
 5260W        W22108   2.437  16.967  13.575  0.1695 -0.3681  0.0234
 5261W        W22109   8.332  17.509   4.930 -0.1058  0.3127 -0.1648
 5262W        W22110   2.809  10.120   2.903 -0.3734 -0.1367  0.0410
 5263W        W22111   9.497   5.798   0.310 -0.2183 -0.1173 -0.1324
 5264W        W22112  10.556  13.787  14.213 -0.0053  0.0432  0.2618
 5265W        W22113  17.340   5.442  12.313  0.1192  0.0572 -0.4603
 5266W        W22114  13.766   0.432   4.087 -0.0061  0.2902 -0.0277
 5267W        W22115   1.231  12.523   4.632 -0.2297  0.2640  0.1448
 5268W        W22116   0.412   4.240   5.272 -0.0987 -0.0938  0.2088
 5269W        W22117  10.502   3.784  15.659  0.1448  0.2429 -0.1540
 5270W        W22118   0.192  12.921  16.352 -0.0050  0.1956  0.1317
 5271W        W22119   3.522   0.195  13.354  0.0776  0.1320  0.0452
 5272W        W22120  15.105   9.767   0.928 -0.1361 -0.0628 -0.4522
 5273W        W22121   7.305   3.943   4.748  0.0672  0.0405  0.2148
 5274W        W22122   3.536   1.857   1.742 -0.0435  0.0617  0.0734
 5275W        W22123  17.480   3.097   0.475 -0.0318  0.0736 -0.1791
 5276W        W22124  10.830   6.920  16.082  0.0881 -0.2300  0.3007
 5277W        W22125   5.494   2.067  14.722  0.0508  0.0644  0.0569
 5278W        W22126   6.182   9.095   3.307  0.0426 -0.1725  0.0185
 5279W        W22127  11.637  10.528  15.379  0.0454  0.0387 -0.1318
 5280W        W22128   9.781  11.806  12.009 -0.1246  0.0972 -0.3621
 5281W        W22129   8.251   6.521  16.375  0.1810 -0.0736 -0.0108
 5282W        W22130   6.025  17.471  13.085 -0.0973  0.1587 -0.0298
 5283W        W22131   2.476  16.508   3.092 -0.0482  0.0906 -0.2520
 5284W        W22132   0.253   9.535   4.426  0.2421 -0.0201 -0.2253
 5285W        W22133   9.777   6.478  16.272 -0.1219  0.0485 -0.2777
 5286W        W22134  10.984   2.134   1.362 -0.3021  0.1883  0.1320
 5287W        W22135  11.396   7.514   0.974  0.0389 -0.0097 -0.0750
 5288W        W22136   9.170  15.647  14.426 -0.1692 -0.0427 -0.3958
 5289W        W22137   8.415   9.404  15.048  0.0875  0.1669 -0.2347
 5290W        W22138   7.203  16.833   3.101 -0.0867 -0.1796 -0.1752
 5291W        W22139  10.253  17.340  12.516  0.0120 -0.0491 -0.1387
 5292W        W22140   0.369   1.895  15.151 -0.1883 -0.0195  0.1589
 5293W        W22141  17.092  16.033   2.808 -0.0432  0.1777  0.4124
 5294W        W22142   1.797   1.261  11.876 -0.0571 -0.2565  0.2682
 5295W        W22143   3.996   9.278  13.707 -0.1317  0.0062  0.0029
 5296W        W22144   7.896   3.112  15.459  0.1948  0.0902  0.2223
 5297W        W22145   8.264  14.280  14.101 -0.0073 -0.2522  0.1208
 5298W        W22146  17.676   4.865   4.576  0.0952 -0.0810 -0.0634
 5299W        W22147   5.644   6.737  16.436  0.3539 -0.0114  0.0558
 5300W        W22148   4.496   6.950   0.550 -0.2492  0.3857  0.3459
 5301W        W22149   7.696  11.053  14.170 -0.0588  0.2559  0.0376
 5302W        W22150   8.343   1.949  14.938 -0.1005 -0.0916 -0.0810
 5303W        W22151  14.319   6.201  12.966  0.1402  0.0958  0.1310
 5304W        W22152   6.894   5.894  10.684  0.0516 -0.0157 -0.3247
 5305W        W22153   1.100   6.755   2.410 -0.0287  0.2135  0.1172
 5306W        W22154   6.929   0.999  13.860 -0.2157 -0.0465  0.0606
 5307W        W22155   6.840   1.228  13.322 -0.0936 -0.2071 -0.0952
 5308W        W22156  15.846   6.645   3.272 -0.1142  0.0240  0.2424
 5309W        W22157   5.214  17.542   2.316  0.3097 -0.0102 -0.1061
 5310W        W22158   5.018  11.122   4.817 -0.1439  0.1382  0.0355
 5311W        W22159   5.842   9.506   4.346 -0.1014  0.0062  0.1335
 5312W        W22160   9.810   4.347   2.199  0.1653 -0.1502 -0.1291
 5313W        W22161   1.142   3.181   0.779  0.0301 -0.0397  0.1285
 5314W        W22162   4.032   0.887   4.087 -0.0988 -0.0409  0.0196
 5315W        W22163   3.051  10.660   1.753 -0.0001  0.0286 -0.0563
 5316W        W22164   9.627  15.644   4.053  0.0250 -0.0787  0.0968
 5317W        W22165   4.929   9.982  15.447  0.0299 -0.0713 -0.0652
 5318W        W22166   8.157  11.470  13.850 -0.1009  0.2215  0.1667
 5319W        W22167   2.298  16.577  16.226  0.0539  0.2067 -0.2552
 5320W        W22168  16.981   9.673  14.234  0.0847 -0.2362 -0.0048
 5321W        W22169   7.311  12.935   1.449  0.1212  0.0105  0.0026
 5322W        W22170   8.196   2.859   4.765  0.4465  0.0735  0.2171
 5323W        W22171  15.163   2.187  14.906  0.2441 -0.2396  0.2019
 5324W        W22172   2.296   4.173   0.823  0.2791 -0.3206  0.4361
 5325W        W22173  17.354   2.468  14.581 -0.0103  0.1134 -0.3929
 5326W        W22174   4.829  14.134  16.428  0.0466  0.0340  0.2094
 5327W        W22175   1.379  17.657  13.298 -0.0495  0.3061  0.1439
 5328W        W22176   7.385   5.753   2.785 -0.0446  0.0054  0.1122
 5329W        W22177   4.738  13.030  11.538 -0.0518 -0.1096 -0.1499
 5330W        W22178   1.343   8.398  15.135  0.1919  0.0245 -0.0378
 5331W        W22179  11.028  15.930  11.386 -0.1954  0.0623  0.6173
 5332W        W22180  12.090   2.247  16.411 -0.2268 -0.1014 -0.0754
 5333W        W22181   3.925   8.634  16.044 -0.0057  0.0228  0.1327
 5334W        W22182  14.884   7.115  16.168  0.1181 -0.0985 -0.0222
 5335W        W22183  15.910  14.607   3.969  0.0286 -0.0766  0.0226
 5336W        W22184   1.863   4.997  15.604  0.1310  0.0775  0.1968
 5337W        W22185  16.954   3.218   0.498 -0.1222 -0.1672 -0.1989
 5338W        W22186   5.575  16.255  13.150 -0.1976  0.0533 -0.0269
 5339W        W22187  15.937  16.668  15.197  0.1922  0.1639 -0.0178
 5340W        W22188   6.160   5.594  14.880  0.2417 -0.1598 -0.3616
 5341W        W22189  17.624  12.235  11.556  0.1824  0.0314 -0.3040
 5342W        W22190   9.839  15.669   0.663  0.2352  0.0593 -0.0394
 5343W        W22191   0.080  15.031  16.414  0.0499  0.0895 -0.4660
 5344W        W22192  14.685   0.954  10.978  0.3131 -0.0233 -0.1118
 5345W        W22193   3.889  12.229   4.592  0.4442 -0.2282 -0.2678
 5346W        W22194  15.265   9.886   5.878  0.1275  0.2100  0.0448
 5347W        W22195  12.102   7.264   2.332  0.2712 -0.3096  0.0240
 5348W        W22196   3.553   1.171   4.091  0.0337 -0.0139 -0.1094
 5349W        W22197   6.592   5.822  15.195  0.2954 -0.0683 -0.2263
 5350W        W22198   0.709   0.280   2.780 -0.0931 -0.0477 -0.0315
 5351W        W22199  17.264   8.686   2.019 -0.0079 -0.2744 -0.1216
 5352W        W22200  13.303  12.620   1.764  0.5675 -0.0332  0.0158
 5353W        W22201  13.372   7.194  12.951 -0.4895 -0.1472  0.1807
 5354W        W22202  10.289   7.821   2.934  0.0801  0.1747 -0.0690
 5355W        W22203   2.858   3.359  14.817 -0.2469  0.3556  0.3584
 5356W        W22204   6.713   9.740   0.903  0.2481 -0.1195  0.2350
 5357W        W22205   0.717  17.256   5.311 -0.3565 -0.2663 -0.5079
 5358W        W22206   1.819  10.611  13.511 -0.2644  0.0794 -0.3374
 5359W        W22207  12.682  12.938  16.178  0.0947 -0.1903 -0.0845
 5360W        W22208   0.449   1.958   3.790 -0.2288 -0.1864  0.0755
 5361W        W22209   1.088   9.962  15.345 -0.0703  0.1886  0.1393
 5362W        W22210  14.482   0.136   1.858 -0.0222  0.0234 -0.0596
 5363W        W22211  11.119   5.835  10.321 -0.4147 -0.2494  0.0088
 5364W        W22212   2.329   8.884  14.649  0.2039 -0.0110  0.0079
 5365W        W22213  14.730  13.099   3.545 -0.1233 -0.1216 -0.0364
 5366W        W22214  10.333  13.578   2.860 -0.0842  0.2203 -0.0620
 5367W        W22215  17.396  12.131  13.806 -0.1558  0.0826  0.5026
 5368W        W22216   5.621  16.427  12.665  0.0505  0.2201 -0.0138
 5369W        W22217  16.683   7.579   2.145  0.4767 -0.1925 -0.2669
 5370W        W22218   4.955   5.396   2.727 -0.1437  0.1961  0.1525
 5371W        W22219   6.741  12.920  15.145 -0.2687 -0.1183 -0.1643
 5372W        W22220  13.983  16.760   1.345 -0.0777  0.3643 -0.4163
 5373W        W22221   7.648   8.004   2.732 -0.1472  0.0282 -0.0354
 5374W        W22222   8.076   1.292   0.182 -0.3932  0.1282  0.2382
 5375W        W22223   7.683   3.047   1.619  0.0756 -0.1446  0.1697
 5376W        W22224   2.611  16.793   0.852 -0.1438  0.1118 -0.1281
 5377W        W22225  14.376  11.535   3.471 -0.0704  0.1965 -0.3162
 5378W        W22226   9.366  15.646  14.877 -0.1101 -0.2135  0.1461
 5379W        W22227   1.622   9.147   1.966 -0.2462  0.2237 -0.0871
 5380W        W22228  10.829   9.610   0.771  0.0318  0.0488 -0.1522
 5381W        W22229   6.617   0.717   3.309 -0.2127  0.1635  0.1439
 5382W        W22230  13.252  17.178   0.526 -0.1486 -0.3611  0.2539
 5383W        W22231  10.137   0.719  13.935 -0.2268  0.3401 -0.2019
 5384W        W22232  13.464   2.742  14.422  0.4310  0.0888 -0.1466
 5385W        W22233  15.836   0.740   0.722 -0.4345 -0.1909 -0.0912
 5386W        W22234  14.209  17.167   4.116 -0.2267 -0.1161 -0.2814
 5387W        W22235  13.779   3.096   4.049 -0.1717 -0.1505  0.1091
 5388W        W22236   7.630  17.351  11.498 -0.1407  0.1582  0.0898
 5389W        W22237  10.998   8.656   2.949 -0.1701 -0.1466 -0.2122
 5390W        W22238   2.116   4.150  16.116 -0.0509 -0.0669 -0.2829
 5391W        W22239   3.868  11.288   4.029  0.0124 -0.0564 -0.0957
 5392W        W22240   6.158   8.741  16.139 -0.1290 -0.0873  0.0883
 5393W        W22241   5.221  14.017  14.775 -0.2905  0.4225 -0.0140
 5394W        W22242   9.289  15.019   1.553  0.0547  0.0110 -0.1526
 5395W        W22243   8.212  15.526  14.974  0.1029 -0.2893 -0.3226
 5396W        W22244   3.517  16.410   0.528 -0.0251 -0.1119 -0.0309
 5397W        W22245   4.199   2.779   1.210 -0.2304 -0.3318  0.1433
 5398W        W22246   2.517   7.939  16.081 -0.1567 -0.2133 -0.1861
 5399W        W22247  10.318   1.976   4.652  0.1455  0.3168  0.0470
 5400W        W22248  11.071   9.947   1.398  0.0183  0.0153  0.1090
 5401W        W22249   2.714   1.825  13.256  0.2017 -0.2883 -0.0205
 5402W        W22250   6.238   8.932   1.280  0.1398 -0.0392 -0.1284
 5403W        W22251   5.984   6.012  12.363  0.1433 -0.1395 -0.0885
 5404W        W22252  11.324  11.098  13.069 -0.0366 -0.2253  0.0023
 5405W        W22253   9.492  13.906   2.217 -0.1398  0.1051  0.2933
 5406W        W22254  11.611  12.066  12.288  0.1642  0.0773  0.0065
 5407W        W22255   3.305  17.630   3.273  0.1914  0.0138 -0.0175
 5408W        W22256   4.415  15.281  11.563  0.1025  0.2684  0.1472
 5409W        W22257   9.513  15.218  15.049  0.2954 -0.3150 -0.1767
 5410W        W22258   7.421  10.244   2.466  0.0137  0.1657 -0.1112
 5411W        W22259  15.923   4.010  13.023 -0.2884 -0.3838  0.0170
 5412W        W22260  12.788   6.333  11.905 -0.0488  0.3000 -0.0559
 5413W        W22261  14.704   4.607   1.994 -0.1689  0.2940  0.1474
 5414W        W22262  16.219   6.486   0.265 -0.1833  0.0883 -0.0185
 5415W        W22263   7.783  10.426  13.573 -0.2834  0.0173 -0.1774
 5416W        W22264   2.631  16.899  10.404  0.1183  0.0449  0.3119
 5417W        W22265   5.030   0.902  13.136  0.0850  0.0285  0.0519
 5418W        W22266   4.419  15.733  13.470 -0.0086 -0.2255 -0.1876
 5419W        W22267   9.745   6.979  11.682 -0.1001  0.0258  0.0025
 5420W        W22268   6.591   6.111  13.693 -0.1030 -0.0231 -0.1017
 5421W        W22269  11.355   5.516  14.736 -0.1429 -0.2180  0.2010
 5422W        W22270   5.657  11.607  15.840 -0.1690 -0.0881  0.1853
 5423W        W22271   0.860  13.340   3.728 -0.2899  0.0618  0.2315
 5424W        W22272  17.628   7.230   3.740 -0.0362  0.3858  0.1996
 5425W        W22273   1.913  13.491  12.063 -0.0126  0.0824  0.0418
 5426W        W22274  17.447  15.492   1.770  0.0400  0.0454 -0.0297
 5427W        W22275   3.461   5.296  11.918 -0.0745 -0.0250  0.0136
 5428W        W22276  11.818  11.662  12.564  0.0138  0.1246 -0.2006
 5429W        W22277   8.752  12.264   1.131  0.4014 -0.3097 -0.0061
 5430W        W22278  11.744   4.454   3.800 -0.3467  0.0040 -0.2887
 5431W        W22279  17.629  11.522  10.973  0.1201 -0.0551 -0.2903
 5432W        W22280  15.886   3.052   3.899  0.1430  0.1899 -0.2020
 5433W        W22281   4.423  16.451   3.165 -0.0402  0.0212 -0.2668
 5434W        W22282   8.445  12.607   3.161 -0.1032 -0.6497 -0.0833
 5435W        W22283   4.361   6.011   0.980 -0.0681 -0.2993 -0.1420
 5436W        W22284  15.864  17.214   1.349  0.0584  0.0932  0.0184
 5437W        W22285  13.662   5.815   1.527 -0.0351 -0.2869 -0.1565
 5438W        W22286   6.758   3.043   2.164 -0.1638 -0.1735  0.1948
 5439W        W22287   4.668  16.499  13.906  0.0168 -0.1698  0.0282
 5440W        W22288   3.210  14.711   3.937  0.0092  0.2428  0.2941
 5441W        W22289  11.666  10.155  13.254  0.0783  0.1406  0.0112
 5442W        W22290  14.085   8.950   3.611 -0.2969  0.1544  0.1780
 5443W        W22291  12.121   2.437  11.312 -0.1172 -0.1117  0.1610
 5444W        W22292   7.714  10.985   4.225  0.0383 -0.1450  0.0713
 5445W        W22293   7.116   2.684   0.985  0.3243  0.0932 -0.1537
 5446W        W22294  10.004   4.529   1.286  0.5633  0.3069 -0.1244
 5447W        W22295  16.565   2.176   5.101 -0.2144  0.1604  0.0696
 5448W        W22296   8.777   9.517  11.730  0.1356  0.1169 -0.2357
 5449W        W22297  12.274   0.195  11.673 -0.4810 -0.4066  0.0377
 5450W        W22298   4.196  12.112   1.989  0.3505  0.0782  0.1960
 5451W        W22299  14.778   6.539  16.210  0.2660  0.1049 -0.0399
 5452W        W22300   0.278  14.643   1.387  0.3056 -0.1833  0.1996
 5453W        W22301   5.325   2.627  13.475  0.0126 -0.1981  0.0334
 5454W        W22302   6.328   4.790   3.385  0.2572 -0.2107 -0.0697
 5455W        W22303   6.302   2.930   4.047  0.0072  0.1504  0.0793
 5456W        W22304  14.430   8.362  14.867 -0.2374  0.1108  0.2275
 5457W        W22305   6.130   4.283   4.650 -0.0688  0.0813  0.0672
 5458W        W22306  11.781   1.385  14.382  0.0152 -0.0290  0.0525
 5459W        W22307   5.924   8.679   5.069  0.2223 -0.1266 -0.1435
 5460W        W22308   4.720   5.672   1.119  0.4505  0.1303  0.1331
 5461W        W22309   6.651   9.259  14.964  0.1290 -0.1029  0.1696
 5462W        W22310   5.499   0.142   0.588 -0.2433  0.2282 -0.2883
 5463W        W22311  16.477   0.655  15.525 -0.3812  0.0704 -0.0965
 5464W        W22312   4.213  14.803   4.807  0.0175  0.0694 -0.2054
 5465W        W22313   9.096   1.301   3.223  0.1640 -0.1588  0.0503
 5466W        W22314  17.430   7.500  12.990  0.0156 -0.1236  0.1778
 5467W        W22315  15.714  10.135   3.670 -0.1161 -0.0701 -0.0571
 5468W        W22316   1.507  13.109  12.163  0.1203  0.1014 -0.2275
 5469W        W22317   0.096   3.156  11.759 -0.2203  0.0265  0.1112
 5470W        W22318  10.096  13.525   5.134 -0.0291  0.1147 -0.1003
 5471W        W22319  15.107   4.226   4.438  0.3518  0.2163  0.2968
 5472W        W22320   7.547  17.654   1.690  0.0134  0.1403 -0.0435
 5473W        W22321   4.507  13.852  12.669 -0.1369 -0.3192 -0.1793
 5474W        W22322   6.904  14.583  15.622 -0.1877  0.1307  0.0478
 5475W        W22323   0.211  15.818  11.487 -0.2270 -0.0406  0.1236
 5476W        W22324   9.342   4.801  13.521  0.4169 -0.0122  0.2808
 5477W        W22325   5.760  12.037   0.490  0.0860  0.0852  0.0906
 5478W        W22326  12.870  13.455   1.229  0.0847  0.0008 -0.0762
 5479W        W22327  13.286  12.530  11.716 -0.0993  0.0529  0.0416
 5480W        W22328   9.120  15.248   2.444 -0.0617 -0.0464 -0.1423
 5481W        W22329  14.550  17.327  13.386  0.2226 -0.0037 -0.0455
 5482W        W22330   0.165   6.052   2.965  0.1103 -0.3980 -0.1045
 5483W        W22331   5.048  12.511   4.924  0.0241 -0.1489 -0.2392
 5484W        W22332   7.331  10.755   2.910 -0.0044  0.1678  0.0687
 5485W        W22333   5.238  17.589   5.137  0.1084 -0.0064  0.0106
 5486W        W22334  10.182   5.515  11.400  0.1812  0.0723 -0.2736
 5487W        W22335   1.439   7.003  15.205  0.0886  0.0620 -0.1289
 5488W        W22336   5.005  14.597   1.178  0.1351 -0.1802 -0.0929
 5489W        W22337   7.234   6.473   2.366 -0.4038 -0.1167 -0.0134
 5490W        W22338  15.213   5.554   4.117  0.3062  0.1314  0.0016
 5491W        W22339   6.104   8.269  12.090  0.2041 -0.0241  0.0780
 5492W        W22340  14.142  15.296  11.758 -0.0088 -0.0739 -0.1660
 5493W        W22341   7.405   0.856   4.184  0.3064 -0.2004  0.0630
 5494W        W22342   1.593  15.482  15.087  0.1157  0.2869  0.2081
 5495W        W22343   3.211   0.074  15.843  0.0047  0.0449 -0.4374
 5496W        W22344  10.263  15.447  15.806 -0.0850  0.2788 -0.1073
 5497W        W22345   1.859   2.365  15.684 -0.2944  0.4002  0.2110
 5498W        W22346  15.765  16.319   1.221 -0.2099 -0.0154  0.3899
 5499W        W22347  16.488  12.048  14.587  0.0541 -0.0843  0.0136
 5500W        W22348  17.407   0.193   3.396  0.0312 -0.0379  0.3617
 5501W        W22349   5.299   2.102  13.147  0.2155 -0.1519 -0.0092
 5502W        W22350  15.094  12.353   1.004  0.1189 -0.0154  0.1166
 5503W        W22351   3.298   5.241   6.256 -0.0858  0.1122 -0.1375
 5504W        W22352  12.866  13.228   2.448  0.1169  0.0190 -0.0802
 5505W        W22353   5.493  15.281  16.232 -0.0411 -0.1089  0.2426
 5506W        W22354   6.425  10.292  11.525 -0.0416  0.0751  0.2204
 5507W        W22355  15.110  15.307  16.649 -0.0029 -0.0736 -0.2913
 5508W        W22356   6.026  15.572  12.201  0.1076 -0.3156 -0.2380
 5509W        W22357  12.892  17.348  12.582  0.0053 -0.0434  0.0223
 5510W        W22358  16.780  14.398  11.556 -0.4493  0.0568 -0.0951
 5511W        W22359  10.874   0.895   4.984 -0.0613 -0.1135 -0.2933
 5512W        W22360   7.092  11.958   0.485 -0.0111 -0.0448  0.1458
 5513W        W22361   3.840  17.457  14.323  0.1653 -0.3497 -0.1775
 5514W        W22362  10.235  10.751  15.279 -0.1430 -0.2886 -0.0892
 5515W        W22363   7.349   5.858   0.878 -0.0811 -0.0212  0.1144
 5516W        W22364   9.025  16.139   2.716  0.1769 -0.0568  0.1603
 5517W        W22365   6.944   5.003   3.780  0.2418 -0.3360 -0.0286
 5518W        W22366   6.123   5.769   2.585 -0.2019  0.0858  0.1744
 5519W        W22367  16.108   2.983   0.397 -0.2775  0.1012 -0.1974
 5520W        W22368  15.987  14.493  15.409 -0.1023 -0.1040 -0.1901
 5521W        W22369   2.233   2.301   4.465  0.0406 -0.2717 -0.0284
 5522W        W22370   5.687   5.219  11.643  0.2404 -0.0004  0.0243
 5523W        W22371  13.118  11.784  16.589  0.0306  0.1906 -0.0429
 5524W        W22372   1.960  11.174  14.396 -0.3146 -0.2087 -0.0298
 5525W        W22373   0.312   1.434  14.745 -0.0509 -0.1650  0.0273
 5526W        W22374  15.816   3.645  15.686 -0.0860  0.2411 -0.0694
 5527W        W22375   7.680  12.898   4.394  0.0521  0.0753  0.0497
 5528W        W22376   8.105   2.449  12.504 -0.1004  0.0306  0.2627
 5529W        W22377   9.823   6.664   3.121  0.1293  0.3570  0.2205
 5530W        W22378   6.648  17.430   0.217  0.0389  0.1847  0.3088
 5531W        W22379   4.117   4.159  13.554  0.0662  0.1774 -0.0212
 5532W        W22380   0.663  17.382   0.299 -0.2801 -0.0064 -0.2440
 5533W        W22381  14.589   8.004  12.976  0.1585 -0.2830 -0.2298
 5534W        W22382   7.162   2.830   6.069  0.1089 -0.2405  0.0770
 5535W        W22383   3.405  13.575  12.860 -0.0048  0.0999  0.0885
 5536W        W22384   4.337   5.834   1.517 -0.1299 -0.2551  0.0075
 5537W        W22385  15.833   8.767  13.588 -0.1042 -0.0740  0.2252
 5538W        W22386  11.156   6.390  16.137 -0.1846  0.0762 -0.2619
 5539W        W22387  14.196   0.510  11.761  0.3563  0.3327 -0.1234
 5540W        W22388   4.434   0.507   2.619 -0.1419  0.1507 -0.0724
 5541W        W22389   5.504   7.403  14.863  0.0645 -0.0467 -0.4628
 5542W        W22390  13.795  16.940  12.558  0.0122 -0.1174 -0.1869
 5543W        W22391  12.277   7.459  14.462  0.0134 -0.2318  0.1406
 5544W        W22392  12.213  16.092   4.226  0.1081  0.0146  0.0471
 5545W        W22393  10.443   7.632   5.239  0.1393  0.0185 -0.0175
 5546W        W22394  16.657  12.935  13.354  0.1492  0.0902  0.0867
 5547W        W22395   9.955  10.251   3.855  0.0427 -0.0361 -0.0429
 5548W        W22396   5.965   0.315  14.873 -0.0195 -0.1527 -0.0564
 5549W        W22397   8.494  17.208   6.247 -0.1081 -0.1399  0.2288
 5550W        W22398   5.240   9.433   5.472  0.2450 -0.0183 -0.0378
 5551W        W22399  15.944  13.171   3.102  0.1282 -0.2432  0.0327
 5552W        W22400   3.083   2.306   3.550 -0.2780  0.0735 -0.3649
 5553W        W22401  12.249  10.286   2.190  0.4086  0.2345 -0.0625
 5554W        W22402   8.846   1.088  14.253 -0.0555  0.0153 -0.0208
 5555W        W22403  16.429  11.689  13.680  0.1497 -0.2024 -0.1090
 5556W        W22404   6.981   5.709   4.232  0.2982  0.0870  0.0544
 5557W        W22405  17.320   2.959  13.241 -0.2548  0.0689 -0.1704
 5558W        W22406  16.108   4.831   2.836 -0.2500  0.0145 -0.1257
 5559W        W22407   7.530  15.076   2.917  0.0722 -0.3514  0.1721
 5560W        W22408   0.176   7.373  13.245 -0.0522 -0.0093  0.1574
 5561W        W22409   5.335  12.219   3.399  0.2440 -0.0207  0.0055
 5562W        W22410   3.333   9.614   4.430  0.0812  0.0798  0.0751
 5563W        W22411   0.374  12.067  15.986  0.0561  0.1635 -0.1761
 5564W        W22412  11.888   5.633   1.963  0.1338  0.0820  0.0133
 5565W        W22413  17.311  14.794   0.217 -0.1785 -0.2139 -0.0894
 5566W        W22414  11.528   1.192   0.472 -0.0605  0.0778  0.1655
 5567W        W22415  13.591   8.838  11.892 -0.0002  0.0980  0.3612
 5568W        W22416  12.931  17.220  15.389  0.0456  0.2419 -0.0145
 5569W        W22417  15.198   2.131   4.787  0.3506  0.3066  0.1067
 5570W        W22418   7.234  11.426  15.351 -0.2110 -0.3012  0.2353
 5571W        W22419  11.867   1.454  15.959 -0.1444 -0.2567 -0.2139
 5572W        W22420   6.041   6.348  11.820  0.2768  0.1172  0.0270
 5573W        W22421   2.233  16.082  12.037 -0.1136 -0.2032 -0.0531
 5574W        W22422   0.256   9.786   0.687  0.1862 -0.3610 -0.0183
 5575W        W22423  13.558   7.507   3.611 -0.2936 -0.0996 -0.0341
 5576W        W22424  16.071   1.800  13.101 -0.0678 -0.1120 -0.0713
 5577W        W22425   5.650  15.408   2.336  0.1724  0.0942 -0.0091
 5578W        W22426  15.231   4.538   2.064  0.0551 -0.0701  0.1029
 5579W        W22427  14.634  15.778  16.651 -0.4041 -0.1856  0.0533
 5580W        W22428  16.709   7.732   0.795 -0.2948 -0.0842 -0.0703
 5581W        W22429   8.168  10.830  16.671 -0.1344  0.0302  0.0545
 5582W        W22430  14.553   9.707   2.574 -0.2474  0.0709  0.0646
 5583W        W22431  13.571  10.841  12.753  0.2205 -0.1403 -0.1102
 5584W        W22432   1.935   5.628  15.408  0.0744 -0.0035 -0.1143
 5585W        W22433  15.238   3.372   0.305  0.1986  0.0652  0.0181
 5586W        W22434  16.051   9.518  11.832  0.1507 -0.2115 -0.0857
 5587W        W22435  12.149   9.618   0.900  0.0062  0.2516 -0.2611
 5588W        W22436  15.464  15.645   0.772  0.0008 -0.2372 -0.0269
 5589W        W22437   8.832   3.455  15.510  0.1498 -0.0768 -0.2163
 5590W        W22438   0.695   9.404  11.289 -0.2122 -0.0626  0.3921
 5591W        W22439   5.018   7.988  14.987 -0.1331 -0.2891  0.0341
 5592W        W22440   8.600  11.926  15.318 -0.1400 -0.3037  0.1517
 5593W        W22441  17.253  14.383  11.863  0.1475  0.0975 -0.1766
 5594W        W22442   7.249   0.153   1.205  0.0629 -0.0209  0.1036
 5595W        W22443   3.799  17.637  12.666 -0.1119  0.0562  0.3135
 5596W        W22444   4.292   4.278   2.197  0.1179 -0.0057  0.3712
 5597W        W22445  12.990  14.971  14.619 -0.2217  0.1456  0.0920
 5598W        W22446  13.091   0.547   0.695  0.2982 -0.3350 -0.0225
 5599W        W22447   4.919   1.561   2.092  0.1512  0.1432 -0.1697
 5600W        W22448  12.166  16.654  14.980  0.0938 -0.3738  0.4535
 5601W        W22449  12.007   9.571   3.596  0.0717 -0.0055  0.2486
 5602W        W22450  14.123   4.252   0.282 -0.3617 -0.0349  0.1823
 5603W        W22451  15.724  16.009   4.294  0.2461  0.0477  0.2390
 5604W        W22452  13.436  16.111   4.411 -0.3416  0.0441 -0.1175
 5605W        W22453   9.302   7.638   2.217 -0.0524 -0.0770  0.2330
 5606W        W22454   4.802   9.086  15.951 -0.0199 -0.1059  0.1032
 5607W        W22455   7.540  12.180   2.467 -0.2281 -0.1151 -0.0381
 5608W        W22456   5.163   5.477  13.215  0.1931  0.0149 -0.1949
 5609W        W22457  15.579  17.522   1.983 -0.0400  0.0991 -0.1702
 5610W        W22458  10.760   0.833  13.091  0.2476 -0.2010  0.2013
 5611W        W22459  14.725  11.963   1.118  0.2118  0.2543  0.0526
 5612W        W22460   0.300   4.076   0.239  0.0914  0.0419 -0.0954
 5613W        W22461   5.308   9.458   3.748 -0.0626 -0.0749  0.0990
 5614W        W22462  15.429  12.909   1.383 -0.0016 -0.2416 -0.2108
 5615W        W22463   1.837   4.641   2.756  0.1472  0.2409 -0.1212
 5616W        W22464  13.307  17.257   2.515 -0.1394  0.2935  0.0440
 5617W        W22465   4.761  14.285   2.071 -0.1929 -0.1327  0.0896
 5618W        W22466   3.007   4.654   3.453  0.1340 -0.1793 -0.1798
 5619W        W22467   7.603  16.436   3.827  0.1006  0.3393  0.2102
 5620W        W22468   4.399   6.792   3.965 -0.1898 -0.1687 -0.0789
 5621W        W22469  12.248  10.517   3.242 -0.0563  0.1203  0.3384
 5622W        W22470   9.601  16.178   3.837 -0.1624  0.0145 -0.1835
 5623W        W22471   3.896  13.815  15.860  0.0260  0.2192  0.0688
 5624W        W22472   6.767  16.665   3.353  0.0442  0.2119  0.1361
 5625W        W22473   4.434  11.844  15.891  0.0264 -0.0172  0.1613
 5626W        W22474   5.511   2.837   3.656 -0.1609  0.1258  0.3656
 5627W        W22475   1.924   1.784   5.252 -0.0500  0.0461 -0.0899
 5628W        W22476   7.950  11.682   3.444 -0.1860 -0.0698 -0.0135
 5629W        W22477   9.268  12.880  15.095 -0.2626 -0.4266  0.0401
 5630W        W22478   7.285  13.809   2.503 -0.0958 -0.0183 -0.2227
 5631W        W22479  14.339   2.077  13.884  0.1044  0.0263  0.0447
 5632W        W22480  17.106   3.142   3.577  0.3006 -0.0883 -0.2342
 5633W        W22481   7.941  11.233   0.946  0.0956  0.0729 -0.0681
 5634W        W22482   9.498   9.696  13.276  0.2721 -0.2206 -0.0394
 5635W        W22483   5.587  11.454  12.390 -0.2280 -0.0874 -0.0877
 5636W        W22484  10.348  14.552   0.249 -0.0534  0.0915  0.0909
 5637W        W22485  11.172  12.578  16.609 -0.1322 -0.2671 -0.1102
 5638W        W22486  15.203  10.548  11.391 -0.1416 -0.3804 -0.1018
 5639W        W22487   9.884  10.241   2.818 -0.0775  0.0698 -0.1160
 5640W        W22488   0.319   0.675  14.535 -0.1721  0.1431  0.1268
 5641W        W22489   1.989   9.617   2.706 -0.4703 -0.0974  0.0697
 5642W        W22490   5.233  12.985  10.917 -0.0265 -0.0457 -0.2257
 5643W        W22491  17.290  10.903  14.797 -0.2555 -0.1222 -0.0329
 5644W        W22492   2.322   7.887  13.756 -0.2088 -0.0218 -0.1100
 5645W        W22493   5.581   3.171  15.177 -0.0475  0.4994  0.1560
 5646W        W22494  14.286   6.859   2.603 -0.0921 -0.0788  0.0180
 5647W        W22495  11.860   4.578   0.689  0.0381  0.0497  0.3307
 5648W        W22496  16.050  13.590  15.215  0.1670 -0.2408  0.0776
 5649W        W22497   7.909  14.914  13.568  0.0798  0.1317  0.2201
 5650W        W22498  14.513   0.009  13.856  0.2145 -0.1796 -0.0354
 5651W        W22499   5.362   6.158  15.934 -0.3950  0.1979 -0.0064
 5652W        W22500  12.205   7.942   4.521 -0.0324  0.1271 -0.0978
 5653W        W22501  10.195   9.304  10.492 -0.0884 -0.0242 -0.0126
 5654W        W22502  10.615  10.850   1.505 -0.2029  0.0950  0.0781
 5655W        W22503  16.792   5.043  12.565  0.0581  0.0783 -0.0708
 5656W        W22504   9.064  16.428   5.150  0.0374  0.2110  0.1164
 5657W        W22505   7.824   7.398  16.580  0.3088  0.0900  0.0342
 5658W        W22506   1.600   7.347  12.729  0.1766 -0.5460 -0.4675
 5659W        W22507   2.758   9.969  10.840  0.2652  0.0395 -0.0805
 5660W        W22508   1.829  11.619   4.305  0.1608 -0.0565  0.0147
 5661W        W22509  13.527  10.156  13.039  0.1831  0.3365  0.3377
 5662W        W22510   0.896   2.121   4.574 -0.1500  0.0072 -0.0356
 5663W        W22511  17.499   1.922  12.796  0.1264  0.6076 -0.1102
 5664W        W22512  16.342   9.141   4.894 -0.0442 -0.0504  0.3616
 5665W        W22513   3.321   6.035   0.962  0.1789 -0.0073 -0.0462
 5666W        W22514   8.249  15.479   0.678 -0.2865  0.2723 -0.0365
 5667W        W22515  14.029  13.003   3.899 -0.0014  0.1915 -0.0777
 5668W        W22516   3.317   8.372   4.700  0.1389  0.0508 -0.1796
 5669W        W22517  14.494  16.885  14.983 -0.3192  0.0061  0.3192
 5670W        W22518   8.558   2.641   5.484 -0.1207  0.0563  0.0052
 5671W        W22519   6.258   2.723   2.220  0.2487  0.1205 -0.2219
 5672W        W22520   8.987   2.402   3.508  0.0207  0.0267 -0.1878
 5673W        W22521  17.564  12.983  13.659 -0.0974 -0.0040  0.1621
 5674W        W22522  14.656   3.404  14.229 -0.1902  0.1452  0.2040
 5675W        W22523   9.096  16.154   5.566  0.2303  0.2703 -0.0786
 5676W        W22524   7.617  14.043  10.778 -0.2747  0.5408  0.3084
 5677W        W22525   3.847   5.047   0.078 -0.0460 -0.1059 -0.1807
 5678W        W22526   8.329   0.370  11.744  0.1614  0.1000 -0.2092
 5679W        W22527   2.578   6.320   3.870  0.0770 -0.4520  0.3183
 5680W        W22528  15.698  16.241  12.506 -0.0199  0.0472  0.0587
 5681W        W22529   7.747  10.197   6.425 -0.1274  0.1614 -0.0183
 5682W        W22530   6.175   1.108  12.099  0.2891  0.2419 -0.1642
 5683W        W22531   6.258  11.702  12.904  0.1500 -0.2254  0.2469
 5684W        W22532   8.522  12.890  16.196 -0.1588 -0.0171  0.1038
 5685W        W22533   8.003  11.715  14.728  0.0707  0.2538  0.0809
 5686W        W22534   4.373   6.800  11.438  0.1768  0.0486  0.0577
 5687W        W22535  10.609   1.084  13.584  0.0081 -0.1691  0.1631
 5688W        W22536  13.790  10.357   4.798 -0.2442  0.1961  0.3901
 5689W        W22537  11.350  11.730   0.233 -0.1748  0.1934  0.1770
 5690W        W22538   8.314   8.150   4.936  0.0120  0.1447  0.1967
 5691W        W22539   2.991   7.353  14.690  0.3003  0.3031  0.3041
 5692W        W22540  14.752   9.650  12.080  0.2037 -0.0546  0.0583
 5693W        W22541   1.712  10.601   4.362 -0.1547 -0.2973 -0.2393
 5694W        W22542  16.481  11.164  13.387 -0.0791  0.1960 -0.2098
 5695W        W22543   9.559   2.220  12.901  0.2247  0.2509  0.0324
 5696W        W22544  16.888   3.197   1.923  0.0643  0.1289 -0.1620
 5697W        W22545  15.921  14.949   3.098 -0.1448 -0.0104 -0.3039
 5698W        W22546   7.574  15.130  10.320 -0.1983 -0.3423 -0.0727
 5699W        W22547  15.035  11.273  12.858  0.0148  0.1449 -0.1799
 5700W        W22548   7.529   2.703  16.556 -0.3519  0.1143  0.0438
 5701W        W22549  16.516   1.166   1.215  0.0706 -0.2704 -0.0361
 5702W        W22550  14.494  10.007   1.165 -0.3912  0.1608  0.4117
 5703W        W22551  14.307   0.902   1.156  0.1683  0.0929  0.0809
 5704W        W22552  11.749  17.125  10.796 -0.1294  0.1202  0.2216
 5705W        W22553   9.808  15.302   1.524  0.0075 -0.3810 -0.0566
 5706W        W22554   2.379   8.013  12.591  0.0724  0.1871 -0.0258
 5707W        W22555   1.337  14.044  13.366  0.0003  0.3958  0.2935
 5708W        W22556  10.084   9.782  15.006 -0.0017 -0.2531  0.2420
 5709W        W22557   6.359   5.017   1.307 -0.1779 -0.1654 -0.0738
 5710W        W22558  13.359  15.604   4.196  0.0923  0.1848 -0.0236
 5711W        W22559   7.394  17.277   1.145 -0.1108  0.2077 -0.2723
 5712W        W22560   3.148  13.605   4.974 -0.1266  0.2654  0.1293
 5713W        W22561   3.795   6.543  11.464 -0.2655  0.0198 -0.0406
 5714W        W22562   9.276  14.937   4.148 -0.0565  0.1367 -0.0270
 5715W        W22563  11.625  12.206  15.465 -0.0067 -0.0734 -0.2473
 5716W        W22564   4.698   1.869   1.293  0.0947 -0.6115  0.0368
 5717W        W22565   3.913  15.103   2.740  0.0429 -0.1177 -0.0285
 5718W        W22566  10.253  10.119  12.581 -0.0325  0.0947 -0.0729
 5719W        W22567   9.535   9.890   3.145 -0.0831 -0.0626  0.1888
 5720W        W22568  15.679  17.436  11.603  0.2810  0.1164 -0.2792
 5721W        W22569  13.203   3.877   3.030 -0.0115 -0.1455 -0.2785
 5722W        W22570   6.622   6.412   2.882  0.0556  0.0712 -0.0613
 5723W        W22571  11.758   8.480  12.560 -0.1360  0.0636 -0.2924
 5724W        W22572   7.268  13.997  12.989  0.0641 -0.1028  0.0050
 5725W        W22573  14.981   0.239  11.999  0.0675  0.0811 -0.0219
 5726W        W22574  16.890   9.132   2.154 -0.0837 -0.1515  0.0498
 5727W        W22575   4.310   6.533  15.832  0.2253  0.1402 -0.0291
 5728W        W22576  11.384   6.729   2.498  0.1070  0.1412  0.0782
 5729W        W22577   9.017   3.168  14.958  0.1814  0.1875  0.3024
 5730W        W22578   5.461   0.478  13.112  0.0267  0.0992 -0.0549
 5731W        W22579   9.974   5.790   0.017 -0.0702 -0.0940  0.1878
 5732W        W22580  13.803  15.264   3.387 -0.1555 -0.0352 -0.0178
 5733W        W22581   8.193   9.223   4.203 -0.1978  0.3388 -0.1777
 5734W        W22582   6.709  11.528   1.115 -0.2808  0.0593 -0.3741
 5735W        W22583   4.728   2.564   3.476 -0.1369 -0.1755  0.0397
 5736W        W22584  11.625   8.429  14.367  0.2362 -0.0255  0.0703
 5737W        W22585   9.500   4.883  12.859  0.1557  0.2429  0.0583
 5738W        W22586  13.045   5.103  14.111  0.1774  0.2759 -0.2767
 5739W        W22587   1.272   9.385  12.912 -0.4958 -0.2900  0.2727
 5740W        W22588   2.082   1.438  15.561 -0.1035  0.1747  0.1143
 5741W        W22589  16.464   3.405   1.137  0.1986  0.2843 -0.1653
 5742W        W22590   1.469   2.772   5.043 -0.2231 -0.0294 -0.0886
 5743W        W22591  12.684  10.275   2.447 -0.0084  0.0209  0.0530
 5744W        W22592  13.949   3.251  14.342  0.0926  0.0170  0.0396
 5745W        W22593  15.236   4.492  16.580  0.0994  0.2984 -0.2530
 5746W        W22594   3.426   6.893   2.999  0.0372 -0.2130  0.2160
 5747W        W22595   4.211  10.063   5.710  0.0922  0.0594  0.0697
 5748W        W22596   9.394  13.742  13.788  0.2443  0.0627 -0.0006
 5749W        W22597   1.768  17.187   2.334  0.4217  0.1823 -0.0881
 5750W        W22598  16.479   7.171   1.892  0.0175 -0.1075  0.2426
 5751W        W22599   2.926   8.178  14.198  0.0040  0.1671 -0.0873
 5752W        W22600   6.207   9.738  10.689  0.2702 -0.0183 -0.1517
 5753W        W22601   8.915   6.344  11.829 -0.1321 -0.1723  0.1801
 5754W        W22602  16.072  12.108  14.876  0.1713 -0.1614 -0.1183
 5755W        W22603   7.113  11.853  15.092  0.0455 -0.2065 -0.0518
 5756W        W22604  15.177  11.553   1.849  0.1161 -0.1490 -0.2842
 5757W        W22605   5.353  15.083   2.904  0.1815 -0.0159 -0.1058
 5758W        W22606  16.721  17.397   2.303 -0.4166  0.3322  0.0970
 5759W        W22607  16.254   1.092  11.625  0.1617  0.1906 -0.5139
 5760W        W22608   2.718   2.494   2.337  0.0942  0.1429 -0.0468
 5761W        W22609   7.543  10.437  15.383 -0.1061  0.2046 -0.1202
 5762W        W22610   5.439  17.045  11.995  0.0486 -0.2621 -0.1172
 5763W        W22611  10.580   9.484  14.629  0.1367 -0.1510  0.1969
 5764W        W22612   8.651   3.120  16.411 -0.1873  0.0820  0.0697
 5765W        W22613   8.807  14.032  13.222  0.0934  0.0924 -0.0737
 5766W        W22614  12.357  12.772   4.216  0.1139 -0.2126 -0.3681
 5767W        W22615   3.425  16.694   3.526  0.0205  0.1907  0.0416
 5768W        W22616   2.742  11.690   5.137 -0.0467  0.0771 -0.1746
 5769W        W22617  15.950  13.521  14.224 -0.4226 -0.0610  0.1569
 5770W        W22618   0.336  17.481  13.822  0.2788  0.0342 -0.2891
 5771W        W22619  13.588  12.566   0.001  0.2255 -0.2799 -0.2085
 5772W        W22620   0.788   3.676   3.375  0.0912 -0.0146  0.2983
 5773W        W22621  15.997   0.363   4.243 -0.0474 -0.1360  0.3115
 5774W        W22622  11.011   2.450  12.319 -0.0121  0.1287  0.2099
 5775W        W22623  17.496   0.749  11.267  0.1606 -0.2525 -0.0547
 5776W        W22624   3.631   9.795   5.478  0.3072  0.2755 -0.0782
 5777W        W22625  14.579   3.408   4.621 -0.1057 -0.0759  0.2841
 5778W        W22626   9.373  13.101  16.413  0.1425 -0.2448 -0.2642
 5779W        W22627   8.029   3.058  16.478 -0.1180  0.0365 -0.0605
 5780W        W22628   3.657   4.770  15.277  0.0737  0.0163 -0.0209
 5781W        W22629   3.829   2.674  11.133 -0.1104  0.1300  0.2095
 5782W        W22630  14.960  14.687   0.700 -0.0330 -0.0857  0.0112
 5783W        W22631   2.952   9.428  14.982  0.1737 -0.1467  0.1154
 5784W        W22632   6.862  16.308   1.403  0.2533 -0.2040 -0.1128
 5785W        W22633  15.798   2.766   2.013 -0.1155 -0.2281  0.0432
 5786W        W22634  12.509   8.319   4.535  0.0845  0.1125 -0.1700
 5787W        W22635  10.580  11.641   2.521 -0.0447 -0.1528 -0.5644
 5788W        W22636   9.275  17.534   4.618  0.1034 -0.0093  0.1361
 5789W        W22637   8.171   9.367  13.410 -0.0715  0.0457 -0.2085
 5790W        W22638   4.852   6.904  11.540  0.1546  0.0627 -0.1909
 5791W        W22639   7.995  10.957   3.047 -0.0088 -0.0840 -0.0611
 5792W        W22640   9.490   1.819  13.726 -0.2153 -0.0949 -0.1055
 5793W        W22641  12.562  13.611  11.637 -0.2737 -0.0439  0.2187
 5794W        W22642  16.269  12.340   0.482 -0.0635  0.1430  0.0291
 5795W        W22643  14.248   6.810  15.025 -0.1576 -0.1203  0.0713
 5796W        W22644   4.797  12.519   1.390 -0.0607  0.1167  0.1122
 5797W        W22645   3.626   4.577  14.201 -0.3040  0.1143  0.1210
 5798W        W22646   3.151  16.214  13.386 -0.0743 -0.2365 -0.1521
 5799W        W22647   5.495   9.274   2.491  0.1761  0.1637  0.4456
 5800W        W22648   0.710   9.126  11.692 -0.0282  0.0800 -0.0600
 5801W        W22649  14.201  12.853  12.152  0.0758  0.1802 -0.0947
 5802W        W22650   6.296  17.478  14.280 -0.1132  0.0771  0.0893
 5803W        W22651   8.113  12.398  13.362 -0.1127 -0.0236 -0.0419
 5804W        W22652   1.587  11.886  11.153  0.0838 -0.1712 -0.0763
 5805W        W22653   3.790  14.277  15.657  0.0667  0.2686 -0.0710
 5806W        W22654   9.959  17.265  15.496  0.0561 -0.1540  0.2895
 5807W        W22655  13.504   4.415  14.561  0.1579  0.1415 -0.3021
 5808W        W22656   2.196   3.100  14.446 -0.0191  0.0158 -0.1547
 5809W        W22657   5.088  13.114  12.942 -0.2882  0.0541 -0.1346
 5810W        W22658  17.033   5.094   2.902  0.0537 -0.2019 -0.1995
 5811W        W22659   2.178   8.329   0.901  0.0560  0.3675  0.2778
 5812W        W22660   0.686   6.007  13.869  0.2196  0.2142  0.0210
 5813W        W22661  17.394   9.453  16.391 -0.4239  0.3032  0.0376
 5814W        W22662   1.861  10.690   0.602  0.4988 -0.1377 -0.2480
 5815W        W22663  10.628   7.998   0.759 -0.2064  0.3912 -0.0375
 5816W        W22664   4.993   9.689   0.519 -0.1852  0.1209  0.2203
 5817W        W22665   1.003   6.462   1.513 -0.0855  0.1768 -0.1592
 5818W        W22666  15.351  14.420   0.159  0.2267  0.1451 -0.0682
 5819W        W22667   5.591   1.982   1.002 -0.0503 -0.3457 -0.1353
 5820W        W22668   3.986   6.670  10.999 -0.0051 -0.0954 -0.0240
 5821W        W22669   3.951   7.833  16.293  0.2095  0.2353  0.1937
 5822W        W22670   7.605  12.388   5.053 -0.3221  0.2097  0.0068
 5823W        W22671   5.847  16.232   0.002 -0.1294 -0.2339  0.1926
 5824W        W22672   0.055  17.570  12.348 -0.1608  0.1575 -0.3202
 5825W        W22673   7.421   7.376  11.951  0.3126 -0.0773 -0.3652
 5826W        W22674  11.532   7.504   3.198  0.0875  0.1666 -0.1910
 5827W        W22675   1.455  12.727   3.165 -0.0082  0.2694  0.1962
 5828W        W22676  15.426   6.019  14.737 -0.2029 -0.1185 -0.1246
 5829W        W22677  10.000   4.704   4.350 -0.0908  0.1119  0.1775
 5830W        W22678  14.550   8.650   4.583  0.1333  0.0601 -0.2009
 5831W        W22679   1.221   8.845   1.608 -0.1515 -0.1222 -0.0364
 5832W        W22680   2.698   9.939   5.056 -0.0635 -0.3732 -0.0096
 5833W        W22681  16.609  14.520  16.169 -0.0497  0.0334 -0.3557
 5834W        W22682  10.018  11.968  16.517 -0.1541  0.0399  0.1829
 5835W        W22683  16.507   4.447  12.774  0.1618 -0.3358 -0.0356
 5836W        W22684   9.213   5.343  11.623  0.0632 -0.0111  0.1778
 5837W        W22685   0.394  13.342   1.369  0.1067  0.2546 -0.1142
 5838W        W22686   4.957  14.329   3.678 -0.0045  0.0725 -0.2815
 5839W        W22687  11.641   1.128  12.551 -0.1500 -0.1998  0.1962
 5840W        W22688   8.147   7.121  13.696  0.0944 -0.2526 -0.1599
 5841W        W22689   9.387  10.341   0.140 -0.1184  0.0324 -0.2620
 5842W        W22690  10.580   7.628  13.962 -0.0662 -0.1261 -0.3344
 5843W        W22691   0.674  10.570   1.578 -0.1424  0.2330  0.1779
 5844W        W22692  16.273   3.963  13.705  0.0883 -0.0335 -0.1437
 5845W        W22693  11.764  12.988   0.459 -0.0514  0.0768  0.1606
 5846W        W22694   5.498   8.509  13.327 -0.1202 -0.0456 -0.0660
 5847W        W22695   2.388   5.073  14.158  0.0933 -0.1532  0.1694
 5848W        W22696  11.657   4.604  15.027  0.2124  0.1452  0.0058
 5849W        W22697   4.551   9.041  16.397 -0.1809 -0.1603 -0.3697
 5850W        W22698   8.950   1.769  16.669  0.0358 -0.0929  0.3617
 5851W        W22699   7.840   3.832   3.936  0.2272  0.0667  0.1406
 5852W        W22700  16.363   1.789  12.636 -0.0977 -0.1762 -0.1438
 5853W        W22701   7.430   6.501  16.017  0.2208 -0.3203  0.4113
 5854W        W22702  12.235  16.115  16.387 -0.0812 -0.0851  0.0115
 5855W        W22703  17.575  15.848  11.874 -0.2034  0.0454  0.0978
 5856W        W22704  10.071   7.099  15.261  0.2511  0.1137 -0.0137
 5857W        W22705  14.400  12.524  16.171 -0.1236 -0.4696  0.0149
 5858W        W22706   4.408   2.039   0.896 -0.1898 -0.1388 -0.2993
 5859W        W22707  17.273   3.343  12.937 -0.2131 -0.1334 -0.1370
 5860W        W22708   5.926  10.883  12.719  0.2208 -0.2524  0.0112
 5861W        W22709   2.105  16.203   3.009 -0.0604 -0.0783  0.0991
 5862W        W22710  16.931   4.659  14.822  0.1682  0.0595  0.0886
 5863W        W22711   0.138   8.504  15.850  0.4818 -0.0791 -0.1517
 5864W        W22712   3.104   1.328  14.734 -0.3920  0.2429  0.1128
 5865W        W22713   5.866   2.852  14.857  0.0050  0.0400 -0.0173
 5866W        W22714   8.901   9.458   1.002 -0.2357 -0.2422 -0.3174
 5867W        W22715   7.113   7.551   3.718 -0.0648 -0.1121  0.1449
 5868W        W22716  13.441   2.321  11.358  0.0850 -0.1448  0.0914
 5869W        W22717  11.453  11.856  13.628 -0.0603 -0.3276  0.3121
 5870W        W22718   6.440   0.129  13.958 -0.1312  0.0700  0.1676
 5871W        W22719   1.770   2.536   0.942 -0.0412 -0.1754 -0.3116
 5872W        W22720  12.664  16.364   3.011  0.1204 -0.0433 -0.1204
 5873W        W22721   9.523   3.594  11.595 -0.1725  0.0789 -0.1776
 5874W        W22722   4.908   2.858   3.825 -0.0352  0.1315  0.2176
 5875W        W22723  10.694  12.089   5.290  0.2711 -0.2872 -0.0180
 5876W        W22724  12.717   7.617  14.664 -0.0205 -0.1234  0.2123
 5877W        W22725  14.024   6.777   3.032 -0.0860  0.3587  0.1522
 5878W        W22726   0.204   2.172  12.799 -0.0568  0.2352 -0.1680
 5879W        W22727  12.299  16.116  12.848 -0.2673 -0.0842 -0.0430
 5880W        W22728   1.442   7.930  14.598 -0.2083  0.0530 -0.0005
 5881W        W22729  14.168  16.679  11.877 -0.0531  0.0929 -0.4298
 5882W        W22730   3.931  16.970   2.708 -0.0993  0.0175  0.1191
 5883W        W22731   3.665   1.011  15.081 -0.2526 -0.1694 -0.3647
 5884W        W22732   9.618  16.408   3.378 -0.0937 -0.0849  0.1729
 5885W        W22733   0.187   1.269   4.507 -0.0619 -0.1540  0.2058
 5886W        W22734  17.581  11.742  12.628 -0.1280  0.0532 -0.2280
 5887W        W22735  13.326   0.366   5.169 -0.2268 -0.2282  0.1767
 5888W        W22736   6.995  10.140   2.796 -0.0452  0.1581 -0.1499
 5889W        W22737  16.810   9.274   4.912  0.0128  0.0777 -0.0901
 5890W        W22738   3.051  11.092   2.811  0.0145 -0.0420 -0.3615
 5891W        W22739  11.397   4.128   5.872 -0.0961  0.0793  0.0747
 5892W        W22740   7.589  17.193   0.437 -0.2329  0.0192  0.1090
 5893W        W22741   0.676   9.484   0.743  0.3449 -0.0551  0.2446
 5894W        W22742  14.308   5.936  16.010  0.2439 -0.0020 -0.0135
 5895W        W22743   1.523  14.775  11.799 -0.0669  0.2558 -0.0193
 5896W        W22744  13.011   7.146  10.922 -0.2115 -0.0571  0.1845
 5897W        W22745   3.558   0.087   2.860  0.0277 -0.1555 -0.1794
 5898W        W22746  11.386   6.307  13.048  0.3336 -0.2798  0.1093
 5899W        W22747  17.617  16.697  12.325 -0.1587  0.1700 -0.1116
 5900W        W22748  14.914  14.936   0.240  0.1544  0.0337 -0.2167
 5901W        W22749  14.647  10.454   5.047  0.0167  0.0520 -0.3469
 5902W        W22750   7.918   5.478  15.880  0.2657 -0.0991 -0.1342
 5903W        W22751  15.849  13.818  13.789  0.2047  0.0660 -0.0669
 5904W        W22752  14.687   1.438  12.858  0.0987  0.2752 -0.1935
 5905W        W22753   1.413  11.492  13.083 -0.1651 -0.2547 -0.0130
 5906W        W22754   1.750  12.955  14.983  0.1087  0.1152 -0.0874
 5907W        W22755  15.015   5.271   2.515  0.0677 -0.1486  0.2403
 5908W        W22756   3.290   3.314   4.772  0.0075  0.2641  0.0409
 5909W        W22757  13.675  10.214  14.885  0.2228  0.1681 -0.0867
 5910W        W22758  13.732   4.072  16.073  0.1050  0.2408 -0.0231
 5911W        W22759   7.580   0.144  12.706 -0.1194  0.3709  0.1444
 5912W        W22760  11.376   2.493   2.946  0.0356 -0.1944  0.1843
 5913W        W22761  16.240   1.372   4.022 -0.1840  0.1328 -0.0799
 5914W        W22762  13.077   2.193   4.407  0.0797 -0.2419  0.2406
 5915W        W22763  10.395   6.665  16.226  0.0654 -0.1229 -0.0197
 5916W        W22764   9.801   0.468  12.693  0.1161 -0.2722  0.2857
 5917W        W22765   6.617  15.581   2.090 -0.5337  0.1565  0.1257
 5918W        W22766  13.720   8.491   9.901 -0.1649 -0.0421 -0.2229
 5919W        W22767   7.344  12.157   5.383  0.1200 -0.3392 -0.0374
 5920W        W22768  12.756   1.267   0.346  0.1119 -0.0136 -0.3716
 5921W        W22769   5.372  10.947  12.176 -0.0596  0.1103 -0.1115
 5922W        W22770  14.746   8.767  14.410 -0.1488  0.3921  0.1551
 5923W        W22771   7.803   6.806  14.571  0.0572  0.2112 -0.2929
 5924W        W22772   6.210  15.599   3.477  0.0215 -0.1069 -0.4334
 5925W        W22773  15.981  10.409   0.442 -0.2272  0.0310  0.1180
 5926W        W22774  11.627   5.407  15.931 -0.2969 -0.3163 -0.0143
 5927W        W22775   6.903   3.167   4.759 -0.0472 -0.4852 -0.2993
 5928W        W22776  11.376   7.481   4.394  0.0418 -0.3314 -0.2594
 5929W        W22777   2.402   4.175  14.724 -0.0073 -0.0512 -0.2005
 5930W        W22778   1.743  14.446  11.343 -0.0366 -0.0851  0.0512
 5931W        W22779   0.986   4.779   0.315  0.0054 -0.0138 -0.0184
 5932W        W22780  17.207  14.735   2.760  0.0420  0.2039 -0.2882
 5933W        W22781   0.723   3.047   1.604  0.1147 -0.1130  0.1475
 5934W        W22782   5.972   7.342  11.030 -0.4152  0.1400  0.0508
 5935W        W22783   6.951  15.482  15.664 -0.0159  0.0086 -0.0459
 5936W        W22784   6.577  11.013   1.287  0.0634 -0.3673 -0.0862
 5937W        W22785   7.742  13.970   2.325  0.3601  0.0119  0.1056
 5938W        W22786   9.383  16.621   2.588 -0.0848 -0.1121 -0.1419
 5939W        W22787  11.241   4.631   1.348 -0.2679  0.0119 -0.1144
 5940W        W22788   9.401  12.912  13.265 -0.0943 -0.0981  0.3692
 5941W        W22789   4.588   2.318  13.115 -0.3064  0.2695 -0.1531
 5942W        W22790   4.211  15.181  15.127  0.0732  0.0654 -0.0231
 5943W        W22791   7.718   3.360   4.109  0.0727 -0.1607 -0.1094
 5944W        W22792  10.086   7.178   1.739 -0.1061  0.1460  0.2213
 5945W        W22793  11.812   4.967   3.807 -0.2493  0.0668  0.1077
 5946W        W22794  12.748  13.979   0.914  0.1934 -0.0316 -0.1123
 5947W        W22795  16.336  10.218   1.437  0.3029  0.1249  0.2290
 5948W        W22796  10.102  14.445  10.753 -0.0685  0.0096  0.1705
 5949W        W22797   6.742  10.471   3.727 -0.2323 -0.1418 -0.1682
 5950W        W22798  17.659   0.057   4.005  0.0740 -0.0449  0.2526
 5951W        W22799  14.314  17.584   3.838  0.0385 -0.0033 -0.1223
 5952W        W22800  12.241   0.860   4.729  0.1773  0.0493  0.0920
 5953W        W22801   6.166   7.774   5.381  0.5895  0.1092 -0.0724
 5954W        W22802   7.655   5.787   2.346 -0.1013  0.1514  0.0990
 5955W        W22803   1.588  11.701  11.871  0.0095 -0.2549  0.0232
 5956W        W22804  16.437   6.020   6.331 -0.3571  0.0385  0.1610
 5957W        W22805   4.880   9.050  11.637 -0.0127 -0.0378 -0.2016
 5958W        W22806   9.426   1.013  10.642  0.1952  0.1437 -0.0679
 5959W        W22807  13.319  15.950   5.855  0.2028  0.2005 -0.1257
 5960W        W22808   9.907  12.841   1.125 -0.1338 -0.2239 -0.1564
 5961W        W22809   8.519   7.767   2.068  0.2100 -0.0988 -0.2106
 5962W        W22810  16.885  11.910  14.372 -0.1545  0.1105  0.0242
 5963W        W22811   9.248   6.822  15.616  0.0354 -0.0016 -0.3389
 5964W        W22812  16.209   7.458  15.881  0.0797 -0.0360  0.1301
 5965W        W22813  13.571   3.115  14.761 -0.0761  0.3735  0.2206
 5966W        W22814   8.747  11.112   5.290 -0.0422 -0.0277 -0.0700
 5967W        W22815   1.196   2.586   4.588 -0.0616  0.1083 -0.0533
 5968W        W22816   9.385   9.004   2.587  0.1393  0.1602  0.0763
 5969W        W22817  13.295   8.252   5.230 -0.0800  0.2134  0.1424
 5970W        W22818   4.450  12.686  13.558 -0.0154  0.1464  0.0713
 5971W        W22819  10.797  14.857   5.369  0.0062 -0.3700 -0.0357
 5972W        W22820  15.771  16.865   4.398  0.1822  0.0886 -0.0173
 5973W        W22821   6.955   8.253   2.160 -0.1353  0.1389 -0.2041
 5974W        W22822   2.409  15.147   0.206  0.2022 -0.3029 -0.1843
 5975W        W22823   3.878  13.216  10.767 -0.2016  0.4805 -0.1019
 5976W        W22824  14.192   2.213  14.475 -0.0665  0.1366 -0.2209
 5977W        W22825   9.967   7.491   5.320 -0.0332 -0.0100  0.0900
 5978W        W22826   3.340   6.833  14.282 -0.0178  0.1119 -0.0555
 5979W        W22827   4.083   4.340  12.493  0.2220 -0.1396 -0.1495
 5980W        W22828  12.567  14.114  11.815  0.0272  0.1261 -0.2809
 5981W        W22829   9.357   0.860   0.154  0.1591  0.1983 -0.0652
 5982W        W22830   2.355   0.569  13.641  0.0189 -0.1940 -0.1065
 5983W        W22831  15.703   7.280  12.160  0.0846 -0.3141  0.0742
 5984W        W22832   2.900  11.642   0.013  0.2486 -0.0947  0.2117
 5985W        W22833  15.943   5.933   5.272 -0.0279 -0.3352 -0.1333
 5986W        W22834   0.736   8.695  13.012 -0.1561  0.0831 -0.1225
 5987W        W22835   6.880  15.855  12.479  0.0467 -0.4954 -0.0340
 5988W        W22836   2.672   0.231  15.875  0.1296 -0.0142 -0.1717
 5989W        W22837   1.378  15.622   4.336 -0.1199  0.0414  0.0653
 5990W        W22838   2.264  14.646   3.780 -0.0202 -0.0081  0.3049
 5991W        W22839  17.486  17.019   3.718 -0.1370  0.1750  0.1949
 5992W        W22840  15.034   7.885   4.197  0.0335  0.0781  0.1914
 5993W        W22841  14.162  17.228   0.318  0.0607  0.0272  0.1508
 5994W        W22842   4.724  16.340  14.373  0.1254 -0.2746  0.2808
 5995W        W22843  14.637  10.774   3.798  0.0324  0.0395  0.1580
 5996W        W22844  11.022   7.419   3.128 -0.0336  0.2883  0.0672
 5997W        W22845   7.607   8.758   1.102 -0.0651 -0.0164 -0.1325
 5998W        W22846  12.456   0.158  15.710 -0.1692 -0.1157  0.1498
 5999W        W22847   9.290   4.292  15.323  0.0565 -0.1216 -0.1514
 6000W        W22848  16.150  15.491   5.055 -0.0948 -0.2489  0.1291
 6001W        W22849  17.552  10.358  11.785 -0.0619  0.2006  0.1432
 6002W        W22850  15.351   7.448   0.972 -0.0505 -0.0119  0.0780
 6003W        W22851   9.774   1.294  15.665 -0.4183 -0.5121  0.1215
 6004W        W22852   9.021   8.172  15.114  0.2731  0.0740 -0.1526
 6005W        W22853   4.754   3.680   1.495 -0.1463  0.0829 -0.2742
 6006W        W22854   0.116   8.514  15.208  0.1602  0.0414  0.2542
 6007W        W22855   3.030   6.774  13.915 -0.1111  0.0487 -0.3240
 6008W        W22856  16.933  15.333  11.272  0.0550  0.4487  0.0657
 6009W        W22857   5.147  17.010  14.788  0.1926  0.2096  0.1865
 6010W        W22858  15.811  10.004  11.995 -0.0828 -0.1418 -0.0753
 6011W        W22859  16.575   2.321   0.345  0.1544  0.2184  0.2674
 6012W        W22860  15.762   5.580   4.707 -0.2238  0.2954  0.1617
 6013W        W22861   5.993   5.084  14.915  0.0615  0.1006 -0.2199
 6014W        W22862   8.776   1.068   2.407 -0.0667  0.1372 -0.3014
 6015W        W22863   5.764   1.980  13.741  0.2044  0.2582  0.4282
 6016W        W22864   9.482  15.802   3.511 -0.0095  0.0756 -0.0380
 6017W        W22865   9.866   0.975   6.023 -0.0281 -0.4995 -0.1959
 6018W        W22866  16.682   7.417  12.754 -0.0580  0.0320 -0.4795
 6019W        W22867  12.884   2.680  15.143 -0.1941 -0.1996 -0.1513
 6020W        W22868  12.688  12.922   0.039  0.1218  0.2175  0.1044
 6021W        W22869   0.898  13.495  13.030 -0.0626  0.2301 -0.2731
 6022W        W22870  16.544   4.851  12.022 -0.2432 -0.2319 -0.0128
 6023W        W22871   2.053  12.885   3.705  0.0019 -0.1106 -0.0517
 6024W        W22872   2.999   1.800  15.789  0.4876 -0.2078 -0.1875
 6025W        W22873  17.416   1.536  12.446 -0.0639  0.0447  0.3542
 6026W        W22874  12.417   2.434   3.750 -0.1400 -0.2774  0.2162
 6027W        W22875   6.145   1.501   2.206  0.1954 -0.0108  0.0847
 6028W        W22876  14.354   9.480  15.028 -0.0355 -0.0145  0.2007
 6029W        W22877   2.466  13.981  14.631 -0.1022  0.0216 -0.0157
 6030W        W22878  12.563   1.745  11.611 -0.1761  0.2131 -0.0149
 6031W        W22879   9.906  11.344  12.072  0.3029 -0.0501 -0.1897
 6032W        W22880  13.923   0.498  15.683 -0.1998  0.1289 -0.1123
 6033W        W22881   8.282  15.248   4.221  0.1087 -0.0055  0.1759
 6034W        W22882   2.190  10.284  11.687  0.0623  0.0803 -0.1901
 6035W        W22883  14.758  10.112   5.927 -0.0397  0.0740  0.1855
 6036W        W22884   9.839  17.372   3.886 -0.1944 -0.0821 -0.3145
 6037W        W22885   2.162   2.936  14.935 -0.1508 -0.1127 -0.1868
 6038W        W22886   3.365  16.147   4.695 -0.2910 -0.1016 -0.2410
 6039W        W22887   7.854  11.917   4.807  0.0550 -0.0374 -0.1136
 6040W        W22888   7.317   0.248  15.877 -0.3599  0.3463  0.0526
 6041W        W22889  15.526  16.275  16.506  0.2772  0.3638 -0.1078
 6042W        W22890  16.461  13.779   3.691 -0.3075  0.1520  0.0765
 6043W        W22891   0.789   1.456  13.834  0.1436 -0.0364 -0.0412
 6044W        W22892   1.383  11.253  14.574 -0.0911  0.0687  0.1512
 6045W        W22893  13.737   6.282   1.922 -0.0324  0.0786  0.0269
 6046W        W22894  14.169   6.893  12.413  0.0921  0.0113  0.1692
 6047W        W22895   5.639   4.151  11.508  0.0445 -0.0929  0.0499
 6048W        W22896  11.946  12.723   1.815 -0.2957 -0.2116 -0.0270
 6049W        W22897   2.231  12.675  12.527  0.2414 -0.0860  0.0091
 6050W        W22898  12.775   9.904  12.263  0.0028 -0.2662  0.3596
 6051W        W22899  10.145   3.796   4.633  0.0954 -0.0125 -0.0237
 6052W        W22900   0.107   3.623   1.440  0.2447 -0.0895 -0.0614
 6053W        W22901  12.921   2.863  12.581  0.0736  0.1878  0.1737
 6054W        W22902  10.065   2.889  11.666  0.2429  0.3797 -0.0156
 6055W        W22903   7.282  16.956  12.890 -0.1122  0.1956 -0.1707
 6056W        W22904  12.366   1.665   3.246 -0.2071 -0.0025 -0.1718
 6057W        W22905   9.127  16.626   5.770  0.0298  0.1015 -0.1049
 6058W        W22906   9.772   4.141  11.724 -0.1136 -0.0251 -0.0946
 6059W        W22907  11.670   2.708  14.529 -0.1475 -0.0112  0.0992
 6060W        W22908  11.254  17.072  12.126  0.0999  0.0793 -0.3677
 6061W        W22909   2.232  14.195   0.685 -0.1048  0.0524 -0.0290
 6062W        W22910   9.337  10.750   0.947 -0.1302 -0.0797 -0.1030
 6063W        W22911  13.997  12.838  13.967 -0.0013 -0.0260  0.2145
 6064W        W22912   2.932   5.442  16.327 -0.0308  0.1904 -0.1995
 6065W        W22913  10.535  12.550   2.111 -0.1075  0.1664  0.0353
 6066W        W22914  12.382  16.080   5.303  0.1544  0.0869  0.0832
 6067W        W22915   0.537  15.501   5.288  0.4149  0.2074 -0.2442
 6068W        W22916  11.697   4.899  15.584 -0.0662 -0.2409  0.1868
 6069W        W22917  16.176  11.052   5.641  0.1885 -0.0133  0.0620
 6070W        W22918   4.121   1.676   5.968 -0.0777 -0.1359 -0.1707
 6071W        W22919  12.078  16.073  12.135 -0.0914  0.0359 -0.2771
 6072W        W22920  17.265  14.634   3.323  0.1070 -0.1384  0.3290
 6073W        W22921   2.329   6.360  11.958 -0.0016 -0.0568  0.0784
 6074W        W22922   1.831   5.618   4.831  0.0379  0.0099 -0.0444
 6075W        W22923   0.124   7.719   1.201  0.0311 -0.1199  0.1708
 6076W        W22924  16.881   9.453   3.094  0.0915 -0.1484  0.4350
 6077W        W22925   5.721   8.985   5.462 -0.0476 -0.0125 -0.2215
 6078W        W22926   1.481   4.657  14.442 -0.1365  0.0355 -0.1691
 6079W        W22927   3.479   1.215   2.789 -0.1526 -0.2013  0.2461
 6080W        W22928  13.641  13.143  14.163  0.0947  0.0800  0.2240
 6081W        W22929   0.943  17.133  16.006  0.2108  0.3644 -0.0336
 6082W        W22930  14.195   2.811  15.866 -0.0244  0.1312  0.1832
 6083W        W22931   7.260   1.657   3.053 -0.2615 -0.3705  0.0663
 6084W        W22932  13.536   6.010  15.535  0.0205  0.1636  0.2819
 6085W        W22933  12.835  10.955  14.795  0.0723 -0.1548  0.0255
 6086W        W22934   3.802  12.165  13.863 -0.1492 -0.1684  0.0206
 6087W        W22935  11.323   2.046  11.337  0.3063  0.3809  0.0661
 6088W        W22936   0.970  14.398   4.973  0.0492  0.0121 -0.0596
 6089W        W22937   9.509  15.452  13.615  0.0297  0.4017 -0.3338
 6090W        W22938  17.105   7.987  15.146 -0.3875 -0.1874  0.0092
 6091W        W22939   4.267   0.777  13.741  0.2794 -0.2205 -0.0587
 6092W        W22940   8.142  10.479   0.367 -0.0764  0.1588  0.1010
 6093W        W22941  15.190   1.636  14.921 -0.0314  0.2424  0.0627
 6094W        W22942   9.889  14.980  14.186 -0.0273 -0.1522 -0.2291
 6095W        W22943   7.062  13.848   5.591  0.1768 -0.0747  0.1826
 6096W        W22944   7.942   3.281   5.045 -0.1125 -0.1574  0.3394
 6097W        W22945   2.296   6.394  15.083 -0.1237  0.0816  0.0576
 6098W        W22946   9.048   4.128  11.003 -0.2373  0.1950 -0.1798
 6099W        W22947   7.078  14.107   0.296  0.1837  0.0576 -0.0205
 6100W        W22948   9.333  17.405  12.065 -0.0717 -0.1193  0.0218
 6101W        W22949   8.505   8.933  15.025 -0.0115  0.0287 -0.4066
 6102W        W22950   3.901   0.341  11.776 -0.0306  0.1592 -0.1485
 6103W        W22951   3.124   4.531   2.693  0.2995 -0.3618 -0.0216
 6104W        W22952   1.871   7.930   2.519  0.3770  0.0503 -0.0589
 6105W        W22953   9.883  15.274  10.519 -0.1380  0.0493  0.0067
 6106W        W22954  16.429  10.500   2.302  0.0843 -0.2477  0.5360
 6107W        W22955  14.282  16.252  12.512  0.2895 -0.0837 -0.1154
 6108W        W22956   8.398  16.029  16.546 -0.1044  0.1548 -0.0193
 6109W        W22957  11.233   8.728   3.550 -0.0039  0.4730  0.0731
 6110W        W22958  10.439  15.455   5.269 -0.2912  0.0121 -0.1116
 6111W        W22959  16.078   7.134   5.008  0.0140  0.1763 -0.0054
 6112W        W22960   9.482  12.969  15.975  0.1921 -0.1489  0.1364
 6113W        W22961   9.460  14.269   0.365  0.1835 -0.1595 -0.1382
 6114W        W22962  11.747  10.708  12.344 -0.1167  0.1545  0.0206
 6115W        W22963   2.155   2.112  15.378 -0.0374 -0.2088  0.0850
 6116W        W22964  14.951   2.343  15.936  0.0667 -0.1211  0.1382
 6117W        W22965  17.057   0.853   5.294  0.2074 -0.0339 -0.0320
 6118W        W22966  15.168   5.427   0.697 -0.0486 -0.3093  0.1552
 6119W        W22967  16.499  15.103  14.875  0.0174  0.1252 -0.1177
 6120W        W22968   6.600  14.157  15.478  0.2174  0.0937  0.0980
 6121W        W22969  14.032  11.269   4.692 -0.1575 -0.0248 -0.2416
 6122W        W22970   4.335   9.990   0.089  0.2501  0.1058  0.1709
 6123W        W22971   7.802  15.223  14.943 -0.0834 -0.0213  0.1440
 6124W        W22972   5.592   5.407  13.422 -0.1528 -0.0196  0.0509
 6125W        W22973  16.527  16.706  12.898 -0.0194  0.3532 -0.0280
 6126W        W22974   7.781   2.167   0.473 -0.2907  0.2514  0.2182
 6127W        W22975   2.101  13.709  15.587 -0.0377  0.0469 -0.1200
 6128W        W22976   8.886  17.369   2.282  0.0065 -0.2843 -0.0303
 6129W        W22977   8.066   2.950   0.510 -0.1802 -0.0872 -0.2143
 6130W        W22978   7.201  14.868  15.359  0.0039 -0.1528 -0.3343
 6131W        W22979  15.913   7.775   2.928  0.0588 -0.2746  0.1339
 6132W        W22980  15.199   7.293  12.006  0.0665 -0.0282  0.1012
 6133W        W22981   4.179  13.045   2.093  0.1648  0.0634  0.1940
 6134W        W22982  17.030   0.474   2.919  0.3164 -0.1426  0.0834
 6135W        W22983   9.011  10.228   3.275 -0.2000 -0.2036  0.1441
 6136W        W22984   7.310   0.042  11.876 -0.0121 -0.0230 -0.0455
 6137W        W22985  11.084   1.547   2.633  0.2236 -0.2078 -0.1316
 6138W        W22986  11.535  14.509  16.614  0.0704  0.2268  0.0457
 6139W        W22987   9.277   1.302  15.562  0.0816 -0.0743 -0.2443
 6140W        W22988   8.477   4.928  13.387  0.0261 -0.1950  0.0292
 6141W        W22989   5.135   9.190  15.436  0.1623  0.0847 -0.2667
 6142W        W22990  10.457   9.613  13.136 -0.0207 -0.0150 -0.1879
 6143W        W22991  10.871  13.448  10.747 -0.1337 -0.3180  0.0629
 6144W        W22992   6.652  12.238   2.009 -0.1313 -0.0289 -0.2566
 6145W        W22993   6.580  15.374   3.752 -0.0844  0.0212  0.1160
 6146W        W22994   5.416  10.329  12.978 -0.0664  0.1569 -0.0847
 6147W        W22995   6.161  14.551   1.322 -0.0109 -0.1899 -0.2455
 6148W        W22996   4.901   3.372   3.875  0.1389  0.0456 -0.1053
 6149W        W22997   2.588  12.046  13.232 -0.3206 -0.0339 -0.0847
 6150W        W22998   9.807  12.800  14.968  0.4918  0.0996  0.0070
 6151W        W22999  12.836   9.007   1.573 -0.4001 -0.1896 -0.0127
 6152W        W23000  13.270  17.216  12.849 -0.0716 -0.0075 -0.5172
 6153W        W23001  17.469   0.937  14.292 -0.2731 -0.0181 -0.0904
 6154W        W23002   9.718  15.687  14.554 -0.3627  0.0063 -0.0138
 6155W        W23003   4.727  10.829  16.608  0.2284  0.2800  0.1783
 6156W        W23004   2.885   0.990  15.703  0.0829  0.1119  0.0441
 6157W        W23005   1.454  16.444  11.708  0.2461 -0.2633 -0.0310
 6158W        W23006  16.719  15.137  15.315 -0.2746 -0.2028 -0.3437
 6159W        W23007  12.854   7.703  13.867  0.1792  0.0055  0.0318
 6160W        W23008  14.689  12.704   2.054 -0.1430  0.1365 -0.0579
 6161W        W23009  11.865   9.260   4.978 -0.3959 -0.0382 -0.0056
 6162W        W23010   1.752   9.552   3.141 -0.0455 -0.3557  0.2304
 6163W        W23011   6.533   3.811  12.034  0.1584 -0.1530  0.0978
 6164W        W23012  13.033  13.092  15.859  0.3530 -0.2901 -0.1292
 6165W        W23013   8.623   6.693  15.190  0.0445 -0.0706 -0.0415
 6166W        W23014  15.947   5.558  13.384 -0.0124 -0.1129 -0.0941
 6167W        W23015   4.089  13.859   1.482 -0.0162 -0.2333  0.0734
 6168W        W23016   9.983   1.326  12.401 -0.1593 -0.0995 -0.0117
 6169W        W23017  11.553   4.718   4.221  0.1100  0.2364 -0.0730
 6170W        W23018  14.547   7.855   4.070  0.0724  0.0169  0.2151
 6171W        W23019   7.414   7.661  14.500  0.3123  0.0809 -0.0607
 6172W        W23020   6.755   0.226   4.625 -0.1373  0.0361 -0.1110
 6173W        W23021   3.538  12.719  11.737 -0.0616 -0.2025  0.2736
 6174W        W23022  11.879   9.217  16.337  0.1062  0.3410  0.3312
 6175W        W23023   1.815  17.276  11.728 -0.3835  0.0300  0.2060
 6176W        W23024   1.991  16.270   4.757  0.0358  0.1313  0.2861
 6177W        W23025   4.303  16.606  14.200 -0.0438 -0.0737  0.0796
 6178W        W23026   6.356   9.965  11.158 -0.1240  0.0129 -0.0699
 6179W        W23027   8.432  12.095  14.807 -0.1240  0.2852 -0.2948
 6180W        W23028  16.989  15.848  12.580  0.0035  0.0373 -0.1459
 6181W        W23029  11.991  10.211   2.981  0.1939  0.2076  0.0339
 6182W        W23030   7.943  16.280  10.594 -0.2171 -0.0703  0.0433
 6183W        W23031   5.460   2.551  12.032 -0.4468 -0.2889  0.0918
 6184W        W23032   1.542  15.901   2.075  0.1689 -0.1185  0.0802
 6185W        W23033   1.994  16.750   3.631 -0.3347  0.1614 -0.1932
 6186W        W23034   5.257   0.515   0.839  0.1605  0.0328 -0.1434
 6187W        W23035   0.133   0.252   2.692 -0.1227 -0.4522 -0.0800
 6188W        W23036   9.858   3.250  11.429 -0.0666 -0.0742 -0.0533
 6189W        W23037   7.905   9.710   4.873  0.1980 -0.1831  0.2293
 6190W        W23038  14.361  12.418   1.610  0.2588  0.0339 -0.2562
 6191W        W23039  10.392  11.633   0.011  0.1325  0.2700 -0.1151
 6192W        W23040   2.412  13.533   0.234 -0.2845  0.3081  0.0760
 6193W        W23041   3.203   1.031   2.219 -0.0273  0.0849  0.0006
 6194W        W23042  16.256  16.230   2.334 -0.2904  0.3794 -0.1582
 6195W        W23043  16.193   5.140  13.181  0.2579 -0.1680  0.0506
 6196W        W23044   3.548   7.397  16.545 -0.2333  0.1496  0.0819
 6197W        W23045  17.064   6.178   3.614  0.0084 -0.1171  0.1811
 6198W        W23046   1.234   4.878  13.561 -0.2101 -0.1149 -0.0154
 6199W        W23047   3.817   9.544  12.381 -0.2939 -0.1828 -0.0201
 6200W        W23048  11.165   6.196  12.551  0.1135 -0.0289  0.1543
 6201W        W23049  11.643  14.903   1.504  0.0314 -0.3896 -0.1768
 6202W        W23050   6.197   4.210   3.306 -0.6793 -0.1422 -0.0952
 6203W        W23051   6.728  14.634  13.200 -0.0597  0.2193 -0.0414
 6204W        W23052   9.807   7.195   5.689  0.0705  0.0891  0.2232
 6205W        W23053   1.630   6.809   3.013 -0.0779  0.1579  0.3222
 6206W        W23054  12.385   0.252   2.960 -0.0229 -0.0615 -0.1688
 6207W        W23055   0.153  17.358  15.775  0.1002  0.0746  0.0299
 6208W        W23056  12.649  10.383  14.278 -0.3140  0.0768 -0.3125
 6209W        W23057  12.475  17.104  16.259  0.3386  0.0986 -0.0221
 6210W        W23058   3.776  13.594  14.182  0.1670 -0.1008 -0.2136
 6211W        W23059  16.820  17.104  12.731 -0.3170  0.1187  0.0731
 6212W        W23060  10.256  11.057   4.366 -0.1834  0.0059 -0.0695
 6213W        W23061  14.251  15.006  15.196 -0.1131 -0.2368  0.0152
 6214W        W23062  15.812   2.295  13.925 -0.3266 -0.3022  0.0482
 6215W        W23063   9.574  12.824   0.676  0.0596 -0.0987  0.2904
 6216W        W23064  14.482   1.026   2.424  0.0610  0.2154 -0.0223
 6217W        W23065  15.312   7.612  13.468  0.1643  0.0214  0.1421
 6218W        W23066   7.888   7.494  12.064 -0.3684  0.1238 -0.1312
 6219W        W23067   3.406   8.409   4.191 -0.5574  0.2446  0.2201
 6220W        W23068   0.799   2.791   0.528  0.3239 -0.2264 -0.1720
 6221W        W23069   8.975   7.788   2.854 -0.1228  0.1254  0.3383
 6222W        W23070   5.079   9.298   5.009  0.1308 -0.0477  0.2112
 6223W        W23071   6.909   1.140   5.370 -0.0087  0.2348 -0.0307
 6224W        W23072   8.163  13.115   5.477 -0.1522  0.0210  0.1537
 6225W        W23073  16.001  12.665  15.371  0.0348 -0.0654  0.0037
 6226W        W23074  14.212  11.424  14.866  0.0709  0.0512 -0.0453
 6227W        W23075  10.572  15.157   1.365  0.1755 -0.1410  0.0275
 6228W        W23076   6.999  12.956  11.233 -0.2152  0.0978 -0.0424
 6229W        W23077  14.659   9.835  11.276 -0.1188  0.0021 -0.1567
 6230W        W23078  12.543   7.821  11.975 -0.0009 -0.0152 -0.0081
 6231W        W23079  17.369   5.456  13.303 -0.1061 -0.1192  0.0773
 6232W        W23080   3.210   9.501  11.638 -0.1207  0.0276 -0.0471
 6233W        W23081  10.534   3.805  12.514  0.3727  0.1666  0.3980
 6234W        W23082   1.103   4.110   3.537  0.1919  0.1287 -0.1739
 6235W        W23083  14.428   2.789   4.714  0.0694 -0.0782  0.2732
 6236W        W23084   9.507  15.779  15.359  0.1069  0.0533  0.0771
 6237W        W23085  16.955  13.056   0.590 -0.0105  0.2339 -0.0888
 6238W        W23086  16.931   0.832   4.561 -0.1395 -0.3683 -0.1902
 6239W        W23087   8.042   3.291  15.899  0.2168 -0.3559 -0.0026
 6240W        W23088  12.048  11.058   4.094 -0.1726 -0.3084 -0.0246
 6241W        W23089  16.204  15.893  15.507  0.1894  0.0037 -0.0692
 6242W        W23090   6.196  17.174   1.480  0.2723 -0.0299 -0.0800
 6243W        W23091   4.476  15.646  11.885  0.0835  0.1245 -0.0928
 6244W        W23092  11.883   5.937   0.840  0.3271  0.0957  0.1928
 6245W        W23093   9.311   5.769   1.703 -0.1002 -0.0297 -0.0647
 6246W        W23094   5.084   6.053  15.474  0.0522 -0.2882  0.0975
 6247W        W23095   2.502   4.444   4.490  0.0172 -0.0657 -0.2148
 6248W        W23096   5.934  16.639   0.263 -0.3677  0.1964 -0.2852
 6249W        W23097  12.515   9.983   1.873  0.0846  0.0375 -0.3455
 6250W        W23098  10.420   0.737   4.862  0.1159 -0.2358 -0.0628
 6251W        W23099  10.935   7.474  13.608 -0.1161 -0.2954  0.1775
 6252W        W23100   6.186   5.721   1.752  0.0352 -0.2187 -0.2164
 6253W        W23101  17.267   6.940   3.400 -0.0514  0.0347 -0.1191
 6254W        W23102  13.590   8.568  12.862 -0.0268 -0.2344  0.0802
 6255W        W23103   4.380   4.140   4.311 -0.0220 -0.1980  0.5182
 6256W        W23104  15.147   8.274   1.805 -0.0128 -0.4484  0.1280
 6257W        W23105   7.180   4.440  15.771  0.4008  0.2571 -0.2940
 6258W        W23106  11.251  14.559   3.749  0.0850 -0.1373 -0.2264
 6259W        W23107  14.709  13.072   0.087 -0.0211  0.0312 -0.2132
 6260W        W23108   2.666   7.547   1.868  0.0791  0.1926 -0.1263
 6261W        W23109  11.236   3.216   2.614  0.4132  0.0517 -0.4094
 6262W        W23110   0.069   5.468  13.607 -0.0766 -0.0787  0.0922
 6263W        W23111   0.805   4.976  15.687  0.1230 -0.1415 -0.0137
 6264W        W23112   9.011   5.034  15.280  0.0224  0.0015 -0.0259
 6265W        W23113   6.461   0.908  15.435 -0.0571  0.2640 -0.2524
 6266W        W23114   2.271  16.387   1.070  0.0659 -0.1968  0.2097
 6267W        W23115   9.504  15.136   2.718 -0.1922  0.5788  0.2828
 6268W        W23116  10.305   2.355  11.206 -0.0778 -0.1062  0.3694
 6269W        W23117   9.067  10.799  11.789  0.0352 -0.2856 -0.1302
 6270W        W23118  14.023   3.427  13.849  0.1217  0.0877  0.0296
 6271W        W23119   0.188   0.721   5.671 -0.0002 -0.3201 -0.1302
 6272W        W23120   7.838  14.017   0.961  0.0137  0.2927  0.0062
 6273W        W23121   4.138  11.481  15.069 -0.1629 -0.2751 -0.0307
 6274W        W23122   0.549   4.449   1.175  0.2368 -0.4910  0.2491
 6275W        W23123   2.766  13.075   4.187 -0.1142 -0.0795  0.0881
 6276W        W23124   9.510  10.035   5.426 -0.1206  0.0764 -0.0614
 6277W        W23125   5.423   1.994  14.156 -0.1507  0.0904  0.1273
 6278W        W23126   3.747   1.234   4.596  0.0603 -0.1649  0.1573
 6279W        W23127   3.283   9.865   1.270  0.0749  0.3769  0.0927
 6280W        W23128  12.480   6.429   4.991  0.0889 -0.4218  0.1273
 6281W        W23129  17.114  13.211   4.690  0.0543 -0.2408  0.1402
 6282W        W23130   0.076  12.636   0.301  0.1435 -0.0290 -0.0704
 6283W        W23131  12.669   1.913  15.875  0.0279  0.1368  0.2264
 6284W        W23132  12.771   6.406  14.521  0.1966 -0.0565 -0.2084
 6285W        W23133  13.369   9.544  15.655 -0.0265  0.1087 -0.1003
 6286W        W23134   4.915  16.527  14.844 -0.0969 -0.0439 -0.0497
 6287W        W23135   1.656   4.951  14.783  0.0320  0.0540 -0.1478
 6288W        W23136   8.341  12.329   0.789  0.0652 -0.0541  0.5278
 6289W        W23137   0.996  10.163   0.209 -0.1868  0.1332  0.2622
 6290W        W23138   5.422   4.302  16.513  0.1296  0.0070  0.2514
 6291W        W23139  14.883  13.879   0.175  0.0266 -0.0735  0.0553
 6292W        W23140   8.079  11.996   3.067  0.2549  0.0015 -0.2299
 6293W        W23141  12.556   3.329  15.750  0.0398 -0.1811 -0.4474
 6294W        W23142  14.233   3.436   4.165 -0.1027 -0.0246 -0.4129
 6295W        W23143  15.100  10.217   1.183 -0.1718  0.2638 -0.3817
 6296W        W23144   4.745   5.720  16.292 -0.1092  0.3349  0.2492
 6297W        W23145  12.867  15.387  12.511  0.2653 -0.1015  0.0544
 6298W        W23146  11.010   9.642   4.614 -0.1446  0.1014 -0.0401
 6299W        W23147   1.544   5.183  15.266 -0.0711  0.1296 -0.0512
 6300W        W23148  12.159  12.532   2.881 -0.1861  0.1015  0.2485
 6301W        W23149  16.137   8.561  13.988  0.2260  0.1890  0.1160
 6302W        W23150   7.265   9.826   5.136  0.1030 -0.2262  0.2904
 6303W        W23151  11.992   0.843   3.701 -0.1039 -0.1560 -0.1235
 6304W        W23152  16.659   4.516  13.334 -0.0108 -0.0470  0.0168
 6305W        W23153   6.415  10.383   2.187  0.0223  0.2556  0.0704
 6306W        W23154   2.257  13.757  13.816  0.0194 -0.1590  0.4029
 6307W        W23155   7.651  16.031   1.081  0.3571  0.1197 -0.1649
 6308W        W23156   8.523  10.404  12.879 -0.1333  0.1579 -0.0108
 6309W        W23157  13.266   1.054   3.768  0.2468 -0.1687 -0.0623
 6310W        W23158  16.746   7.256   0.978 -0.1413  0.3056  0.1478
 6311W        W23159  12.000   7.624  16.447 -0.1185 -0.1316 -0.1262
 6312W        W23160  13.737  15.709   1.761 -0.0154  0.1144 -0.3192
 6313W        W23161  13.669  13.304   1.710 -0.0256 -0.3755  0.2863
 6314W        W23162   5.282   4.959   0.519 -0.2099 -0.0342 -0.0156
 6315W        W23163   2.981   4.409   0.167 -0.0334 -0.1726  0.1740
 6316W        W23164   9.162  11.446  11.487 -0.3659  0.0612 -0.0069
 6317W        W23165   3.990  16.405  11.260  0.1399  0.1259  0.3680
 6318W        W23166  14.882  12.751  14.824 -0.3042  0.1541 -0.1409
 6319W        W23167  12.939  14.099   3.202 -0.0812  0.1040 -0.0654
 6320W        W23168   7.274   8.193  16.374 -0.3086  0.3558 -0.1831
 6321W        W23169  12.610   3.400  16.262  0.2388  0.0027  0.0250
 6322W        W23170   3.372   5.184  15.381 -0.0011  0.1812 -0.2123
 6323W        W23171  13.735  12.439   5.365 -0.0100  0.0674 -0.1018
 6324W        W23172   0.409  14.728   2.789 -0.1069  0.1569 -0.0176
 6325W        W23173  11.582   2.374   4.030  0.4587  0.2971  0.0566
 6326W        W23174   4.638   8.525  12.631  0.1584 -0.3713  0.1594
 6327W        W23175   7.312   4.560  15.155  0.1031  0.1279  0.2380
 6328W        W23176  17.298   0.174  13.516 -0.0172 -0.0882  0.2373
 6329W        W23177   0.535  15.702  13.654 -0.4253 -0.0529  0.2347
 6330W        W23178  11.860  16.378   0.745 -0.0155 -0.2048  0.0086
 6331W        W23179  15.159  16.524   3.570 -0.0469 -0.0911  0.2343
 6332W        W23180  13.757   5.076   0.169 -0.2667  0.1284  0.2263
 6333W        W23181   8.134   3.976  16.554  0.1951  0.0955  0.1299
 6334W        W23182   3.249   1.490   1.878  0.1833 -0.1443  0.0376
 6335W        W23183  14.371   2.503   2.389  0.1650  0.0667  0.0154
 6336W        W23184   6.818   7.746   0.830 -0.2776  0.1416  0.1993
 6337W        W23185  17.447   7.875   3.115 -0.1319 -0.1110  0.0592
 6338W        W23186   7.002   7.902   0.069  0.1330  0.0265  0.1406
 6339W        W23187  14.998  10.651   4.803  0.2455 -0.0641 -0.1491
 6340W        W23188   0.769  10.740   1.104 -0.4143  0.1078  0.0052
 6341W        W23189   0.439  14.130   4.103  0.0265 -0.1595 -0.1186
 6342W        W23190  13.614  12.516  15.216  0.4016  0.0605 -0.1381
 6343W        W23191   1.409  11.570   3.469  0.0002  0.2780 -0.0867
 6344W        W23192   1.612   9.533  11.722  0.4655  0.1056 -0.1021
 6345W        W23193  11.561   2.044   3.140  0.2347  0.2995 -0.2271
 6346W        W23194   3.382  12.362  16.461 -0.4217  0.0860  0.0047
 6347W        W23195  17.032   5.326   4.285  0.0169 -0.5035  0.1763
 6348W        W23196   7.349   6.197   3.144 -0.0623  0.1249 -0.1323
 6349W        W23197   7.123   2.382   2.645  0.0610  0.1714 -0.0165
 6350W        W23198   8.467   9.417   3.809 -0.1616  0.0989  0.2456
 6351W        W23199  14.146   8.750  14.587 -0.0938 -0.2039  0.1036
 6352W        W23200  12.148  12.920  13.268 -0.2356  0.2861  0.1444
 6353W        W23201  12.710   4.510  13.053 -0.4945 -0.1359  0.0416
 6354W        W23202  13.528   5.200  15.133  0.1255 -0.0274 -0.1266
 6355W        W23203   4.927  10.555  15.765 -0.1596  0.2716  0.0564
 6356W        W23204  13.749   8.056  11.960 -0.1036 -0.0785 -0.0875
 6357W        W23205   9.909  11.641  12.568 -0.1473  0.0067 -0.1332
 6358W        W23206   1.370  16.082  10.523 -0.0642 -0.0447 -0.0876
 6359W        W23207   6.911  13.615   6.001  0.0152 -0.0454 -0.1503
 6360W        W23208   8.171  16.366  14.530  0.1429  0.2315 -0.1768
 6361W        W23209  10.919   4.712   3.109  0.2627  0.1926 -0.3208
 6362W        W23210   1.580   6.947   4.815  0.0626  0.0663  0.0097
 6363W        W23211   6.709   6.502   2.263  0.0011 -0.1676  0.2225
 6364W        W23212  14.217   2.421  11.518 -0.0434  0.0530 -0.1514
 6365W        W23213   4.021  14.151   3.442 -0.3308 -0.3014 -0.2698
 6366W        W23214   2.493   9.380   3.453  0.2794  0.1639  0.3770
 6367W        W23215  16.698  11.983   1.059  0.1045 -0.0107 -0.3834
 6368W        W23216  10.330  15.708   0.632  0.1585 -0.0675 -0.2691
 6369W        W23217   7.245  14.516   4.829 -0.1181 -0.1110  0.0481
 6370W        W23218  15.247  15.611   4.893 -0.1857 -0.0594 -0.3356
 6371W        W23219  13.444  14.822   0.819 -0.1342 -0.1681  0.0800
 6372W        W23220  13.133  15.420  14.005  0.1311  0.0377 -0.1212
 6373W        W23221  16.031   6.015  11.713 -0.3425  0.0750 -0.2871
 6374W        W23222  16.979  11.300  12.196 -0.0225 -0.2716 -0.0789
 6375W        W23223   8.633  12.537  14.528  0.1259  0.2068  0.2315
 6376W        W23224   5.715   0.796  11.700  0.1030 -0.3000 -0.0883
 6377W        W23225   6.480   0.612   3.792  0.0535 -0.1540  0.0479
 6378W        W23226  15.681  12.652   1.748 -0.0317  0.1027 -0.0067
 6379W        W23227   8.011   2.370   2.095  0.0533  0.0545 -0.1594
 6380W        W23228  15.532  14.316   0.576  0.0431  0.1391 -0.0984
 6381W        W23229   7.672   3.418  12.469  0.0289  0.2007  0.1606
 6382W        W23230   3.980   3.932  14.980 -0.0279 -0.1151  0.1804
 6383W        W23231  14.964   6.804  11.802 -0.0544  0.0288  0.1732
 6384W        W23232   3.736   6.437  12.004  0.1262 -0.0731 -0.0246
 6385W        W23233   3.812   3.563   0.280 -0.0120  0.1442  0.2316
 6386W        W23234   9.017  11.262  15.701 -0.1880  0.3586 -0.0850
 6387W        W23235   3.620   5.284   2.118 -0.3766 -0.0852  0.0604
 6388W        W23236  12.390   3.074   2.019 -0.0933  0.0246  0.1174
 6389W        W23237   1.974  10.083  15.309  0.2070 -0.0537 -0.0676
 6390W        W23238   7.741  13.889   5.201  0.2847 -0.2699 -0.3747
 6391W        W23239   7.982  12.392   1.248  0.0643  0.2468 -0.2504
 6392W        W23240   1.249   9.052  14.115 -0.1785  0.0468 -0.1925
 6393W        W23241   2.601   2.170  11.200  0.1021 -0.1916  0.2497
 6394W        W23242  11.084  12.709  16.079  0.1774  0.3044  0.1360
 6395W        W23243   6.240  16.560   4.448  0.2141  0.1204  0.2600
 6396W        W23244   5.636   6.533   3.002  0.2429  0.0841 -0.0314
 6397W        W23245   2.300   2.684  11.960 -0.0492 -0.0617 -0.1936
 6398W        W23246  16.304  13.984  14.899 -0.0625 -0.1012 -0.3030
 6399W        W23247   4.084  15.360  12.061  0.1402  0.0825 -0.4970
 6400W        W23248   6.971   3.601   4.615 -0.0120  0.1134 -0.0808
 6401W        W23249   3.512   6.160   3.284  0.2770  0.2845 -0.2934
 6402W        W23250   5.709  13.537   6.029 -0.1628  0.1107  0.2256
 6403W        W23251   7.760  15.808   5.326 -0.0038  0.0012  0.1811
 6404W        W23252   5.891  11.287  14.728  0.0989 -0.2745 -0.0652
 6405W        W23253   3.987   6.423   3.291  0.1138  0.1657 -0.1621
 6406W        W23254  16.145  16.263   0.908 -0.2317  0.2875  0.0056
 6407W        W23255   8.608  17.649   3.779 -0.0006  0.0506 -0.2430
 6408W        W23256   3.403  12.613  15.704 -0.1492  0.0238 -0.1705
 6409W        W23257   3.922  12.341  12.395 -0.0734 -0.3037  0.0690
 6410W        W23258   2.259   8.741   2.912  0.1182 -0.1666  0.2879
 6411W        W23259   1.945   1.588   0.956  0.0979 -0.1833  0.0950
 6412W        W23260  12.514   2.320  16.035  0.1145  0.2148 -0.2240
 6413W        W23261  16.240  16.086   2.867  0.1825 -0.0288  0.0025
 6414W        W23262   9.836   6.347   2.125  0.0035  0.0813 -0.1540
 6415W        W23263  16.922   4.799  13.767 -0.1014  0.3093 -0.0372
 6416W        W23264  10.913  15.995  13.113  0.1341  0.1447 -0.0226
 6417W        W23265  14.770  13.613  12.291  0.1182  0.2059 -0.3921
 6418W        W23266  17.670   6.387  16.343 -0.1016 -0.1890  0.1389
 6419W        W23267   0.720  17.600  10.867 -0.3717 -0.1366 -0.2681
 6420W        W23268  10.169  15.727   4.002  0.2042 -0.2992 -0.2810
 6421W        W23269  10.402   8.886  15.140  0.0962 -0.1650  0.1314
 6422W        W23270   6.416   9.368  13.160 -0.2169 -0.6070 -0.1453
 6423W        W23271  12.181  10.757   1.223 -0.0159 -0.1410  0.3682
 6424W        W23272   1.442   0.092  12.817 -0.0495  0.1300 -0.3900
 6425W        W23273   8.591   6.072   2.380  0.0615 -0.2911 -0.0382
 6426W        W23274   1.972   1.840   3.858 -0.1508 -0.1426  0.0614
 6427W        W23275   1.627   8.577   1.884 -0.1065 -0.0024 -0.1531
 6428W        W23276  10.246   8.093   3.999  0.0582 -0.1864 -0.1996
 6429W        W23277   0.900   2.985   4.464  0.1816  0.1561 -0.0784
 6430W        W23278  14.840   4.688  16.082 -0.5713 -0.0592 -0.0462
 6431W        W23279   8.903  16.181   4.308  0.1668 -0.0499  0.3053
 6432W        W23280   5.411   8.597  11.677 -0.0406 -0.0064  0.0197
 6433W        W23281  12.204  12.654   0.438  0.0586 -0.2156 -0.1096
 6434W        W23282  12.039   2.620   4.116  0.0916  0.0646  0.0062
 6435W        W23283   7.764  10.135  12.464  0.1612 -0.0626 -0.0900
 6436W        W23284  14.415  10.430   4.636 -0.0030  0.1282 -0.0781
 6437W        W23285   4.240   7.741  13.085 -0.1985  0.2426 -0.0808
 6438W        W23286   4.697   1.240   2.375 -0.0068  0.2994  0.0730
 6439W        W23287  17.161  14.807   0.721  0.1519  0.0945 -0.0101
 6440W        W23288   0.820   6.690   0.990  0.1743  0.1243  0.1986
 6441W        W23289   5.748   9.882  12.922  0.2033  0.1504  0.1513
 6442W        W23290   4.384  15.561  15.738 -0.0388 -0.0970 -0.0137
 6443W        W23291  16.548  13.835   4.173 -0.0749  0.0802  0.1442
 6444W        W23292   3.668   5.188  12.395 -0.1728  0.4103  0.0212
 6445W        W23293   7.541  14.200   3.429  0.5305  0.4444  0.1779
 6446W        W23294  10.594   4.737  16.594  0.1706 -0.1742  0.2223
 6447W        W23295  16.641  10.976  10.599 -0.1231 -0.1489 -0.1049
 6448W        W23296   0.069  12.110  12.318  0.1258 -0.0216  0.0764
 6449W        W23297   9.087   5.983   3.689  0.1059  0.3036 -0.1249
 6450W        W23298  12.572   1.128  14.545  0.0306  0.1707  0.0840
 6451W        W23299   5.428   6.484   0.644  0.1966 -0.0186 -0.3970
 6452W        W23300  11.343   9.563   2.724  0.1287  0.1425 -0.0026
 6453W        W23301  15.909   0.231  14.162  0.1690  0.2867 -0.1023
 6454W        W23302  11.747   7.699  14.819 -0.3246 -0.2147  0.0032
 6455W        W23303  13.712  10.899   0.952 -0.0828 -0.0847  0.1441
 6456W        W23304   3.880   9.186   0.412 -0.0452  0.1010  0.1179
 6457W        W23305  16.937   8.211   6.319 -0.0643 -0.1948 -0.2868
 6458W        W23306   2.757   6.830  13.519  0.0522  0.0429 -0.0587
 6459W        W23307   7.854  13.591  15.797 -0.2803 -0.0649  0.1973
 6460W        W23308   3.538   7.347   4.004  0.0232  0.0068 -0.3849
 6461W        W23309  10.824   5.058   2.739  0.0801  0.3492 -0.2317
 6462W        W23310  17.684   4.881  14.699  0.2171  0.0387  0.0118
 6463W        W23311  13.948   3.871   5.230 -0.1911 -0.0885 -0.0090
 6464W        W23312  12.498  17.541   5.170 -0.2700  0.0841  0.2395
 6465W        W23313  11.004  15.577  14.580 -0.1489  0.1159 -0.0277
 6466W        W23314   5.750  13.164  13.170  0.1377 -0.2983 -0.2106
 6467W        W23315   2.919  14.794   2.007  0.1589  0.0032  0.3298
 6468W        W23316  12.466  17.229  13.398  0.2685 -0.0292  0.0837
 6469W        W23317  15.404  16.544  14.660  0.1672  0.2409 -0.2075
 6470W        W23318   0.937   5.886  14.900 -0.0108  0.2398  0.0428
 6471W        W23319   7.107   2.167   3.238  0.2551 -0.0534 -0.0909
 6472W        W23320  14.550   6.998  12.075 -0.1916 -0.3555 -0.1074
 6473W        W23321   0.894  17.258   3.780 -0.2561  0.0016 -0.0316
 6474W        W23322   0.209   2.719  11.952  0.0119 -0.0729  0.1474
 6475W        W23323   4.927  12.163   0.309  0.1318  0.2157 -0.0485
 6476W        W23324   9.381  14.979  12.956  0.2114 -0.0271  0.1248
 6477W        W23325  11.979  10.994   0.004  0.2372  0.0188  0.0733
 6478W        W23326  10.169  17.193   0.243 -0.2154 -0.2644 -0.1811
 6479W        W23327   6.807   8.194  14.655  0.3114 -0.0126  0.2685
 6480W        W23328   9.040   6.626  12.255  0.1750  0.0931  0.4362
 6481W        W23329   3.602  12.034   0.515  0.0257 -0.0658  0.1180
 6482W        W23330   5.286   3.900   0.772 -0.1882 -0.2178  0.2562
 6483W        W23331  12.256   6.339   2.650  0.1234 -0.1308  0.3722
 6484W        W23332  12.213   0.161  14.685  0.0512  0.4380  0.1131
 6485W        W23333  11.744   7.400   3.652  0.1188 -0.2276 -0.0116
 6486W        W23334   1.973   8.322  11.652 -0.0372  0.1116 -0.0403
 6487W        W23335  16.591  17.021  16.349  0.0649 -0.0834 -0.3246
 6488W        W23336  10.545   8.090   0.272 -0.1406 -0.2734  0.1374
 6489W        W23337  12.194   9.953  15.069 -0.2311 -0.0834 -0.0849
 6490W        W23338   1.916  16.188  15.247 -0.3513 -0.4114 -0.1169
 6491W        W23339  17.167   6.975   0.836  0.0526 -0.1427 -0.3226
 6492W        W23340  13.030  16.349   5.191 -0.0751 -0.2555 -0.1596
 6493W        W23341   7.148  17.565   3.792 -0.0755  0.0547 -0.1732
 6494W        W23342  15.806  16.224   4.887  0.0481 -0.2249  0.2837
 6495W        W23343   4.066   6.802  13.307 -0.0294  0.0296  0.3133
 6496W        W23344   8.002  11.175  11.435 -0.3073  0.2295 -0.3657
 6497W        W23345   3.650   8.918  12.985  0.1308 -0.2318 -0.4943
 6498W        W23346   1.051   2.767  14.731  0.0035  0.0915  0.0713
 6499W        W23347  13.377   7.480   2.119 -0.1311 -0.0667 -0.0276
 6500W        W23348  10.013   4.856   2.689  0.1143 -0.2054  0.1165
 6501W        W23349  13.591   0.181   0.537 -0.3440 -0.1086 -0.1168
 6502W        W23350   5.722   3.807   3.432  0.1065  0.0555  0.1346
 6503W        W23351   8.151   0.299  13.485  0.2233  0.0470 -0.2353
 6504W        W23352   3.209  10.756   5.185 -0.2188  0.3324  0.0717
 6505W        W23353   5.634   0.407  14.219 -0.0571 -0.2059 -0.1571
 6506W        W23354  15.587  11.895  12.722 -0.1146 -0.0231  0.1800
 6507W        W23355  10.186  11.200   1.532 -0.0750  0.0865  0.2023
 6508W        W23356   4.043  12.834  11.800  0.1056 -0.0624 -0.1738
 6509W        W23357   1.329  10.328  14.290  0.1174  0.1552 -0.0738
 6510W        W23358   3.955   5.522   3.536  0.1680  0.0422 -0.1413
 6511W        W23359  13.378   8.709   3.716  0.2361  0.0592  0.1653
 6512W        W23360   8.621   7.077   0.521 -0.0652  0.1346 -0.2921
 6513W        W23361  11.783   2.565   2.625 -0.0009 -0.1873 -0.1726
 6514W        W23362   9.730  11.166   2.527  0.0940  0.0707  0.2195
 6515W        W23363   7.893  15.276   5.470  0.2134 -0.2403 -0.1601
 6516W        W23364  13.934   8.767  11.368  0.0979 -0.4827 -0.1646
 6517W        W23365  14.857  11.686   3.641  0.1109  0.0589  0.3373
 6518W        W23366   7.748  17.517   4.979 -0.3318 -0.0417  0.0059
 6519W        W23367  17.098   1.542   3.428 -0.0629  0.0320 -0.1922
 6520W        W23368   7.333  12.236  16.171  0.0327 -0.0548 -0.0524
 6521W        W23369  15.623   9.088   3.148  0.2257  0.1073  0.2308
 6522W        W23370  10.175  10.394  14.611 -0.0018  0.1003 -0.2850
 6523W        W23371   1.913  10.691  12.797  0.0079  0.0654 -0.1396
 6524W        W23372  16.213   1.452  11.963 -0.2777 -0.2699 -0.1501
 6525W        W23373  17.106   9.461   0.872 -0.3566  0.1505  0.1603
 6526W        W23374   2.460  13.093   0.465  0.3288  0.1358  0.0237
 6527W        W23375  15.530  10.257   4.532 -0.3193  0.2296 -0.1147
 6528W        W23376  16.552   9.281  11.909 -0.0739 -0.1192  0.1782
 6529W        W23377  12.558  14.978  12.422  0.1366  0.1345  0.1170
 6530W        W23378   9.536   1.399   5.981  0.2689 -0.2448  0.1314
 6531W        W23379   7.347  13.778  11.992  0.0311 -0.1120  0.0578
 6532W        W23380   5.685   0.380   3.525 -0.0437 -0.0702 -0.1590
 6533W        W23381  10.405  15.963   5.213  0.0011  0.1706  0.1997
 6534W        W23382  10.168  15.936  14.775 -0.0458 -0.0801 -0.0841
 6535W        W23383  17.137  17.616   1.421  0.1133  0.4184  0.3874
 6536W        W23384  17.171   5.011  14.187 -0.2315  0.0091 -0.0240
 6537W        W23385  11.751   4.783   4.722  0.0525  0.1488  0.1090
 6538W        W23386   1.435   8.236  12.408  0.4069  0.2913 -0.1538
 6539W        W23387   2.988   3.768  14.013 -0.0467  0.0990  0.1237
 6540W        W23388  13.498   3.015  15.428  0.0770 -0.1502  0.0535
 6541W        W23389  12.878  10.007   4.688 -0.2148 -0.0871  0.1213
 6542W        W23390   0.521   2.524   5.380 -0.0146 -0.0526 -0.0414
 6543W        W23391   0.011  10.149   2.261  0.2422  0.1467 -0.0901
 6544W        W23392   4.946   9.061   3.047 -0.2855  0.0775 -0.2597
 6545W        W23393   9.031   1.582   1.721 -0.0722 -0.3149 -0.0661
 6546W        W23394  17.386   2.716  15.337 -0.1960 -0.0457  0.1194
 6547W        W23395  10.992   7.929  16.193  0.1235 -0.2780 -0.0189
 6548W        W23396   3.840   8.513  12.613  0.4071 -0.0639 -0.0928
 6549W        W23397   8.738   6.726  15.708 -0.0586  0.1140 -0.1236
 6550W        W23398   8.812   4.522   0.445  0.1232 -0.0281 -0.1219
 6551W        W23399  12.850  16.181  13.038 -0.0985  0.0015  0.0134
 6552W        W23400  10.444   9.002   3.833  0.0696 -0.3547  0.1654
 6553W        W23401   2.721  17.678   5.439 -0.2004 -0.1015  0.1541
 6554W        W23402   1.595  14.210  14.023  0.0676 -0.0720 -0.0802
 6555W        W23403   5.288   1.308   5.324 -0.0302  0.1277 -0.1188
 6556W        W23404   5.235   1.155   2.007  0.1206  0.0448 -0.0971
 6557W        W23405   1.120   8.690   1.142  0.0292  0.1796  0.0552
 6558W        W23406   4.369   2.698   3.957  0.0592  0.0431  0.2036
 6559W        W23407  15.118   9.425  16.279 -0.2154 -0.0126  0.1541
 6560W        W23408  10.156   7.923  15.689  0.0792  0.0738  0.2378
 6561W        W23409   0.331  12.723  13.915 -0.2049 -0.2095  0.0483
 6562W        W23410  10.486   0.040   3.235  0.1385 -0.1284 -0.1645
 6563W        W23411   8.998   7.208   3.812 -0.1248  0.2443 -0.1227
 6564W        W23412  15.063  15.061   2.566 -0.0250  0.0176 -0.5337
 6565W        W23413   2.080   0.283  14.972  0.4210 -0.2240  0.1630
 6566W        W23414  12.015  15.855  13.173 -0.1874  0.0782  0.0260
 6567W        W23415  11.726  11.758   2.658  0.2574  0.2959  0.0727
 6568W        W23416   3.547   6.701   1.120 -0.3658 -0.2727 -0.0409
 6569W        W23417   6.108   8.754   3.697 -0.0308  0.1148 -0.0099
 6570W        W23418  17.073   7.967   4.598 -0.0772  0.2130  0.1239
 6571W        W23419  15.163  10.328   2.049 -0.1644  0.0704 -0.0389
 6572W        W23420   2.496   1.126  12.517  0.1317  0.0896 -0.2082
 6573W        W23421   1.792   8.063  15.858 -0.3153 -0.0095 -0.1289
 6574W        W23422   4.961   4.718   0.782  0.3815  0.0717  0.1362
 6575W        W23423   1.033  14.684  10.704  0.1116 -0.0506  0.4304
 6576W        W23424  16.539  16.539  14.207  0.1855  0.1984  0.1069
 6577W        W23425   3.400   9.406   0.604 -0.2780 -0.0456 -0.1076
 6578W        W23426   1.189  11.370  12.650  0.0359  0.1028 -0.2866
 6579W        W23427   8.006   6.202  15.356  0.2118  0.1994  0.1849
 6580W        W23428   6.417  17.107  13.150 -0.0409  0.1310  0.3194
 6581W        W23429   1.813   0.663   2.038 -0.0714 -0.1042 -0.1302
 6582W        W23430   4.669   9.292   4.712 -0.4698 -0.2273 -0.3067
 6583W        W23431  12.755   8.357   2.187  0.2121 -0.0371 -0.1762
 6584W        W23432   0.276  10.476  11.975  0.2200  0.0211  0.0231
 6585W        W23433  11.398   4.711  10.689 -0.2833 -0.0478  0.0685
 6586W        W23434  12.708   4.314   0.372  0.0875  0.0252  0.1387
 6587W        W23435  17.012  12.633  16.391  0.0250 -0.1756 -0.2283
 6588W        W23436   6.888   4.753  14.977  0.1589 -0.2403 -0.0378
 6589W        W23437   7.410   8.301   0.198  0.1353  0.1238  0.0396
 6590W        W23438  12.287   6.370   2.071 -0.0363  0.1591 -0.0837
 6591W        W23439  15.609  17.479  13.410  0.0616 -0.2082 -0.1401
 6592W        W23440   5.963  15.917  13.699 -0.0733  0.2916 -0.3369
 6593W        W23441  17.430  14.533  11.360 -0.0189  0.1723  0.0420
 6594W        W23442   3.575   7.649   3.602 -0.1235 -0.0903  0.0897
 6595W        W23443  13.467   5.375  12.095 -0.1667  0.0058 -0.1588
 6596W        W23444  10.671  12.987   1.367  0.0744 -0.1524  0.1487
 6597W        W23445  13.765   0.133  14.796  0.1707  0.0174  0.2433
 6598W        W23446   9.003  16.929   4.831  0.0304  0.3540  0.0071
 6599W        W23447  17.083  11.885   1.806  0.2378  0.0712 -0.0735
 6600W        W23448   2.411   3.826   4.681  0.2321 -0.1825  0.0156
 6601W        W23449  16.335   6.498   3.160 -0.1427 -0.0614  0.0678
 6602W        W23450   3.518  10.149   3.427 -0.3378 -0.1087 -0.0890
 6603W        W23451   4.844   4.425  14.719  0.1423 -0.0354  0.0938
 6604W        W23452  12.916  10.189  13.111 -0.0647  0.2515 -0.1834
 6605W        W23453   6.488   9.745  12.407 -0.0478  0.0911 -0.0264
 6606W        W23454   6.580   7.036  16.051 -0.0238  0.1282 -0.3455
 6607W        W23455  11.683   7.005   3.294 -0.3373 -0.1557  0.1130
 6608W        W23456  15.019   7.541   2.607  0.0374  0.0273  0.0219
 6609W        W23457  11.355   1.959  13.299 -0.1087  0.2725 -0.3003
 6610W        W23458   0.239   5.754   2.409  0.2074  0.3987 -0.2115
 6611W        W23459   6.036   7.631  11.868 -0.0655 -0.1396  0.0666
 6612W        W23460   9.552  17.421  11.238  0.2971  0.1643  0.3691
 6613W        W23461   4.840   9.488  16.264 -0.0489  0.1674  0.0422
 6614W        W23462   4.702  16.482   4.808 -0.0666  0.2109  0.0346
 6615W        W23463   3.346  15.028   0.277 -0.0412  0.3560  0.2422
 6616W        W23464   8.863   1.615  12.144 -0.3139 -0.1194 -0.2813
 6617W        W23465   0.856   8.001  16.497 -0.0977  0.1980  0.0330
 6618W        W23466   8.824   2.962  15.948  0.0581 -0.0549  0.1950
 6619W        W23467   4.166   7.431   2.150  0.1469  0.2745 -0.1185
 6620W        W23468   5.486  13.204  14.603  0.0072  0.1914  0.1507
 6621W        W23469  15.594   2.039  10.783  0.0722 -0.0492  0.2936
 6622W        W23470  12.049   0.031  13.439  0.0064  0.2056  0.1592
 6623W        W23471   2.987   8.761  16.389  0.3968 -0.2288  0.1134
 6624W        W23472   7.988  12.698   5.237  0.0573 -0.0538  0.0553
 6625W        W23473   3.604  13.943   3.605 -0.0449  0.2086 -0.0512
 6626W        W23474  11.348   9.379   4.883  0.2188 -0.2052 -0.1716
 6627W        W23475   0.185   1.311   1.203  0.0997 -0.3021  0.0125
 6628W        W23476   0.825   5.581   2.641  0.3271 -0.3061  0.0161
 6629W        W23477   7.834  10.063   0.361 -0.0700  0.0188 -0.0182
 6630W        W23478   5.976   8.041  15.130 -0.0523 -0.0414  0.0945
 6631W        W23479  15.156   9.845  15.519 -0.2440 -0.0348  0.1662
 6632W        W23480   2.359   2.016  14.450 -0.2824 -0.1298 -0.1051
 6633W        W23481   2.272   8.079  12.122  0.1012 -0.2083 -0.2409
 6634W        W23482  16.478   0.453   3.554 -0.1520  0.1081 -0.1897
 6635W        W23483  14.707   3.674   2.433 -0.1405 -0.0054 -0.0568
 6636W        W23484   3.873  13.415   4.285  0.4371  0.1127 -0.0794
 6637W        W23485  15.610  14.329   2.468 -0.0652 -0.1609 -0.1965
 6638W        W23486  15.321  16.512   4.446 -0.5040  0.0537 -0.0920
 6639W        W23487  11.636   4.519   2.808 -0.1346 -0.1373 -0.2298
 6640W        W23488  17.062   9.416  12.576 -0.2315 -0.1750 -0.1191
 6641W        W23489  16.695   1.550   1.500 -0.1270  0.0817 -0.1444
 6642W        W23490  14.490  13.165  15.341 -0.1345 -0.0529  0.1228
 6643W        W23491   8.285  16.456   2.524  0.0274 -0.1012  0.0099
 6644W        W23492   9.632  13.445   2.191 -0.0146  0.0319  0.1422
 6645W        W23493   0.985  17.525   4.152  0.1315 -0.1202 -0.2646
 6646W        W23494   9.768   2.879  12.267  0.1833 -0.2190 -0.1176
 6647W        W23495   0.574  11.122   4.702  0.0543 -0.3632 -0.1711
 6648W        W23496   8.694  10.628   3.359  0.3430  0.0997  0.0199
 6649W        W23497   8.291  14.963   1.799  0.1068 -0.1700  0.3539
 6650W        W23498   5.907  13.355  15.987  0.2677  0.1176 -0.2210
 6651W        W23499  16.807  12.153  12.241  0.2116  0.0529 -0.4208
 6652W        W23500   6.632  10.934   3.966  0.2849  0.3024  0.0847
 6653W        W23501   0.253   3.610  12.139 -0.3288  0.0998  0.0022
 6654W        W23502  14.411   2.039   4.101 -0.0297  0.0277 -0.0205
 6655W        W23503  12.424   5.830   0.769  0.2371  0.1968 -0.0552
 6656W        W23504  16.817   3.408  13.303  0.0405 -0.0379  0.0709
 6657W        W23505  15.772  16.361   3.721  0.1239  0.0687 -0.0057
 6658W        W23506  12.132  10.685  14.110 -0.1010 -0.2165 -0.1042
 6659W        W23507   9.171  14.472  12.941 -0.2332  0.0690  0.2074
 6660W        W23508   2.284   8.602  11.938  0.1051  0.0742 -0.0094
 6661W        W23509   0.297  16.221  11.184 -0.0665  0.2720  0.2838
 6662W        W23510   1.060   9.413   5.132  0.5464 -0.2398 -0.1511
 6663W        W23511  12.333   1.333  13.671  0.0141 -0.1569  0.0982
 6664W        W23512   6.627  10.938   5.103  0.1311 -0.1348  0.0979
 6665W        W23513  12.931  13.770  16.545  0.0903 -0.1188  0.1144
 6666W        W23514  14.343  10.054  13.877  0.2108  0.3197  0.3760
 6667W        W23515  14.449   6.327  15.205 -0.0834 -0.1091  0.0562
 6668W        W23516  17.683  10.813   3.841 -0.1859  0.1181  0.1023
 6669W        W23517   8.629  11.621  12.972 -0.2013  0.0764 -0.1659
 6670W        W23518   9.343   7.461   0.072  0.0699 -0.0516  0.1638
 6671W        W23519  16.849  13.133   3.466 -0.4216  0.0375 -0.1000
 6672W        W23520   4.331   4.601   1.746  0.0640  0.0794  0.0724
 6673W        W23521  10.031  14.566  12.529 -0.2875  0.0886 -0.2157
 6674W        W23522   6.813   1.081   1.160  0.2316 -0.0905  0.0964
 6675W        W23523  15.595  15.021   1.343  0.1455  0.2325 -0.2811
 6676W        W23524   7.151   8.951   1.112  0.0932 -0.0391 -0.1118
 6677W        W23525   8.060   8.550  15.020  0.2301  0.1239  0.0032
 6678W        W23526  10.005   3.021   3.347 -0.1566  0.0020 -0.1209
 6679W        W23527  17.689  10.645   0.402 -0.2591 -0.2289  0.0439
 6680W        W23528   6.440   6.064  16.258  0.1819  0.1419 -0.3535
 6681W        W23529   6.616  17.263   5.085 -0.1594 -0.0817  0.0332
 6682W        W23530   9.801   3.595  13.599 -0.2594  0.2708 -0.0180
 6683W        W23531  16.686   3.686   2.543  0.0635  0.1181 -0.0867
 6684W        W23532   1.435  10.364   0.829  0.0158 -0.0185  0.2499
 6685W        W23533   0.762  15.018  14.857  0.1861 -0.2716 -0.1706
 6686W        W23534  12.045  17.490  14.917 -0.0030  0.3344  0.2321
 6687W        W23535  14.228   5.739   1.407  0.0581 -0.4432 -0.0660
 6688W        W23536   2.311   1.741   1.904 -0.1326 -0.0793 -0.0496
 6689W        W23537  16.427  11.488  15.989 -0.0951 -0.1628 -0.0106
 6690W        W23538   2.876   8.395   4.375  0.1157  0.3028 -0.1412
 6691W        W23539   4.349   5.935  13.558  0.2748  0.0196 -0.0821
 6692W        W23540  12.104  10.370  15.401 -0.1344  0.1928  0.1760
 6693W        W23541   0.334  11.234  10.252  0.0728 -0.1163  0.4545
 6694W        W23542   4.168  17.652  10.465  0.0691 -0.0122  0.2920
 6695W        W23543  14.168  11.776   3.156  0.2743  0.2900  0.0325
 6696W        W23544   0.093  14.845   0.194  0.0644  0.0287  0.0852
 6697W        W23545   7.030  15.163  12.357  0.0115  0.1441  0.0745
 6698W        W23546   8.180  14.551   3.073  0.0275  0.2540  0.0536
 6699W        W23547   1.901  13.202  14.561  0.0123  0.0764 -0.2574
 6700W        W23548  13.799  15.270  16.179 -0.1499 -0.0565 -0.1933
 6701W        W23549   3.784   2.436  12.782  0.1330 -0.0142  0.0434
 6702W        W23550  14.894   8.379  14.773 -0.1066  0.2733 -0.2179
 6703W        W23551   7.513  13.182  14.175  0.1323 -0.1350  0.2004
 6704W        W23552  15.838   2.907  11.957  0.1161 -0.2444 -0.0831
 6705W        W23553   6.151   7.403   4.516  0.0351 -0.0312  0.2164
 6706W        W23554   4.180  13.077   0.771  0.2254 -0.3573 -0.0764
 6707W        W23555  16.362  11.069   2.991  0.4400  0.0995 -0.1757
 6708W        W23556   0.747  10.259  13.341 -0.3549 -0.0921 -0.0650
 6709W        W23557  10.163  15.817  11.547  0.2435  0.0978  0.1344
 6710W        W23558   6.888   5.865  15.941  0.1899 -0.4995  0.0083
 6711W        W23559   5.313  14.097   5.421 -0.0380  0.1149 -0.0020
 6712W        W23560  12.512   0.768  12.169 -0.0353 -0.0227 -0.0215
 6713W        W23561  10.373   4.646  13.456 -0.1158  0.1752  0.0594
 6714W        W23562   6.374   1.051   5.248  0.1253 -0.0626 -0.2984
 6715W        W23563  10.482   6.943  14.951 -0.0549  0.0559  0.1815
 6716W        W23564   9.004  12.850  16.270  0.1129 -0.4122  0.0155
 6717W        W23565   9.727   5.247  13.267 -0.2908 -0.1021  0.0958
 6718W        W23566   2.350   1.065  16.340 -0.2914 -0.3282  0.1930
 6719W        W23567   1.130   4.283   5.912  0.0394  0.1135  0.0630
 6720W        W23568   6.468  11.935   5.764 -0.2679  0.0413 -0.1338
 6721W        W23569   7.155   6.413  12.605 -0.0975  0.2005 -0.0897
 6722W        W23570   5.171  13.220  11.377 -0.1740  0.0148 -0.1491
 6723W        W23571   2.754   6.258  15.316 -0.2279  0.0543  0.0177
 6724W        W23572  10.321  11.403   5.906  0.1641 -0.1985  0.0708
 6725W        W23573   9.700  15.936   5.613  0.2996 -0.2677  0.2817
 6726W        W23574   5.109  15.601   5.045  0.0957 -0.1730 -0.2646
 6727W        W23575  15.613   8.066  15.852  0.0075 -0.0315  0.2718
 6728W        W23576  14.039  14.412  15.727  0.0670  0.0945  0.0741
 6729W        W23577   1.531  12.720  13.916  0.0489 -0.2882  0.2446
 6730W        W23578   9.756  17.609   1.975 -0.5340  0.1808 -0.0011
 6731W        W23579  15.803   6.787  14.578 -0.0156 -0.3368  0.1925
 6732W        W23580  14.693   7.733  13.364  0.3014  0.0618 -0.2358
 6733W        W23581   7.106   7.318  13.783  0.0077  0.0361  0.0928
 6734W        W23582  13.843  15.008  11.203  0.0823  0.0113 -0.2240
 6735W        W23583   1.128  12.253   0.671 -0.1632 -0.0022  0.0874
 6736W        W23584  13.325   6.675  12.574  0.1665  0.2681 -0.1579
 6737W        W23585   0.825  13.807  15.553  0.1714 -0.0439  0.1210
 6738W        W23586  12.714   9.588  16.628  0.2172 -0.0863 -0.3248
 6739W        W23587   5.004  13.112  11.971  0.3159 -0.1351  0.1699
 6740W        W23588   2.642   2.958  14.558  0.0271  0.0135 -0.1341
 6741W        W23589  14.992  15.904  14.416  0.3512 -0.0189  0.4648
 6742W        W23590  14.563   7.803  12.507 -0.0750  0.1455 -0.1307
 6743W        W23591   4.508   3.516   0.960  0.0679 -0.0298  0.0032
 6744W        W23592  11.326  12.480   6.111 -0.1030 -0.3199 -0.3374
 6745W        W23593  11.602  13.172   2.266  0.3058  0.1840  0.0697
 6746W        W23594   3.491   1.835   0.571  0.0608 -0.1528  0.1389
 6747W        W23595   9.817   2.969   1.969 -0.2976  0.1157 -0.0693
 6748W        W23596   1.422   5.764   2.109 -0.2276  0.2459 -0.0817
 6749W        W23597   9.495   7.722  12.897 -0.1857  0.0697  0.0003
 6750W        W23598  12.845   0.026   1.784  0.1693 -0.0989  0.0167
 6751W        W23599  15.591   9.960   3.251  0.1014  0.0966  0.0854
 6752W        W23600  14.734   2.262  11.595 -0.1825  0.1664 -0.0110
 6753W        W23601  14.379  10.597  16.071  0.1504  0.0172  0.1513
 6754W        W23602  16.999   0.171  13.131 -0.1042 -0.0245  0.0510
 6755W        W23603   2.056   7.956   2.993  0.3394  0.1853 -0.2709
 6756W        W23604   6.748   7.792  14.340  0.0661 -0.0781 -0.2927
 6757W        W23605  15.369  17.524  12.924 -0.2602 -0.0215 -0.1766
 6758W        W23606   2.352   3.108   4.360  0.1938  0.0269  0.4170
 6759W        W23607   4.826   1.249   3.446 -0.0392 -0.0325 -0.0510
 6760W        W23608   4.541  10.954   4.762 -0.1729 -0.1476  0.2841
 6761W        W23609   5.810  14.540   2.168 -0.0095  0.1462  0.0565
 6762W        W23610  16.734  16.459  15.226  0.1115  0.1652 -0.0078
 6763W        W23611   5.159   7.878  13.403 -0.2409  0.0779  0.2441
 6764W        W23612   8.361  14.663  11.812 -0.2317  0.0290 -0.0545
 6765W        W23613   8.737  11.976  16.612 -0.1284  0.0315 -0.5681
 6766W        W23614   0.603   3.719  16.177 -0.2764  0.0373 -0.1387
 6767W        W23615  14.145  14.990   1.660  0.0648  0.2606 -0.4426
 6768W        W23616   1.064   1.348   5.173 -0.0200  0.2128 -0.1934
 6769W        W23617   0.170  10.450   1.720  0.1553  0.0394 -0.3085
 6770W        W23618  15.783  15.674  13.725 -0.3927  0.2057  0.0383
 6771W        W23619  12.740  14.414  11.433  0.1353  0.1294  0.0422
 6772W        W23620   7.511   6.267   2.698 -0.1771  0.0274  0.0914
 6773W        W23621  15.669   3.428  11.908  0.1482 -0.0481  0.0797
 6774W        W23622   1.019  10.491   3.550 -0.0531 -0.1833 -0.0511
 6775W        W23623   2.741   9.458   0.551  0.1524 -0.0815 -0.1809
 6776W        W23624   8.632  12.032  12.665  0.2128  0.1517 -0.0301
 6777W        W23625  14.600   2.813   0.646 -0.0525 -0.3983 -0.1868
 6778W        W23626   1.401   0.303   1.975 -0.1472  0.0218 -0.1530
 6779W        W23627  14.162  14.188  15.227 -0.0860 -0.3772  0.0712
 6780W        W23628   8.645   5.568   1.310  0.0315  0.0563  0.0351
 6781W        W23629   6.568  14.019  14.983 -0.0645 -0.0495 -0.0751
 6782W        W23630   7.563  16.874   3.536 -0.0422  0.1111  0.0396
 6783W        W23631  14.004  13.265   1.290  0.1125  0.1364 -0.1676
 6784W        W23632  11.196   0.312   1.651 -0.0837  0.1117 -0.1572
 6785W        W23633   1.230   7.743   6.360  0.1341 -0.1071  0.0766
 6786W        W23634   1.784   8.561  15.961 -0.0170  0.0482 -0.1518
 6787W        W23635   0.840  10.647   0.187 -0.1002  0.1881 -0.1474
 6788W        W23636   9.510   2.466  12.266 -0.0125 -0.0167  0.3253
 6789W        W23637  11.400  17.526   2.251  0.0214  0.0046 -0.0123
 6790W        W23638  15.603  10.487  12.715  0.2317 -0.1664  0.0661
 6791W        W23639   4.602  14.042  11.558  0.0653 -0.1910 -0.1439
 6792W        W23640   7.551  12.741  12.956 -0.2396  0.0112 -0.0285
 6793W        W23641  11.569  10.180  14.015  0.2637 -0.0772 -0.1791
 6794W        W23642   2.862   8.604   3.050 -0.1357  0.1643 -0.0603
 6795W        W23643  17.130  11.295   5.262  0.0764  0.0716  0.1444
 6796W        W23644   9.138  11.221   5.040 -0.2948  0.2246  0.1985
 6797W        W23645  13.969  17.439   3.296  0.1916  0.0783 -0.3067
 6798W        W23646  17.186  13.163   5.283 -0.0373 -0.1538 -0.0060
 6799W        W23647  16.603   9.711   4.782 -0.1287 -0.0604  0.0032
 6800W        W23648  16.662   8.953   3.427 -0.0928 -0.4754 -0.2007
 6801W        W23649   6.712   1.985   3.770 -0.2279 -0.0002  0.0988
 6802W        W23650   3.053  16.661   3.834 -0.1133 -0.0486  0.1934
 6803W        W23651   6.236  11.530  10.269 -0.0365 -0.2366  0.0517
 6804W        W23652   2.287   6.177   5.077 -0.0798 -0.0606  0.2948
 6805W        W23653   0.581   8.609   1.154  0.4471 -0.1208 -0.0352
 6806W        W23654   9.008  13.996   0.155 -0.0721  0.1150  0.0362
 6807W        W23655   5.704   1.106   2.311 -0.1322 -0.1180 -0.0294
 6808W        W23656   9.003  12.672  13.626 -0.0827  0.1044 -0.0531
 6809W        W23657   5.876   1.426   3.473 -0.1070  0.2435  0.0454
 6810W        W23658  10.669   4.975  12.776 -0.0732 -0.1800 -0.0445
 6811W        W23659   5.527  15.457   0.454 -0.2045  0.1421 -0.3809
 6812W        W23660  12.354  15.465  12.520  0.2244  0.0973 -0.2144
 6813W        W23661  14.586   7.001  12.739 -0.0965 -0.0498  0.3335
 6814W        W23662   0.184   9.751  16.022  0.2928 -0.1720  0.0306
 6815W        W23663   4.019   2.137   1.749 -0.3216 -0.0709  0.3161
 6816W        W23664   1.051   2.655  12.559  0.1063 -0.2341  0.0790
 6817W        W23665  13.226  10.686   4.152  0.0348 -0.0817  0.3203
 6818W        W23666  16.700  13.275   0.250 -0.3230  0.0476 -0.0228
 6819W        W23667   4.793   0.171   5.250  0.2137  0.1692  0.2704
 6820W        W23668  10.874  12.633  15.332 -0.1361 -0.1131  0.4759
 6821W        W23669  16.793  12.482  13.230 -0.0532  0.2070 -0.1209
 6822W        W23670   4.634  14.543  11.527 -0.2618  0.1685  0.1169
 6823W        W23671   2.779   2.122   0.944 -0.3734  0.1208 -0.0550
 6824W        W23672   2.571   1.604  12.292  0.0353 -0.1772 -0.1255
 6825W        W23673  15.902  15.011   0.341  0.1053 -0.1061  0.0648
 6826W        W23674  14.725  14.614  12.109  0.0161  0.0316  0.0659
 6827W        W23675  12.999  13.560  15.556  0.5016  0.0967 -0.2404
 6828W        W23676  17.571  14.877   1.167  0.1161 -0.2016  0.1249
 6829W        W23677   0.880   4.421  12.022  0.2288  0.0665  0.6391
 6830W        W23678  13.516  11.620  15.281 -0.0578 -0.1129 -0.1832
 6831W        W23679  10.396  15.236   2.358 -0.0343  0.0279  0.2047
 6832W        W23680   8.269   2.947   2.847  0.1120 -0.0821 -0.2384
 6833W        W23681  10.513   1.403   3.641 -0.0854 -0.2385 -0.1399
 6834W        W23682   5.159  14.436   2.528  0.2632 -0.0784  0.1327
 6835W        W23683  10.357  10.117   5.466  0.0985 -0.1617 -0.0722
 6836W        W23684   7.547   7.517   2.845 -0.0292  0.0230  0.4200
 6837W        W23685   9.846  15.643   3.151  0.1763 -0.1648 -0.1600
 6838W        W23686   3.323  17.218  12.071 -0.1048 -0.0810 -0.0841
 6839W        W23687  13.499  15.775  12.135 -0.1429  0.0035  0.0604
 6840W        W23688  13.659  12.110  15.484  0.1559 -0.0754  0.0594
 6841W        W23689   9.943   8.747  16.155 -0.1309 -0.2548 -0.0966
 6842W        W23690   6.681   9.610  14.548 -0.1354 -0.3286 -0.0634
 6843W        W23691   3.725  10.205   4.592  0.2002 -0.0478 -0.0043
 6844W        W23692   7.508   2.168   1.440  0.1415 -0.0549 -0.2557
 6845W        W23693  12.624  11.991   2.023 -0.0890  0.1886 -0.0013
 6846W        W23694   3.187   7.884  13.087  0.1139  0.1185  0.0010
 6847W        W23695   9.555  14.258  13.749  0.1631  0.3275 -0.2035
 6848W        W23696   2.378   2.322   0.130 -0.0238  0.3682 -0.1472
 6849W        W23697   5.798  15.251   2.766 -0.0850  0.1380 -0.2057
 6850W        W23698   4.029   9.989  16.360  0.0069  0.1403  0.0149
 6851W        W23699   2.681   2.794  16.042 -0.0173 -0.2204 -0.0318
 6852W        W23700   7.553   6.731  14.088  0.1030 -0.0402  0.2426
 6853W        W23701  10.050   9.280   0.322  0.1490  0.0664 -0.0749
 6854W        W23702   5.935  16.363  13.559 -0.2467 -0.2062 -0.1298
 6855W        W23703  15.979   7.130  15.517 -0.0404 -0.0918  0.1386
 6856W        W23704  12.715  10.092  15.090 -0.0334 -0.2821 -0.3523
 6857W        W23705  11.903   4.030  13.464  0.0886 -0.2257 -0.0858
 6858W        W23706   3.036  13.313   4.534 -0.3112 -0.2618 -0.2584
 6859W        W23707  12.416   5.225  15.655 -0.1316 -0.2213 -0.1127
 6860W        W23708   0.748  13.961   3.483 -0.1179 -0.0611 -0.1408
 6861W        W23709  12.367  13.246  14.158 -0.5050  0.1754  0.3896
 6862W        W23710   3.134   9.260  15.737  0.1845  0.2056 -0.0431
 6863W        W23711  10.000   3.562  15.870  0.1142 -0.1285 -0.0826
 6864W        W23712  16.438   2.906   4.559 -0.0057 -0.1873  0.0310
 6865W        W23713   0.583   8.346  14.776 -0.1655 -0.0519 -0.1483
 6866W        W23714   7.859   1.617  14.064  0.0028 -0.3308  0.4881
 6867W        W23715   1.707   2.346   4.022  0.3015 -0.1055  0.0743
 6868W        W23716   2.806   0.925  12.160  0.2409 -0.0596 -0.1257
 6869W        W23717   4.054  12.763  12.704  0.2347  0.1891  0.0504
 6870W        W23718  16.515   6.152   3.473  0.1665  0.0485  0.2043
 6871W        W23719   1.256   8.526  16.076 -0.0322  0.0507  0.1071
 6872W        W23720  10.055   1.265   2.793  0.0013  0.3375  0.0943
 6873W        W23721  15.921  11.649   1.663  0.1408  0.0245 -0.3209
 6874W        W23722   1.642  14.879  13.465  0.0977  0.3458 -0.0704
 6875W        W23723  12.908   7.834   5.329  0.1722 -0.0426  0.0710
 6876W        W23724  15.421   6.654   5.167 -0.2556  0.4626 -0.1456
 6877W        W23725  13.642   2.976  12.124 -0.0688 -0.0765  0.0802
 6878W        W23726   0.237   1.668   5.020 -0.1671 -0.0527  0.0863
 6879W        W23727   1.971  15.402   0.413  0.1775 -0.2698 -0.3188
 6880W        W23728  17.153   7.595   2.399  0.2086  0.0533 -0.1663
 6881W        W23729  15.516   3.419  13.180  0.3167  0.0269  0.0611
 6882W        W23730   2.766   7.269   2.300  0.2104 -0.0341  0.3101
 6883W        W23731   8.689   0.522   0.739  0.2101 -0.0095  0.0194
 6884W        W23732  11.211   9.777  14.242  0.2038  0.1183  0.1945
 6885W        W23733   6.345  10.887  15.492  0.0699  0.1552  0.0964
 6886W        W23734  11.020  14.983  16.333  0.0091  0.0778 -0.2139
 6887W        W23735   2.644   0.678  12.666  0.1512  0.2884  0.0994
 6888W        W23736   8.735   5.460   3.526 -0.3508 -0.0453  0.4920
 6889W        W23737   0.844   3.133  11.412  0.2551 -0.2450 -0.3849
 6890W        W23738   9.689   8.035  13.262  0.1612 -0.0770  0.2312
 6891W        W23739   3.637  11.253  15.868  0.1344 -0.0013  0.3241
 6892W        W23740   4.536   1.006   4.206 -0.0760  0.4863 -0.2144
 6893W        W23741  14.148   6.296   4.039  0.0036  0.0225  0.2487
 6894W        W23742  10.477   7.814   1.217 -0.3418  0.1204 -0.0460
 6895W        W23743   0.458  13.562  14.048 -0.2083 -0.1802  0.1225
 6896W        W23744   6.129   4.685   0.970 -0.1571  0.2104  0.1881
 6897W        W23745   6.633   8.900  15.304  0.3408  0.1781 -0.1011
 6898W        W23746  16.832  16.863   3.260  0.0302  0.2321 -0.0182
 6899W        W23747   6.320  14.364   4.887 -0.1111 -0.1162 -0.2074
 6900W        W23748  17.528   4.013  14.623 -0.2608  0.0391  0.0447
 6901W        W23749   1.235   0.284  15.532  0.1569  0.1268  0.0635
 6902W        W23750   9.738  15.028  11.768  0.1701  0.0331 -0.0060
 6903W        W23751   7.434  15.414  15.781  0.2676  0.1252 -0.0552
 6904W        W23752   5.698   7.648  16.048  0.1987  0.1597 -0.1600
 6905W        W23753  15.140  10.218   4.955 -0.0701 -0.1745  0.0994
 6906W        W23754  10.634   3.458  13.170 -0.1096  0.3298  0.1388
 6907W        W23755   5.462  11.074  12.733  0.0077 -0.2428  0.0709
 6908W        W23756   8.809  16.500  13.374  0.2532 -0.1914 -0.0571
 6909W        W23757  14.267   3.009   2.551 -0.3242 -0.0134  0.0966
 6910W        W23758   8.651  15.095   0.830 -0.3269 -0.0033  0.2504
 6911W        W23759  17.432   2.649  16.186  0.3403 -0.1290  0.3189
 6912W        W23760  10.021  15.639  13.331  0.0421 -0.3068 -0.0952
 6913W        W23761   4.734  10.282  14.541  0.0241  0.3720 -0.2449
 6914W        W23762   8.271   7.742   1.579 -0.1022 -0.1292  0.1314
 6915W        W23763   6.642   2.989   3.024 -0.0930 -0.1205 -0.0364
 6916W        W23764   4.951   8.981   0.848 -0.0145 -0.1609  0.2457
 6917W        W23765   1.167  17.424  14.201 -0.1988  0.1082  0.1265
 6918W        W23766   1.878   2.809  16.646 -0.2476 -0.2473 -0.5103
 6919W        W23767  11.127   6.442   3.647 -0.3289  0.1356 -0.0055
 6920W        W23768   9.586   3.331   3.485  0.0450 -0.0736  0.2594
 6921W        W23769   0.297   3.207   3.880  0.1843  0.0140 -0.0093
 6922W        W23770  11.533   9.531  15.574 -0.0827  0.4838 -0.0527
 6923W        W23771  12.325  10.641   4.555  0.0238  0.1395 -0.0915
 6924W        W23772  12.196   6.904  15.056  0.0541  0.1131  0.4043
 6925W        W23773  12.606   4.751   3.157 -0.0149  0.1097  0.1191
 6926W        W23774   7.338   3.929  13.131 -0.2620 -0.0432  0.2920
 6927W        W23775   8.076  11.974  15.165 -0.1336 -0.0414  0.1595
 6928W        W23776  16.637   9.986   2.198 -0.3222 -0.1150 -0.3364
 6929W        W23777   2.914  12.549   1.100 -0.1662  0.0225 -0.2226
 6930W        W23778   2.956  14.215  13.964 -0.0427 -0.0449 -0.0312
 6931W        W23779  14.781   2.326   2.751 -0.1609 -0.1972  0.0937
 6932W        W23780   8.026   9.263   4.676  0.1075 -0.0947 -0.0340
 6933W        W23781   0.543  15.728  14.222  0.0871 -0.1511  0.1246
 6934W        W23782   4.845  12.534   2.577 -0.1345  0.0443 -0.0114
 6935W        W23783  14.747  11.237   3.840 -0.0223 -0.2278  0.1635
 6936W        W23784   3.390   0.854  15.584  0.0782 -0.0090 -0.0945
 6937W        W23785  14.358   5.557   3.117  0.1013 -0.1514 -0.0835
 6938W        W23786   7.694  12.044  16.654  0.0151  0.1581  0.2535
 6939W        W23787  11.933  15.250  13.322 -0.1022 -0.2942  0.0588
 6940W        W23788   9.664   3.989   0.215 -0.2331 -0.2546 -0.0606
 6941W        W23789  16.285  11.685  13.009 -0.2387 -0.1598  0.0188
 6942W        W23790   9.056   5.449  14.514 -0.2360 -0.0220  0.1484
 6943W        W23791  10.609   8.156   2.004 -0.0108  0.1463 -0.2996
 6944W        W23792   0.640  11.536  14.072  0.0824 -0.4264  0.1705
 6945W        W23793  10.472  15.163   0.822 -0.0847  0.0405 -0.2114
 6946W        W23794  10.027  13.141   0.598  0.0357 -0.2581  0.2211
 6947W        W23795   0.533  15.939   3.899 -0.1065 -0.1656 -0.0051
 6948W        W23796   0.376  14.474   0.557 -0.0821  0.2919  0.0295
 6949W        W23797   2.636  11.192  13.333  0.0628 -0.0752 -0.1808
 6950W        W23798   7.482   1.644   5.624  0.2232 -0.1325 -0.1785
 6951W        W23799   3.009   0.338  13.500 -0.1154 -0.0080 -0.3203
 6952W        W23800  16.812  13.307  11.187  0.2735 -0.2553 -0.0037
 6953W        W23801  12.302   6.008  14.518  0.0127  0.3447 -0.0188
 6954W        W23802   1.770   8.855   2.394  0.0528  0.2921 -0.0625
 6955W        W23803  10.399  13.575   2.325  0.4996 -0.1222 -0.2222
 6956W        W23804   7.265  13.105  15.970  0.1046 -0.0540  0.2045
 6957W        W23805   6.954   7.490  13.176 -0.0216  0.2146 -0.1138
 6958W        W23806   6.779  16.589   1.865  0.0242 -0.1916  0.0465
 6959W        W23807   2.235   4.399  14.045 -0.2225  0.1534 -0.0412
 6960W        W23808   9.764   2.382   4.610  0.2110  0.1723 -0.1319
 6961W        W23809   2.090   0.185  15.631 -0.1993  0.0368 -0.0534
 6962W        W23810   8.369   2.896  13.921  0.0630  0.2230  0.2882
 6963W        W23811   4.192   1.943   2.840  0.3365  0.3203  0.0885
 6964W        W23812   5.545  11.707   5.074  0.2620  0.0565 -0.0484
 6965W        W23813  11.218  17.259  12.698 -0.0783  0.1605 -0.0453
 6966W        W23814   5.950   2.053   4.228 -0.0989 -0.2065  0.0190
 6967W        W23815  12.433  15.578  13.028  0.4253  0.0348 -0.0883
 6968W        W23816  13.228  11.738   2.240  0.2674 -0.2371 -0.2052
 6969W        W23817  16.335  15.333  16.189  0.0924 -0.0204 -0.1235
 6970W        W23818   6.635  15.990  12.102 -0.0347  0.4133  0.0169
 6971W        W23819   6.081   5.137   5.282  0.2363 -0.2076 -0.1089
 6972W        W23820  10.634  17.611   4.202 -0.2050 -0.0310 -0.0869
 6973W        W23821   3.498   6.874  11.195 -0.2895 -0.1032  0.4129
 6974W        W23822  12.325   6.483   1.576  0.3472  0.0278  0.0612
 6975W        W23823  17.138  12.836  14.232 -0.2006  0.0085  0.0072
 6976W        W23824   6.032   5.012   2.975  0.0485  0.0271  0.0739
 6977W        W23825   9.410   6.754   3.541  0.0027  0.0238  0.1479
 6978W        W23826   5.213   9.465  15.835  0.0299 -0.3487  0.1855
 6979W        W23827   7.889  16.474   4.739  0.0393 -0.3971 -0.0315
 6980W        W23828   7.872   0.921  16.488 -0.2785 -0.0215  0.0476
 6981W        W23829  17.186  16.390  14.921  0.0531  0.2586 -0.0930
 6982W        W23830   3.895   8.065  13.243 -0.0253 -0.0359 -0.3391
 6983W        W23831  10.310  15.407  16.490 -0.2228 -0.1154 -0.0143
 6984W        W23832   1.573   1.468  16.478 -0.0379 -0.1592 -0.1759
 6985W        W23833   2.524  17.256   0.787 -0.0946 -0.2420 -0.0603
 6986W        W23834  17.224   0.007  11.727  0.1489  0.1024 -0.1041
 6987W        W23835  17.285   2.940   5.051  0.0265 -0.0368  0.0951
 6988W        W23836  14.009  16.691  10.647  0.0996  0.0717 -0.3158
 6989W        W23837  15.918   0.896  12.572 -0.0760 -0.1597 -0.0528
 6990W        W23838  12.309   1.900  14.873  0.0829 -0.1765  0.3695
 6991W        W23839  10.505   8.693   1.573  0.1730 -0.0787 -0.2840
 6992W        W23840   8.772   7.432   0.022  0.0817 -0.2242 -0.2511
 6993W        W23841   2.369   0.336   5.288 -0.1151 -0.0468  0.2858
 6994W        W23842   6.244  14.630  14.320  0.0581  0.1059 -0.1485
 6995W        W23843  16.585  12.807   1.422  0.2300 -0.0211 -0.0037
 6996W        W23844   9.114   6.659   3.043 -0.2460 -0.2043  0.0157
 6997W        W23845  14.086  11.920  15.645  0.1285 -0.1212 -0.0471
 6998W        W23846   6.358   3.676  14.533  0.0601  0.0923  0.1093
 6999W        W23847   1.122  11.925   1.108 -0.4031 -0.1136  0.2647
 7000W        W23848  11.080  11.618   3.214  0.1135 -0.1571 -0.0623
 7001W        W23849  13.785  11.961   2.877 -0.0920 -0.2104  0.0573
 7002W        W23850   1.286  16.664   0.483 -0.0237  0.1006 -0.0240
 7003W        W23851   2.507   9.155  13.667 -0.1849  0.0553 -0.1817
 7004W        W23852  12.200   2.670   1.727 -0.0173  0.0626  0.0843
 7005W        W23853   0.108   0.381   0.188 -0.0138  0.0747 -0.3869
 7006W        W23854   5.110  11.536  13.607 -0.1435  0.0842  0.1442
 7007W        W23855  17.373  13.853   2.592 -0.2035  0.1855  0.0816
 7008W        W23856  14.820  11.770  13.661  0.0525  0.1942  0.1852
 7009W        W23857  12.372   4.001  13.692 -0.2269  0.0231 -0.2422
 7010W        W23858  13.772  11.622  15.910 -0.0873  0.2288  0.0304
 7011W        W23859   1.459  16.277  15.104  0.3053 -0.1405  0.1116
 7012W        W23860   2.746   1.984   3.732  0.1252  0.2005 -0.1630
 7013W        W23861  13.322   0.062   0.025 -0.0626 -0.3569 -0.3376
 7014W        W23862   1.294   4.498  12.267 -0.3974 -0.0036  0.1941
 7015W        W23863   6.263   7.634   2.340 -0.3176  0.0816  0.2510
 7016W        W23864  10.788   6.228  14.481  0.0316 -0.0860  0.2380
 7017W        W23865  12.529   8.610  15.840 -0.2066 -0.0201 -0.3391
 7018W        W23866   7.419   1.495  16.009  0.1994 -0.2797  0.1072
 7019W        W23867   0.580   3.102  11.852  0.2449  0.0762 -0.2164
 7020W        W23868   5.143  12.787  15.217 -0.0452 -0.0401  0.0005
 7021W        W23869  14.556   2.141   5.478  0.0813 -0.1533 -0.3221
 7022W        W23870   4.364   5.120   2.555 -0.0588  0.0447 -0.0477
 7023W        W23871  16.502  17.209   4.629 -0.1785  0.2500 -0.2664
 7024W        W23872   7.928  16.795   3.921  0.1666  0.0362  0.1054
 7025W        W23873   1.164   3.472  12.550  0.3374 -0.0959 -0.3865
 7026W        W23874  12.885  12.602   2.741 -0.2561 -0.3016 -0.1641
 7027W        W23875  15.467   9.767   2.797  0.1399 -0.1348 -0.1898
 7028W        W23876  16.326  15.825  16.008 -0.3230 -0.0273 -0.2448
 7029W        W23877   6.542   1.953  16.042 -0.3406 -0.0893  0.0264
 7030W        W23878  14.374  13.645  11.810 -0.0088  0.0805  0.0664
 7031W        W23879   1.122   3.761   0.457 -0.1409  0.0697  0.2663
 7032W        W23880  17.579   4.600   1.190 -0.2441 -0.1420 -0.0574
 7033W        W23881   4.201   0.189   3.295  0.2059 -0.0507 -0.1304
 7034W        W23882   9.648  10.567   5.495 -0.2981 -0.1828 -0.0973
 7035W        W23883   6.670  15.212   0.791  0.3957 -0.0377 -0.0254
 7036W        W23884   2.351   9.171  12.678  0.4094  0.2172  0.0718
 7037W        W23885  12.026   2.902  11.344  0.1382 -0.2305 -0.0969
 7038W        W23886   7.541  13.583   4.845 -0.1959  0.0592  0.0603
 7039W        W23887  14.100   1.821   4.421 -0.1865  0.5460 -0.1184
 7040W        W23888   7.728   6.823   3.698  0.1295  0.0134  0.0827
 7041W        W23889  13.445   0.459  11.322 -0.1365  0.0481 -0.1656
 7042W        W23890  12.117   7.285   5.289 -0.0570 -0.0849 -0.0600
 7043W        W23891  11.486   3.836  12.683  0.2033  0.1529  0.2295
 7044W        W23892   1.303  16.914  16.327 -0.1443  0.1042 -0.0246
 7045W        W23893   0.732  15.348   3.458  0.3805  0.0125  0.2888
 7046W        W23894  11.963   3.391   2.206 -0.0367 -0.3844  0.1806
 7047W        W23895   3.070   1.156   3.165  0.1887  0.2825 -0.0736
 7048W        W23896  13.611   7.081   1.226 -0.0654  0.1084  0.2150
 7049W        W23897   5.416  12.195   4.794  0.3028 -0.2099 -0.1520
 7050W        W23898   3.484  16.909  15.544 -0.0025 -0.0790 -0.0481
 7051W        W23899  16.000  10.109  14.301  0.1925 -0.0614 -0.1460
 7052W        W23900  11.558   4.064  15.845 -0.0863 -0.1544  0.0722
 7053W        W23901  14.069  17.002   3.016 -0.1641 -0.2772  0.0821
 7054W        W23902  13.525  14.959   1.702 -0.0741 -0.1822  0.1367
 7055W        W23903   3.929   5.874  16.301 -0.0355  0.0501  0.1468
 7056W        W23904  11.863   6.110  16.649 -0.0092  0.0646  0.0609
 7057W        W23905  14.186   1.460   1.128  0.1364  0.2105 -0.2470
 7058W        W23906  11.423   0.730   0.239  0.0409  0.0178  0.0105
 7059W        W23907  16.601  17.315  13.714 -0.0245 -0.2686 -0.2340
 7060W        W23908  11.466  12.232  14.553  0.3778 -0.1401  0.0966
 7061W        W23909   1.675   0.186  13.662 -0.0440  0.0041 -0.0628
 7062W        W23910   9.699   3.529  12.921  0.1612  0.0359  0.0781
 7063W        W23911   0.848  14.333  15.548  0.2051  0.1730 -0.2323
 7064W        W23912   7.443   3.584   0.211  0.1725 -0.0407  0.0963
 7065W        W23913   5.745   3.611   0.703 -0.1239  0.1767 -0.0812
 7066W        W23914  11.338   3.601   3.055  0.1617 -0.2729 -0.1593
 7067W        W23915   1.897  13.147  15.503  0.3677 -0.0391 -0.2573
 7068W        W23916   1.602   8.371  13.553  0.1334  0.0887  0.2760
 7069W        W23917   1.309  16.977   5.657  0.2756 -0.0403  0.0677
 7070W        W23918   1.671   4.484   5.342  0.1117 -0.0634  0.1371
 7071W        W23919  15.192   1.539   3.129  0.0051  0.2810 -0.0580
 7072W        W23920   7.548  13.157  11.225  0.0574 -0.2786 -0.3148
 7073W        W23921  10.943   8.146  15.191  0.0062 -0.3423  0.1028
 7074W        W23922  10.227   5.070  11.652  0.0062 -0.0604 -0.2406
 7075W        W23923  14.774   5.798  13.633  0.1709  0.0734 -0.1499
 7076W        W23924  14.293  10.084   2.878  0.1204 -0.1544  0.1895
 7077W        W23925  10.087   4.001   2.476 -0.1372  0.3968  0.0198
 7078W        W23926   2.482  11.485  11.436 -0.1470 -0.1607  0.0419
 7079W        W23927   1.788  13.997  15.167  0.1583  0.0570  0.2876
 7080W        W23928  16.233  17.510   1.152 -0.0144 -0.0044 -0.0968
 7081W        W23929   5.615   9.615  14.823 -0.1278  0.0675 -0.0452
 7082W        W23930   3.041  10.325   3.348  0.0022 -0.0128  0.1872
 7083W        W23931  14.737  13.563   3.788 -0.1757 -0.0761 -0.0255
 7084W        W23932   5.911  17.236  12.230  0.2946 -0.1483  0.2273
 7085W        W23933  16.311   5.104   2.255 -0.0200 -0.2003 -0.0747
 7086W        W23934  10.271   1.287   4.124 -0.0931  0.0500 -0.1455
 7087W        W23935   1.391   9.771   2.590 -0.1709 -0.2547  0.1552
 7088W        W23936   9.088  13.687   3.757 -0.0109 -0.2744 -0.2371
 7089W        W23937   4.936   1.793   0.817 -0.0322  0.0340 -0.3338
 7090W        W23938  15.537   9.269  10.387  0.1598 -0.0078  0.1714
 7091W        W23939   1.252  16.241   3.934  0.2466 -0.1321  0.1618
 7092W        W23940   3.686   0.920   3.663  0.1156 -0.1918 -0.3635
 7093W        W23941   4.162  11.813  16.398 -0.3627  0.0617 -0.0226
 7094W        W23942  15.365   9.076   4.511  0.0545  0.0217 -0.1721
 7095W        W23943   8.826   8.556   2.165  0.1583  0.0778 -0.2941
 7096W        W23944  10.361   0.034  13.761  0.1342 -0.0667 -0.5322
 7097W        W23945   7.288  15.162  14.943 -0.0265  0.0011  0.1624
 7098W        W23946  10.619  16.911   1.334 -0.0113 -0.1377 -0.0455
 7099W        W23947   5.378   1.427  15.989 -0.1603  0.0186 -0.0595
 7100W        W23948   7.351   3.058  11.530  0.0399  0.1644 -0.1661
 7101W        W23949  16.563  14.200  12.948 -0.3416  0.1675  0.0794
 7102W        W23950  13.156  13.106   1.633 -0.1694  0.4578  0.2568
 7103W        W23951   5.246   3.583   3.179 -0.0557  0.0359  0.2000
 7104W        W23952  13.853  14.460  13.540 -0.0548 -0.3003  0.0060
 7105W        W23953   0.672  16.623  15.194 -0.0928 -0.1019 -0.0085
 7106W        W23954  13.146   6.789   2.828 -0.2380  0.1831  0.0579
 7107W        W23955  13.924   5.177   2.616  0.0893 -0.1040 -0.0978
 7108W        W23956  10.188  16.481  13.386 -0.3556  0.1230  0.2072
 7109W        W23957   6.889  11.256  15.802  0.1346 -0.0748  0.1882
 7110W        W23958   4.903   4.521  15.265 -0.0666  0.1540 -0.0430
 7111W        W23959  12.791  14.264   1.322 -0.2638 -0.2543  0.1180
 7112W        W23960   2.447  12.586   3.636 -0.0904  0.1803  0.0845
 7113W        W23961   6.396   7.494  13.793 -0.0687 -0.1550  0.0652
 7114W        W23962   2.424   7.031  16.362  0.1129  0.1084  0.2638
 7115W        W23963   7.264  17.271   0.019  0.0571 -0.2040  0.0040
 7116W        W23964   1.954   4.693   4.960  0.0093  0.1158  0.2541
 7117W        W23965   4.193  14.815  13.126  0.2304  0.1700  0.0676
 7118W        W23966   1.288   7.650   5.414  0.0272  0.2184 -0.1211
 7119W        W23967  10.636   6.533   3.620  0.0452  0.0366 -0.0427
 7120W        W23968   2.365   5.423  15.149  0.1255  0.1312  0.2482
 7121W        W23969   8.364  12.526  12.348 -0.1141  0.1177  0.0372
 7122W        W23970   8.314  15.925  12.198 -0.1095 -0.1001  0.2258
 7123W        W23971   5.530   3.767  13.771 -0.1304 -0.1822 -0.3078
 7124W        W23972   7.026   5.383  16.095 -0.0615 -0.1356 -0.0624
 7125W        W23973   6.150   4.762  12.762  0.0078  0.0222 -0.1083
 7126W        W23974  13.725  17.106  13.460  0.0932 -0.0085  0.2820
 7127W        W23975  15.983   9.586  12.718  0.0559  0.0830 -0.1362
 7128W        W23976  14.043  10.020  14.388 -0.0616 -0.2487 -0.1361
 7129W        W23977  14.279   5.143   6.107 -0.2262  0.1311 -0.3380
 7130W        W23978  14.530   6.068   4.290 -0.0940  0.1103  0.0497
 7131W        W23979  14.687  16.879   3.413  0.1686 -0.2212 -0.0897
 7132W        W23980  12.346  17.547  13.795 -0.3259  0.2298 -0.0601
 7133W        W23981  15.129  12.102   3.743 -0.1429 -0.2030 -0.1287
 7134W        W23982   9.754  16.484   1.368 -0.0749  0.2094 -0.0872
 7135W        W23983  14.795  13.221   2.235  0.0220  0.0777 -0.1428
 7136W        W23984  11.659   6.518  15.528  0.0965 -0.0979 -0.0510
 7137W        W23985  13.769   9.353  12.461  0.1146  0.0496  0.0187
 7138W        W23986   5.423  11.116  16.300 -0.0632 -0.0527  0.2067
 7139W        W23987   8.092   2.643   3.208  0.3489 -0.0406 -0.1880
 7140W        W23988   3.356   0.427   0.983  0.1522 -0.0699  0.0675
 7141W        W23989  12.155  14.828   0.105  0.1195 -0.1665 -0.1424
 7142W        W23990   5.839  11.195   2.434  0.1746 -0.1893  0.1053
 7143W        W23991  15.734   8.443  14.261  0.0966 -0.2136  0.1682
 7144W        W23992  10.758  13.356   1.986 -0.2070  0.1267 -0.2514
 7145W        W23993   5.151  17.051   4.003 -0.4617 -0.3824 -0.1712
 7146W        W23994  17.630   3.682  15.545 -0.1375  0.0068 -0.0477
 7147W        W23995   1.646   4.382  12.701 -0.0298 -0.1236  0.0242
 7148W        W23996  11.206  14.570  13.316  0.2791 -0.0867 -0.2184
 7149W        W23997   8.516  14.302   1.063 -0.0424  0.0530  0.0731
 7150W        W23998   2.751  11.741  12.341 -0.1065 -0.1488 -0.0643
 7151W        W23999   7.087   2.734  16.257  0.1538  0.2414  0.1557
 7152W        W24000  12.131   7.763   0.339  0.3754  0.1863 -0.0854
 7153W        W24001  15.407   8.061   2.831  0.0844 -0.1056 -0.1539
 7154W        W24002  13.757   8.181  15.422  0.0540  0.3388  0.2111
 7155W        W24003   8.944  13.958  13.735 -0.0833 -0.2590  0.0323
 7156W        W24004  11.715  10.786   0.386  0.0242 -0.1491 -0.1256
 7157W        W24005  13.352   3.238  11.388  0.1758  0.1598 -0.1356
 7158W        W24006  10.374  14.698  13.343 -0.2254 -0.1780 -0.0615
 7159W        W24007   4.733   0.583  15.209  0.1118 -0.0232 -0.0208
 7160W        W24008  14.639   6.390   4.899  0.0239  0.2757 -0.2210
 7161W        W24009  12.182  14.198   2.135 -0.1822 -0.2815 -0.1885
 7162W        W24010   0.888   6.894  14.045 -0.0281 -0.1419 -0.0115
 7163W        W24011   8.327   8.779   4.746 -0.0416 -0.2465  0.0635
 7164W        W24012  13.769  14.931  12.329 -0.3952 -0.2098  0.0196
 7165W        W24013  14.357  17.362  15.169  0.1432 -0.0714  0.0331
 7166W        W24014  16.876   5.715   3.763  0.0915 -0.0285 -0.1534
 7167W        W24015   1.871  12.589   1.070  0.1116  0.0102 -0.0341
 7168W        W24016  12.745  15.500   3.176  0.0566 -0.1340 -0.0505
 7169W        W24017   2.714   0.735  15.011 -0.1192  0.0090 -0.0419
 7170W        W24018  11.028   5.019  11.377 -0.0147  0.1045 -0.2680
 7171W        W24019  10.766  14.708   4.150 -0.1949 -0.1677 -0.4298
 7172W        W24020  11.443  16.490   4.096  0.0111 -0.0487 -0.1084
 7173W        W24021  15.239   5.332  12.131 -0.0908  0.0351 -0.0060
 7174W        W24022   5.347   3.533  12.027 -0.0970  0.1208  0.0486
 7175W        W24023  15.657   7.697  14.767  0.0117 -0.0508  0.2801
 7176W        W24024  15.651   0.258  15.836  0.1562  0.2739 -0.1003
 7177W        W24025   4.667   8.081  16.354  0.0386 -0.1942 -0.1297
 7178W        W24026   5.976   7.165   3.474 -0.1020 -0.1444 -0.3537
 7179W        W24027  14.325   3.390   2.213  0.0606 -0.1138 -0.1303
 7180W        W24028   6.754  10.780   0.463  0.1132 -0.1730 -0.1636
 7181W        W24029   2.742  15.087  10.875 -0.2311 -0.3397 -0.0700
 7182W        W24030   4.521   2.648  16.234 -0.4126  0.1357 -0.3436
 7183W        W24031   5.083  14.079   4.536 -0.0992 -0.2270  0.0318
 7184W        W24032   4.588  17.613  13.956  0.0205  0.0514 -0.0908
 7185W        W24033   0.938   7.488   1.545 -0.0631 -0.1126  0.0843
 7186W        W24034  15.275  12.701  15.283  0.1441 -0.0515 -0.2360
 7187W        W24035   2.093   9.547  12.908  0.0646 -0.2316 -0.0827
 7188W        W24036  17.623   2.263  14.052  0.0165 -0.0020 -0.0409
 7189W        W24037   3.501   4.968  14.460 -0.0181 -0.1357 -0.0055
 7190W        W24038   6.392  16.918   4.785 -0.1822  0.1500  0.0015
 7191W        W24039   1.649  17.192  13.548 -0.4450  0.1377  0.3522
 7192W        W24040   8.400   2.082   2.992 -0.5543 -0.3135 -0.3522
 7193W        W24041   0.783  16.172  14.208 -0.1868 -0.1559 -0.2645
 7194W        W24042  16.662  10.323   1.870  0.1099  0.1257 -0.1713
 7195W        W24043   4.979  17.613   2.750  0.4086  0.0747 -0.0580
 7196W        W24044  16.326   2.100   3.405  0.1454 -0.0021 -0.1613
 7197W        W24045   4.861  11.896  15.565  0.0322 -0.1992  0.3457
 7198W        W24046  10.706   5.584   0.383 -0.0974  0.0991 -0.1916
 7199W        W24047   8.637  12.513   4.164 -0.0557  0.1027 -0.0067
 7200W        W24048   9.759   0.528  15.141  0.0782  0.3044  0.1421
 7201W        W24049  15.120   0.305   0.686  0.2924  0.0498  0.0234
 7202W        W24050   1.083   5.447   2.187  0.0323  0.0759 -0.2135
 7203W        W24051   4.444   1.308   3.755  0.1525 -0.0380  0.1240
 7204W        W24052  12.037   3.708   0.914 -0.2566  0.1007 -0.1617
 7205W        W24053  16.087  11.641  12.037  0.1715 -0.0457  0.1257
 7206W        W24054   4.598  13.449   0.180  0.0765 -0.0249 -0.1412
 7207W        W24055  11.920  14.877  15.310  0.1926  0.2817  0.0562
 7208W        W24056  12.814  10.933   0.640 -0.1006 -0.1347 -0.2933
 7209W        W24057   1.828  11.460  12.757 -0.0963  0.1726 -0.2027
 7210W        W24058   4.872  16.867   2.334 -0.0341  0.1187 -0.0584
 7211W        W24059   6.744   4.272   1.681 -0.1913 -0.1048  0.0318
 7212W        W24060  16.661  16.241   2.112  0.1615 -0.0552  0.1631
 7213W        W24061   3.000  13.297  12.700 -0.0413 -0.2138  0.0853
 7214W        W24062   7.707   6.169   1.028  0.1013 -0.1393 -0.0099
 7215W        W24063   7.951   0.128   0.416  0.1944 -0.0041 -0.0390
 7216W        W24064   7.067   7.412   2.400 -0.2682 -0.2510  0.0962
 7217W        W24065   1.741   7.504  11.846  0.0302 -0.1159 -0.2292
 7218W        W24066   4.876   2.667  13.183  0.0866 -0.0077 -0.0189
 7219W        W24067  11.641   6.519  12.556 -0.0783  0.0457 -0.2975
 7220W        W24068  17.293   7.961   0.378  0.1670 -0.0753  0.3064
 7221W        W24069  14.214   4.264  16.278  0.1926  0.3141 -0.0115
 7222W        W24070  10.783   3.744   3.057  0.2075  0.0311 -0.0425
 7223W        W24071   6.453  14.764   4.515  0.2442 -0.2849  0.0070
 7224W        W24072  13.569   1.675  13.416  0.1557 -0.0580  0.1170
 7225W        W24073   3.295  16.820  11.216  0.0067  0.1136  0.0338
 7226W        W24074   7.566  10.998   1.970 -0.1256  0.2261 -0.0068
 7227W        W24075   6.273  14.604   2.300  0.1261  0.0297  0.4973
 7228W        W24076   2.840   1.184   1.055  0.2926  0.2653  0.2995
 7229W        W24077  13.155   5.752  12.713  0.0444 -0.0419  0.0501
 7230W        W24078   0.849  16.913   0.351 -0.0711  0.0706 -0.2298
 7231W        W24079  12.772   1.573   5.246  0.0213 -0.2283 -0.0131
 7232W        W24080  14.214   4.601  12.455  0.1629 -0.0271  0.1262
 7233W        W24081  10.334   1.260   0.928 -0.1731 -0.2969 -0.0919
 7234W        W24082  10.490   9.394  14.131 -0.1867 -0.2884 -0.2414
 7235W        W24083  13.947   0.452   1.203 -0.1486 -0.0701 -0.1862
 7236W        W24084   5.825  12.022  12.963 -0.3097  0.2140 -0.3570
 7237W        W24085   3.255   8.934   1.396 -0.0972 -0.1813  0.0888
 7238W        W24086  13.410  10.614  13.181  0.0551  0.2336  0.1815
 7239W        W24087   7.312   4.460  14.104 -0.0767  0.1714 -0.4010
 7240W        W24088   7.442   4.903   3.123  0.4256 -0.0799 -0.0787
 7241W        W24089  11.103  10.764   1.264  0.1204 -0.0093 -0.3217
 7242W        W24090   7.917  16.872   1.733  0.0674  0.2542  0.0815
 7243W        W24091  13.351   8.595   1.885 -0.2740  0.0474 -0.2749
 7244W        W24092  16.268  10.489  14.205  0.0421 -0.0206  0.0521
 7245W        W24093  12.411   8.043   3.142 -0.1017 -0.1819 -0.2134
 7246W        W24094  12.175   4.896  14.310  0.3150  0.0122 -0.1226
 7247W        W24095   9.264  11.135   1.293 -0.3226 -0.0584  0.0814
 7248W        W24096   1.487  16.575  14.135  0.0123  0.0444 -0.2693
 7249W        W24097   8.000   4.467  12.328  0.1510  0.0765  0.0363
 7250W        W24098  15.840   6.682  14.099 -0.0481  0.2493  0.0436
 7251W        W24099  11.878  14.594  11.525 -0.0976  0.1786 -0.1031
 7252W        W24100   7.956   5.884   4.698  0.3120 -0.1304  0.1357
 7253W        W24101  12.234  14.861  13.300 -0.1048  0.0698 -0.1273
 7254W        W24102  16.120   5.165   0.384 -0.2075  0.0595 -0.3712
 7255W        W24103   2.774   2.568  13.066  0.0910  0.0345 -0.2064
 7256W        W24104   3.118   5.310  11.429  0.3086  0.2552 -0.0152
 7257W        W24105  16.485  12.793   0.399  0.0201  0.0851  0.1386
 7258W        W24106  16.746   8.968  15.314  0.2367 -0.0223 -0.1697
 7259W        W24107   2.056   9.024   5.305  0.1434 -0.0240 -0.0506
 7260W        W24108  12.223   2.282  13.609 -0.0237  0.0775  0.1627
 7261W        W24109  14.784   6.724   4.516 -0.0929  0.0769 -0.0703
 7262W        W24110  15.542   3.776  14.227  0.0232  0.1246  0.0928
 7263W        W24111  16.593  13.417  12.317  0.0192  0.1348 -0.0760
 7264W        W24112  10.765   4.281  15.290  0.1736 -0.1807 -0.0173
 7265W        W24113  17.330  15.403  12.187 -0.0604 -0.0410  0.2950
 7266W        W24114   1.131   8.344  13.666 -0.1153  0.0697 -0.1518
 7267W        W24115   5.327  15.756   1.438  0.0069 -0.0270  0.3563
 7268W        W24116   5.600   6.669  14.473 -0.3188 -0.3877 -0.1735
 7269W        W24117   0.319   1.390   3.286  0.1256 -0.1178 -0.0904
 7270W        W24118   8.436  16.595   3.995  0.1934  0.1048  0.1221
 7271W        W24119   1.077  17.559  15.725  0.0420  0.2213 -0.0632
 7272W        W24120  15.381  12.442   0.486  0.2674  0.0786 -0.0902
 7273W        W24121   5.287   3.073   4.046 -0.0495 -0.1593 -0.2827
 7274W        W24122   0.888  12.693   5.588  0.0899  0.1114 -0.1093
 7275W        W24123  16.072   7.920   5.320  0.2796 -0.3192  0.2086
 7276W        W24124  14.347   4.711   2.750 -0.0998  0.1083  0.1621
 7277W        W24125  12.740   3.243  12.989 -0.1982  0.1217 -0.1229
 7278W        W24126  15.944  17.036  10.782  0.4027  0.0620  0.4078
 7279W        W24127  11.397   7.141   2.824  0.3629  0.1010 -0.1784
 7280W        W24128  13.093   1.712   6.290 -0.4493 -0.1591 -0.1124
 7281W        W24129   0.536  11.037   2.324  0.1311  0.2034  0.0324
 7282W        W24130  14.095   0.319   3.690  0.1862  0.0414 -0.2395
 7283W        W24131  13.645   4.339  15.026 -0.3125 -0.1355 -0.2679
 7284W        W24132  12.893  11.578  14.015  0.3181  0.1192 -0.1171
 7285W        W24133  11.027  17.322   0.575 -0.0214  0.3324 -0.0848
 7286W        W24134   3.096  13.620  15.719  0.1273 -0.0018 -0.3334
 7287W        W24135   1.871  15.223  13.694 -0.1838  0.1600 -0.0324
 7288W        W24136  14.113  10.354   1.865 -0.0468  0.1150  0.1990
 7289W        W24137  12.127  15.153   2.561  0.0904 -0.0509  0.3890
 7290W        W24138  16.462   8.564  15.380 -0.3302 -0.0117 -0.0841
 7291W        W24139   9.576   5.577   2.299 -0.0458 -0.2093  0.1492
 7292W        W24140  17.213   0.722  14.765  0.1697  0.0001 -0.3103
 7293W        W24141   8.612   7.593   0.675 -0.0095  0.0853 -0.1178
 7294W        W24142  13.427   8.160   3.805  0.2161 -0.1697  0.0575
 7295W        W24143  10.418  10.836  12.318  0.1896  0.0462 -0.2506
 7296W        W24144  17.222  16.051   1.356 -0.1953 -0.0295  0.2445
 7297W        W24145   1.827  11.096   0.880  0.2807 -0.3108  0.1676
 7298W        W24146   4.939   7.639   3.144 -0.0108 -0.0993 -0.2766
 7299W        W24147   3.581   3.706   1.207 -0.0458  0.3059 -0.1429
 7300W        W24148   8.337   2.454   2.476 -0.2383  0.0669  0.1017
 7301W        W24149   4.557   4.994   4.381  0.0426  0.1729 -0.4380
 7302W        W24150   5.649  13.997  11.681  0.0433 -0.1796 -0.0447
 7303W        W24151   6.850   9.676   2.723  0.1249 -0.0574 -0.1855
 7304W        W24152  10.319   7.656   3.785  0.0639 -0.1201 -0.1420
 7305W        W24153  16.172   5.367  13.919 -0.0768 -0.2471 -0.1142
 7306W        W24154  17.574   6.964   2.963  0.2578 -0.1143  0.1781
 7307W        W24155   0.518   2.256   1.211 -0.3180 -0.2954 -0.0102
 7308W        W24156  11.150   7.901   4.268 -0.2427 -0.0005  0.3110
 7309W        W24157   2.398  15.924  11.587  0.0565 -0.0933 -0.0322
 7310W        W24158  15.593  14.629   4.355 -0.1072 -0.3171  0.0505
 7311W        W24159  16.482  17.505   1.679 -0.0434 -0.1377 -0.0138
 7312W        W24160   4.031  10.176   2.091  0.1194  0.0048 -0.1848
 7313W        W24161   9.984  13.091   0.099  0.1301 -0.2141  0.1388
 7314W        W24162  15.894   3.851  14.985 -0.1859 -0.1607  0.3098
 7315W        W24163   1.090   3.399   4.695 -0.3277 -0.2076 -0.0386
 7316W        W24164   9.938  13.020   2.096 -0.1180 -0.0418  0.1129
 7317W        W24165   6.486   4.315   0.154  0.0740 -0.0422  0.0222
 7318W        W24166   7.490   6.736   1.935 -0.0728  0.0325 -0.2376
 7319W        W24167   2.595   1.954   4.601  0.0325 -0.0036 -0.2703
 7320W        W24168   2.476  10.024  12.257  0.0589  0.1552  0.2090
 7321W        W24169  11.906  13.843   3.462 -0.0198 -0.0978  0.1503
 7322W        W24170   3.320  14.407   1.852  0.1292 -0.0724 -0.0764
 7323W        W24171   5.731   7.654   2.387  0.1731 -0.3013 -0.0733
 7324W        W24172   5.447  16.553  14.813 -0.1348  0.5032 -0.3153
 7325W        W24173   1.414  15.755   5.809 -0.0849 -0.3590 -0.0583
 7326W        W24174   0.842   7.442  14.045 -0.1597  0.1966 -0.2088
 7327W        W24175  12.437  17.089   2.976 -0.1282  0.0727 -0.1941
 7328W        W24176  16.804   4.890  15.333  0.0910 -0.0058  0.1607
 7329W        W24177   0.109  13.446   4.014  0.1406  0.2324  0.0745
 7330W        W24178  15.796  16.430   5.367  0.3412  0.1408  0.2988
 7331W        W24179  16.307   4.239   4.157  0.2295 -0.0062 -0.1434
 7332W        W24180   9.459   8.410  15.103 -0.0316 -0.1296  0.1520
 7333W        W24181   7.530   3.431  13.084  0.3002  0.0890 -0.0778
 7334W        W24182  14.888   9.903   4.099  0.1516  0.0108 -0.1483
 7335W        W24183  13.859   9.242  12.021  0.1941  0.1581 -0.1071
 7336W        W24184  16.344  15.110   2.926 -0.2445  0.0599  0.2888
 7337W        W24185  12.331   9.027   0.916 -0.2186  0.0063  0.2640
 7338W        W24186  16.994   1.535  14.378 -0.1263  0.2427  0.0091
 7339W        W24187   1.332   4.893   0.764  0.2923 -0.4077 -0.4269
 7340W        W24188   4.277   1.964  15.761 -0.2478 -0.1278  0.1211
 7341W        W24189  16.530  12.783   0.891 -0.1024  0.1624  0.0531
 7342W        W24190  11.732  16.357  12.410 -0.2046 -0.2102  0.0203
 7343W        W24191  10.264  12.805  15.987  0.0633 -0.1163  0.3773
 7344W        W24192   3.326   5.857  13.245  0.0842 -0.3276 -0.3537
 7345W        W24193   8.921   2.403   4.461  0.1173 -0.1291 -0.2111
 7346W        W24194  10.084   6.513  15.395 -0.1327  0.3690  0.4411
 7347W        W24195   3.858  11.622  11.414 -0.2354 -0.1087  0.0127
 7348W        W24196   8.399   8.311  14.415  0.1808  0.0308  0.4849
 7349W        W24197  11.362  14.347   0.390  0.5275  0.1102 -0.0601
 7350W        W24198   3.029  12.748   3.780 -0.1453  0.1421 -0.0961
 7351W        W24199   1.983  12.207  15.096  0.0024 -0.4408  0.2776
 7352W        W24200   1.099   7.489   0.692 -0.0461 -0.0528 -0.1003
 7353W        W24201   0.156  17.144  12.083  0.1032 -0.2252  0.1648
 7354W        W24202   9.226   0.466   0.985 -0.1444  0.1846  0.2984
 7355W        W24203   2.752  10.630  12.458  0.0128 -0.0361 -0.0443
 7356W        W24204   2.347  10.835  14.277 -0.0878  0.0341  0.4195
 7357W        W24205   4.639  12.690   0.867 -0.1946 -0.0664 -0.1973
 7358W        W24206  15.322   0.938   2.483  0.1415 -0.1377 -0.1231
 7359W        W24207  11.741  11.921  14.829 -0.2284 -0.0044 -0.2750
 7360W        W24208   1.496   9.432   4.874 -0.1628 -0.1881 -0.0146
 7361W        W24209   3.058   0.611  12.482 -0.1012  0.0647  0.0778
 7362W        W24210   3.049  16.880  16.383 -0.1254 -0.1238 -0.0112
 7363W        W24211   1.832   7.273  12.324  0.0222 -0.0994  0.2246
 7364W        W24212   0.286   9.490   1.064  0.0878 -0.1307 -0.2691
 7365W        W24213  15.996  10.077   4.804  0.1876  0.0147 -0.1087
 7366W        W24214   5.110   7.638   4.769 -0.0827 -0.2248 -0.2424
 7367W        W24215   9.206  10.255   1.143  0.0853  0.1586  0.1633
 7368W        W24216  14.802  12.941  16.052  0.0015 -0.0094 -0.0586
 7369W        W24217   9.086   3.541  12.871 -0.3634 -0.2269 -0.1002
 7370W        W24218   7.440  10.249  14.811 -0.2248  0.1936  0.1656
 7371W        W24219   2.970   1.633   5.387 -0.2536  0.0307 -0.1997
 7372W        W24220   0.752  11.278  14.913 -0.4151  0.4622  0.0042
 7373W        W24221  16.955  13.886  12.704 -0.0023  0.0426  0.1330
 7374W        W24222   8.319   2.978  16.119 -0.0764  0.0921  0.1902
 7375W        W24223  13.000  14.487  13.524  0.0394 -0.0064 -0.0797
 7376W        W24224   7.801  13.824   1.703  0.1616 -0.1218  0.2440
 7377W        W24225  13.585   1.207   2.814 -0.4452  0.0595  0.1739
 7378W        W24226   6.334  17.700   1.106  0.0046  0.0278 -0.1088
 7379W        W24227  12.374   5.396   2.000  0.0880  0.2635 -0.0193
 7380W        W24228   3.357  11.695   1.034  0.1165  0.1049 -0.3079
 7381W        W24229   1.533   4.512   2.411  0.2469 -0.1990 -0.1832
 7382W        W24230  13.806  16.391  16.170  0.1172 -0.1287  0.0795
 7383W        W24231   7.048  15.105   1.099 -0.0987  0.1860  0.0187
 7384W        W24232  15.541   2.705  13.130  0.3559  0.0521  0.0058
 7385W        W24233   5.743   5.086   3.413  0.2400 -0.2834  0.0869
 7386W        W24234  14.939  10.680  13.825  0.3026 -0.0345  0.3042
 7387W        W24235  11.811   9.265  14.986 -0.0456  0.1737  0.2081
 7388W        W24236  10.349  14.301   1.892 -0.0920  0.0209 -0.0791
 7389W        W24237   7.080   5.009  15.766  0.0747 -0.0531 -0.0122
 7390W        W24238   7.071   6.204  14.373  0.0841 -0.0443 -0.2574
 7391W        W24239   9.473   8.046   0.833 -0.2323 -0.2556 -0.0273
 7392W        W24240   4.772   1.862  14.933  0.1037 -0.0324  0.1694
 7393W        W24241   0.410  17.599   2.948  0.0210  0.2119  0.2155
 7394W        W24242  12.427  17.252   1.150 -0.0354 -0.1150  0.1618
 7395W        W24243   1.643  13.977  16.551  0.3214  0.2909 -0.2776
 7396W        W24244  11.159   0.703  13.340 -0.0983 -0.1740  0.0644
 7397W        W24245  12.647   5.195  12.451 -0.0748  0.1202 -0.0702
 7398W        W24246   1.527  12.955  11.669  0.3431  0.1207  0.0030
 7399W        W24247   2.799  13.957  12.144 -0.1825  0.0845  0.0778
 7400W        W24248  17.080   7.854  12.833 -0.0690  0.2230  0.0536
 7401W        W24249   6.049  12.605  13.920  0.0611 -0.1560 -0.0312
 7402W        W24250   2.266  15.730  15.764  0.5189  0.0139 -0.1189
 7403W        W24251   8.928   7.724  15.326  0.0235 -0.1199 -0.1473
 7404W        W24252  16.023  14.706   1.211 -0.0107 -0.0410 -0.0799
 7405W        W24253   5.587   9.241  15.611 -0.0798 -0.3133  0.3333
 7406W        W24254  12.776  16.230   1.843  0.1787 -0.2334 -0.3244
 7407W        W24255   0.349  11.646   4.170  0.2943 -0.5072  0.0965
 7408W        W24256  13.169   9.217   3.905 -0.1709  0.1121 -0.1654
 7409W        W24257   7.209   5.969   2.277  0.1934 -0.0926 -0.1646
 7410W        W24258   3.669   6.043   0.367 -0.0446  0.3102 -0.0653
 7411W        W24259   1.447   5.715   3.202 -0.0245 -0.0953 -0.0130
 7412W        W24260  13.044  17.003  14.243  0.3692 -0.2106 -0.0528
 7413W        W24261  14.304  13.088  13.603 -0.0686  0.1397 -0.0547
 7414W        W24262  17.010  14.990  12.277  0.2009 -0.4880  0.0906
 7415W        W24263   5.145   4.403  11.822 -0.1364 -0.0525  0.0133
 7416W        W24264  13.417  15.481  15.230 -0.0060 -0.0258  0.0378
 7417W        W24265  15.942  17.552   1.675 -0.0281  0.1188  0.0207
 7418W        W24266   3.584  16.111   6.151 -0.2986  0.2779 -0.4170
 7419W        W24267  10.848   1.438   3.247  0.1244  0.0494 -0.1160
 7420W        W24268  13.902   8.774   0.929  0.3927  0.1514  0.4818
 7421W        W24269   7.568  12.385  15.269  0.2067 -0.2219 -0.0140
 7422W        W24270  12.820   8.339   0.283  0.3619  0.2718  0.0081
 7423W        W24271   2.154  12.474  15.963 -0.2177 -0.1842 -0.1871
 7424W        W24272   9.313   7.485  14.707 -0.1430  0.0036 -0.3033
 7425W        W24273  10.675  12.584  11.423 -0.0236 -0.2908  0.2208
 7426W        W24274  15.429  14.824  13.739  0.2096  0.1295  0.1290
 7427W        W24275  13.808  10.274   2.289  0.0678 -0.3390  0.1393
 7428W        W24276   9.522   6.735   0.847  0.3138  0.1048  0.0306
 7429W        W24277  15.812   7.317   2.673  0.1226  0.1608  0.3777
 7430W        W24278  15.491  16.761  14.187  0.2366  0.0494 -0.0390
 7431W        W24279   1.032   5.769  12.116  0.1020  0.0010 -0.0725
 7432W        W24280   1.088   1.420  14.262 -0.1563 -0.1066  0.1148
 7433W        W24281  13.620  11.246  13.963  0.0492  0.0288 -0.0453
 7434W        W24282  14.675   5.557   3.622  0.1185  0.0939 -0.1315
 7435W        W24283   4.172  14.393   5.101  0.1006  0.0004  0.3239
 7436W        W24284  16.250   5.418   1.457  0.1093  0.0492  0.0120
 7437W        W24285  13.808  11.301  12.077  0.1303  0.1544  0.1000
 7438W        W24286  10.411   8.684  15.977 -0.2345 -0.2273  0.0187
 7439W        W24287  13.412   2.225  16.099  0.2012 -0.2254  0.1436
 7440W        W24288  12.841  15.582   4.192 -0.1864 -0.0502 -0.0023
 7441W        W24289   2.226   2.369   3.937 -0.2508  0.0200 -0.1399
 7442W        W24290   4.063  10.098  15.141 -0.2001  0.0479 -0.2844
 7443W        W24291   5.418  15.285  15.324 -0.2856 -0.2097 -0.1940
 7444W        W24292  10.084  11.047  13.501  0.1306 -0.2354  0.2874
 7445W        W24293  12.124   0.162  12.614 -0.1488  0.1404  0.1159
 7446W        W24294   7.628   6.360   3.501  0.0939 -0.0916 -0.3195
 7447W        W24295   5.922  11.597  15.116 -0.3271 -0.1015 -0.2624
 7448W        W24296  10.169   3.802   1.060 -0.1688  0.1069  0.0589
 7449W        W24297  10.048   1.530   4.524 -0.1909  0.1200  0.3960
 7450W        W24298  14.673   7.224  13.287  0.2175  0.1026 -0.2503
 7451W        W24299   0.202   3.974   1.830 -0.2177  0.0271  0.2914
 7452W        W24300  15.852   2.679  15.781 -0.0047 -0.2776  0.2012
 7453W        W24301   8.049  14.231   4.554  0.0080 -0.2857  0.0422
 7454W        W24302   1.565  16.303   2.362  0.1734 -0.0247 -0.0454
 7455W        W24303   6.839   1.411   1.552  0.0291  0.3991 -0.0592
 7456W        W24304  15.754   6.260  16.159  0.0107  0.0868 -0.0882
 7457W        W24305   6.864  13.776   2.202  0.0176 -0.2674 -0.0663
 7458W        W24306  13.194  10.080   3.485  0.0634  0.0461 -0.1654
 7459W        W24307   1.189  13.636   1.017  0.0945  0.0876 -0.3790
 7460W        W24308   3.601  11.347  12.309  0.0791 -0.1569  0.0722
 7461W        W24309   7.336  10.181   0.215 -0.1527  0.0716 -0.2574
 7462W        W24310  13.343   2.936   5.958  0.2012  0.2452 -0.0791
 7463W        W24311   0.841  13.040  12.332  0.0220  0.1591 -0.1772
 7464W        W24312   0.972  16.250  15.484  0.2431 -0.1092  0.1167
 7465W        W24313  16.462   0.162  15.829 -0.1294  0.2503 -0.0945
 7466W        W24314   5.521  12.929  11.916 -0.1230  0.0173  0.1798
 7467W        W24315  13.000  14.522   1.709  0.0391  0.1027 -0.0175
 7468W        W24316   5.301  10.177   3.253 -0.1874  0.0439  0.0380
 7469W        W24317   7.751  13.377   5.628  0.1295  0.1057 -0.1500
 7470W        W24318  10.292   8.528   2.092 -0.1655  0.3124  0.1607
 7471W        W24319   4.021   3.983  11.984  0.0543 -0.2306  0.1138
 7472W        W24320   0.366  17.422  16.337  0.0222  0.4018  0.1383
 7473W        W24321   6.138  10.006   3.941  0.1302  0.0229  0.1541
 7474W        W24322  16.087  10.692  16.429  0.1100  0.1391  0.1529
 7475W        W24323   7.107   5.599   1.183  0.2163 -0.1654 -0.2416
 7476W        W24324  11.173   0.583  11.145 -0.0263 -0.2223  0.0357
 7477W        W24325  15.414  13.559  13.475  0.2990 -0.0521  0.2604
 7478W        W24326   8.078  16.709   2.172 -0.0352  0.1812  0.0309
 7479W        W24327   6.501   4.782   3.960 -0.2248  0.0761  0.2599
 7480W        W24328  10.694   3.203   4.031  0.3700  0.1443 -0.1273
 7481W        W24329   8.092  16.472  12.640  0.0466  0.1123  0.3399
 7482W        W24330   1.280   2.810   1.048 -0.1477 -0.1458  0.1046
 7483W        W24331   1.463  12.741   0.873  0.2328  0.0075  0.2398
 7484W        W24332  12.390   0.565   1.096 -0.0367 -0.0290  0.2176
 7485W        W24333  16.925   5.015  11.687 -0.3505  0.2333 -0.0494
 7486W        W24334  13.051  14.916  16.608 -0.0198  0.0640 -0.1139
 7487W        W24335   3.177  13.142  11.929  0.1002  0.0573 -0.1255
 7488W        W24336   6.853  13.071  15.620 -0.0498 -0.0047  0.4131
 7489W        W24337  14.189   7.095  13.118  0.0164 -0.0123 -0.0073
 7490W        W24338  11.391   8.387  15.248  0.1580  0.0432  0.2853
 7491W        W24339   4.819   3.801  15.942 -0.0197 -0.2422  0.2644
 7492W        W24340  10.408  15.848  15.563 -0.1116  0.0295 -0.0703
 7493W        W24341   8.611  16.819  15.215  0.1747 -0.0434  0.2855
 7494W        W24342   3.511   3.221   0.539 -0.2386  0.0044 -0.0897
 7495W        W24343   4.925   7.626   4.219 -0.1596 -0.0474  0.1221
 7496W        W24344   6.194  17.594  10.911 -0.0810  0.1615 -0.3487
 7497W        W24345   2.185  12.936   5.169  0.0825  0.1511 -0.1806
 7498W        W24346   1.941  16.669  14.318  0.0065 -0.0447  0.1997
 7499W        W24347   3.133  10.556   3.842  0.0866 -0.2334  0.0519
 7500W        W24348   2.439  12.753   0.933  0.1457 -0.0646 -0.0866
 7501W        W24349   9.751   8.535  16.513  0.0305  0.3249  0.0863
 7502W        W24350   8.083   8.165   2.950 -0.5894 -0.1314  0.1239
 7503W        W24351  15.461   6.432   4.320 -0.0985 -0.1260 -0.0785
 7504W        W24352  16.697  16.802   4.758 -0.0338  0.0246 -0.0839
 7505W        W24353  10.769   0.923   2.982 -0.2554 -0.0110 -0.0416
 7506W        W24354  13.427   2.329  14.109 -0.1670 -0.3234  0.1935
 7507W        W24355   9.411   3.380  12.155  0.0824 -0.1318 -0.1524
 7508W        W24356  13.128   0.995  12.454  0.0469 -0.2193 -0.0095
 7509W        W24357   1.742   5.073  11.886 -0.2766 -0.1451  0.1387
 7510W        W24358  11.371   3.258  13.786 -0.4460 -0.1900 -0.0586
 7511W        W24359   6.638  15.025   4.078  0.3109 -0.0814  0.2926
 7512W        W24360  10.541   8.431  12.265 -0.1173 -0.1933  0.0864
 7513W        W24361  12.636  10.126   0.035 -0.1308 -0.1807 -0.3361
 7514W        W24362  16.999   9.993  12.829 -0.0561 -0.2954  0.0985
 7515W        W24363   0.533  15.878   1.898  0.0537 -0.0256  0.0276
 7516W        W24364   7.994  17.686  11.406 -0.4546 -0.1180 -0.0140
 7517W        W24365  15.223  11.048  12.059  0.0410 -0.1037 -0.0236
 7518W        W24366  15.625  12.791  11.753  0.1356 -0.2400 -0.0715
 7519W        W24367  15.962   4.331   2.755  0.0166  0.0776 -0.1899
 7520W        W24368  15.265   6.245   0.253 -0.1225 -0.0069  0.0962
 7521W        W24369   7.358   5.556   3.808 -0.0790 -0.1825 -0.5070
 7522W        W24370  11.204  15.231  14.285  0.0722  0.1771 -0.0596
 7523W        W24371   4.252  14.182  13.717  0.0223 -0.1463 -0.0800
 7524W        W24372  15.936  15.398   3.378  0.2056  0.0985  0.2423
 7525W        W24373   3.028   7.897   4.513 -0.1248 -0.2119 -0.0066
 7526W        W24374   4.380  17.129   5.144  0.1339  0.0260 -0.0694
 7527W        W24375   0.957  14.854   1.311 -0.1083  0.0235 -0.3563
 7528W        W24376  11.579   6.227  16.020 -0.0681  0.0893  0.1166
 7529W        W24377   1.915   7.860  13.498  0.2455 -0.0444  0.3484
 7530W        W24378   5.130  15.428   3.220  0.0747 -0.0314 -0.1306
 7531W        W24379   3.623  16.585   2.651 -0.1357  0.1346  0.0428
 7532W        W24380   8.545   1.150  13.874 -0.0478 -0.1207  0.2519
 7533W        W24381  15.217   8.728  14.923  0.1901  0.3687  0.0288
 7534W        W24382   6.308   9.291  14.553  0.1352 -0.0748 -0.3653
 7535W        W24383   9.185  14.318  14.023  0.1456 -0.1364  0.1058
 7536W        W24384   7.244  11.724   1.352 -0.1243 -0.2868 -0.2401
 7537W        W24385  17.653   0.916  12.932 -0.0214 -0.0062 -0.3096
 7538W        W24386   5.885  12.402   0.027  0.2742  0.1364 -0.2383
 7539W        W24387   0.215   1.679  13.049  0.1341 -0.1202 -0.1887
 7540W        W24388   0.029   0.676  11.974 -0.1193 -0.3479 -0.2309
 7541W        W24389   7.754   7.155   3.096 -0.3941 -0.0164  0.2761
 7542W        W24390  10.493   5.898  13.122  0.1568 -0.0425 -0.2172
 7543W        W24391   0.375  16.400  13.886 -0.0559 -0.0174 -0.1041
 7544W        W24392  12.899   7.924   3.362 -0.0701  0.1169 -0.0816
 7545W        W24393   2.992  11.036   3.767  0.1034  0.2249  0.2070
 7546W        W24394   6.447  11.597   2.813 -0.2222  0.2053  0.2478
 7547W        W24395  14.555   1.219   3.597 -0.3272 -0.0295 -0.2850
 7548W        W24396   0.669   3.502   5.601 -0.0627  0.2576  0.0767
 7549W        W24397   3.481  10.342   5.049  0.0455  0.1804 -0.2282
 7550W        W24398  15.362  17.056   4.658  0.1503 -0.1788 -0.0337
 7551W        W24399  16.856  10.758  15.196  0.2051 -0.0783  0.4091
 7552W        W24400  11.928  13.307   6.241 -0.1676  0.0198 -0.0916
 7553W        W24401  11.653   2.646  10.824 -0.0616 -0.2256 -0.0676
 7554W        W24402   7.024   7.551  15.816 -0.2070  0.1878 -0.1146
 7555W        W24403  15.152   6.822   2.210  0.0899 -0.1004 -0.2630
 7556W        W24404  13.404  14.883  15.400  0.1041  0.0455  0.0162
 7557W        W24405   7.966  17.040   3.320 -0.1488  0.0355  0.2067
 7558W        W24406   8.438   4.253  15.526  0.4148 -0.0504 -0.0713
 7559W        W24407   6.920   5.557  14.165 -0.1019 -0.0786  0.1773
 7560W        W24408  11.939  17.694   4.488  0.2809  0.1597  0.1320
 7561W        W24409  12.590  10.022   0.984  0.1335 -0.1823  0.0320
 7562W        W24410   4.066   2.338   3.685 -0.0740 -0.0128  0.1114
 7563W        W24411  15.647   9.349  16.315 -0.0724 -0.1934 -0.1374
 7564W        W24412   6.234   6.384   2.431  0.3281 -0.0157 -0.1719
 7565W        W24413   9.612  11.399  13.815 -0.0662 -0.3388  0.0967
 7566W        W24414  15.826   9.189  13.026 -0.1656 -0.1743 -0.0668
 7567W        W24415  16.199   0.692   5.177 -0.1216 -0.0020  0.3252
 7568W        W24416   1.344  10.785  13.196  0.1400 -0.2820 -0.2344
 7569W        W24417   5.564  13.014   1.848 -0.3483  0.0729 -0.0694
 7570W        W24418   6.417  13.261   2.710 -0.0292  0.1142 -0.0126
 7571W        W24419   3.440   8.000   1.540 -0.2791  0.0601  0.3050
 7572W        W24420  17.227  15.073  10.536 -0.1127 -0.3180 -0.0087
 7573W        W24421   6.984   4.701   0.224  0.2026  0.2120  0.3249
 7574W        W24422  10.740  15.277  12.079 -0.0245 -0.0018  0.1698
 7575W        W24423   7.149   6.250  13.421  0.0597  0.1234 -0.2060
 7576W        W24424   3.024   2.577  14.268 -0.2174  0.4508 -0.0770
 7577W        W24425   7.670   2.714  12.603  0.1009  0.2025  0.0893
 7578W        W24426  14.875   8.275  14.251  0.2868  0.2970 -0.0280
 7579W        W24427  10.343   3.248   1.151  0.2146 -0.2625 -0.1314
 7580W        W24428  12.292  17.039  13.838 -0.2148  0.0219 -0.0395
 7581W        W24429   9.660  14.776   1.915  0.5946 -0.2486  0.1732
 7582W        W24430   1.864   2.952   0.487  0.0127 -0.1952  0.0524
 7583W        W24431  15.009   6.500   1.814 -0.0719  0.4087  0.1358
 7584W        W24432  16.993   9.092   0.001  0.1069  0.3332  0.1208
 7585W        W24433  15.356   0.636   2.053 -0.2779 -0.0049 -0.0607
 7586W        W24434  12.062   6.449  15.252 -0.1090 -0.1026  0.0606
 7587W        W24435   3.828  12.101   1.007 -0.2787  0.0139  0.2380
 7588W        W24436  13.452  13.334  13.751 -0.2810 -0.0291 -0.0853
 7589W        W24437   2.995  16.379   1.802 -0.0644  0.3411  0.1587
 7590W        W24438   8.050  14.484   1.008  0.1644  0.2050 -0.2860
 7591W        W24439  17.016  17.590  15.598  0.2577  0.2674  0.1549
 7592W        W24440  12.996  14.693   5.779  0.0616  0.3599 -0.0057
 7593W        W24441   9.332  15.274   3.760 -0.1786  0.0262 -0.1594
 7594W        W24442   9.800   8.479   4.121 -0.0871 -0.3064  0.2724
 7595W        W24443  11.456   5.503  12.023 -0.1077  0.0678  0.1423
 7596W        W24444  13.939   1.004  11.755 -0.3660 -0.0392  0.0888
 7597W        W24445  16.921   4.050   1.694 -0.1692 -0.0049  0.3024
 7598W        W24446   7.035   8.651   4.232 -0.1296  0.1664 -0.1200
 7599W        W24447   2.424  13.567  14.285 -0.2295 -0.3591  0.1258
 7600W        W24448   6.608  10.459   1.306 -0.4266  0.0178  0.0225
 7601W        W24449   6.035  10.629  15.112 -0.1412 -0.0507  0.0799
 7602W        W24450   7.092   1.188   4.450 -0.0240 -0.0246  0.1044
 7603W        W24451   6.406  13.486   3.164  0.0910 -0.1664 -0.3723
 7604W        W24452   6.453   6.614  16.328  0.0570  0.2041  0.1878
 7605W        W24453  11.055  17.500  11.298  0.0741  0.0353 -0.3607
 7606W        W24454   2.019   0.985   0.199 -0.2857 -0.0533 -0.0341
 7607W        W24455   9.628   6.037   2.496  0.0299  0.0445 -0.0594
 7608W        W24456   8.981   8.435   3.559  0.2657 -0.0026  0.1027
 7609W        W24457   2.265  11.786  15.962 -0.0663  0.1494 -0.1163
 7610W        W24458  16.833   8.680  13.181 -0.0427  0.1137 -0.2593
 7611W        W24459  13.548   8.375  13.815 -0.0842 -0.0345 -0.0296
 7612W        W24460   9.449  15.821   0.392  0.2978  0.2674 -0.1415
 7613W        W24461   5.161   6.870   3.776 -0.1136 -0.3338 -0.1091
 7614W        W24462  10.099  12.155   4.250 -0.2119  0.0441 -0.0492
 7615W        W24463   7.209   1.822   1.680  0.0617  0.0800  0.0546
 7616W        W24464  13.740  13.008  13.543  0.1731 -0.0769 -0.2009
 7617W        W24465   1.215   5.719  14.503  0.1315 -0.4212  0.1698
 7618W        W24466   9.015   4.317  13.661  0.0267  0.2026 -0.1145
 7619W        W24467  17.271  10.033   0.124 -0.2095 -0.0018  0.2709
 7620W        W24468   8.460  16.983   2.570  0.0132  0.2581  0.0805
 7621W        W24469  13.161   2.499   2.956 -0.0144  0.1266  0.1577
 7622W        W24470   4.851   4.825   3.885  0.2729 -0.0207  0.1642
 7623W        W24471   9.663   3.556  10.569  0.0617 -0.1943  0.0088
 7624W        W24472   7.912  14.473  14.950 -0.2207 -0.2204  0.1402
 7625W        W24473   0.659   9.851   1.103 -0.0447  0.3413  0.1251
 7626W        W24474   4.468   4.282  11.894 -0.0729 -0.0680  0.1397
 7627W        W24475  14.375   0.071  15.413  0.1463  0.0005 -0.2689
 7628W        W24476  16.209   5.963  16.168  0.2093 -0.3557  0.0577
 7629W        W24477  14.087  10.094   5.893  0.1931 -0.0535  0.0396
 7630W        W24478   2.252   7.917   2.084 -0.1295  0.1344 -0.0013
 7631W        W24479   9.035   1.339  12.497 -0.0318  0.1400  0.0744
 7632W        W24480   2.385  12.985   3.256 -0.1274  0.0280 -0.0027
 7633W        W24481  10.101   9.602  13.475 -0.0554 -0.4238  0.0078
 7634W        W24482   3.903  11.321   3.131 -0.0204 -0.0079 -0.2075
 7635W        W24483   8.557  15.522  15.324  0.1609  0.0952 -0.2045
 7636W        W24484  14.618  11.013  15.727  0.1670 -0.1790 -0.0837
 7637W        W24485   1.229  14.245  16.407 -0.2656 -0.2035  0.2031
 7638W        W24486   0.494   6.185   5.319 -0.3275 -0.2065  0.1907
 7639W        W24487  16.658   6.841   3.082 -0.0428  0.4154  0.1813
 7640W        W24488  14.312  15.790  12.704  0.0796 -0.2030  0.0258
 7641W        W24489  14.345  10.436   2.398  0.0202 -0.3402 -0.2554
 7642W        W24490   6.644  15.213  13.169 -0.1511 -0.0422 -0.1449
 7643W        W24491   4.059   5.732  11.611 -0.0494  0.0342  0.0540
 7644W        W24492   6.077   1.254   2.656  0.3066 -0.1269  0.0676
 7645W        W24493  14.572  14.363  13.273 -0.0782  0.3179  0.0577
 7646W        W24494  12.225  10.723  11.945  0.0490 -0.0061  0.0099
 7647W        W24495   7.495   0.418   5.747  0.3365  0.0444  0.0248
 7648W        W24496   8.204  13.740  15.419  0.3137  0.2849  0.2092
 7649W        W24497  13.361  12.949  12.570 -0.0082  0.3085  0.1648
 7650W        W24498   7.956  13.673  10.802  0.0910 -0.2273  0.3445
 7651W        W24499  10.410  16.965   4.934  0.0134  0.1389 -0.0011
 7652W        W24500   8.690   5.932  13.207 -0.0147  0.3404  0.3179
 7653W        W24501   4.716  14.936  14.379  0.2832 -0.1232 -0.2029
 7654W        W24502   6.815   9.448   0.395 -0.3523  0.0532  0.1402
 7655W        W24503   1.923   0.844   3.724 -0.2466 -0.1118  0.2259
 7656W        W24504  10.463   0.041   1.252  0.1888  0.0539  0.2214
 7657W        W24505   5.066  12.956   2.711  0.0719  0.2226 -0.0753
 7658W        W24506  14.877   6.279  13.802  0.0721  0.0750  0.0848
 7659W        W24507  14.382   0.992   1.847  0.0316 -0.1386 -0.0741
 7660W        W24508  11.367  10.919   0.819  0.3657 -0.0647 -0.0758
 7661W        W24509   3.374  14.311  13.424  0.0566 -0.3487  0.1519
 7662W        W24510   4.913  16.353  12.219 -0.2019 -0.1283  0.3729
 7663W        W24511  17.209   1.569   1.330 -0.1940 -0.4270  0.0219
 7664W        W24512   4.896   9.239   4.110  0.2436  0.0145  0.2214
 7665W        W24513  14.036  14.966   4.284  0.1959  0.2069 -0.0883
 7666W        W24514   6.233   8.168   4.461 -0.1073 -0.3053 -0.0018
 7667W        W24515  16.586   1.903  14.504 -0.0803  0.0582  0.3632
 7668W        W24516  14.129   7.475   4.229 -0.1585  0.0777 -0.1647
 7669W        W24517   2.788   8.372  16.646  0.1041  0.2978 -0.1853
 7670W        W24518  14.565  16.499  16.427 -0.3072  0.0617 -0.0577
 7671W        W24519  10.013   4.334  14.852 -0.1383  0.2820 -0.0064
 7672W        W24520  11.687  13.672  11.948  0.0418  0.0547 -0.2310
 7673W        W24521   6.135   4.674   4.318  0.1426 -0.1834 -0.0914
 7674W        W24522   5.822  15.459  16.626 -0.1945 -0.1413 -0.0353
 7675W        W24523  15.715  14.986  12.545 -0.1732  0.1932  0.2740
 7676W        W24524  11.453   1.121   2.502 -0.1876 -0.2201  0.1189
 7677W        W24525   0.477  17.476   3.480 -0.0445  0.1911 -0.0954
 7678W        W24526   6.939   6.687   1.518 -0.0618 -0.0950 -0.1245
 7679W        W24527   4.615  15.980  15.956  0.1518  0.2038 -0.0082
 7680W        W24528   6.673   5.112  11.970 -0.2451  0.3039 -0.2321
 7681W        W24529  16.023   9.886   2.888 -0.2001  0.0295  0.0483
 7682W        W24530  13.821  12.659   2.445 -0.0542  0.0031  0.0051
 7683W        W24531  11.170  12.502  14.086  0.2395 -0.1197  0.6288
 7684W        W24532  10.984  16.956  14.167 -0.0841  0.1699  0.2767
 7685W        W24533  14.200   5.517  11.410 -0.1470 -0.1555 -0.1034
 7686W        W24534   1.139  14.179  12.931 -0.2595 -0.0562  0.2857
 7687W        W24535   4.932   1.436   1.158  0.2373 -0.2505  0.1333
 7688W        W24536   4.237   0.677   0.639  0.1924  0.2481 -0.1113
 7689W        W24537   6.964   5.483  15.087 -0.2767 -0.0901 -0.3555
 7690W        W24538   9.117   1.106   0.923 -0.0904  0.0301  0.0975
 7691W        W24539  16.522  15.387   0.425  0.1498  0.2412  0.0818
 7692W        W24540  12.098   3.039  14.542 -0.0476  0.2830  0.1780
 7693W        W24541   6.819  15.788  13.087  0.1486  0.0036  0.2561
 7694W        W24542   3.511  14.070  12.888  0.0654  0.0535  0.1201
 7695W        W24543  15.575   0.422  14.526 -0.2171  0.0841  0.0641
 7696W        W24544   0.508   7.741   4.922  0.3837  0.0319  0.0752
 7697W        W24545   6.195   0.469   1.099  0.0605  0.0946  0.1578
 7698W        W24546   1.228  12.397  14.166  0.0311  0.2999 -0.4231
 7699W        W24547  15.847  11.142   1.135 -0.2270  0.1660  0.2625
 7700W        W24548   7.352  16.923  15.866  0.3841 -0.2038  0.0830
 7701W        W24549   7.613   6.152   4.515 -0.0374 -0.0636  0.4718
 7702W        W24550   9.769   5.973   2.950 -0.0173  0.0535 -0.1425
 7703W        W24551  11.848   4.170  12.506  0.0094  0.4147 -0.1723
 7704W        W24552  10.131  12.681   5.490  0.3170 -0.0609 -0.2409
 7705W        W24553   6.187  12.563  14.406 -0.0680 -0.0528  0.1231
 7706W        W24554   0.745   2.640  11.189 -0.1276  0.2058 -0.0307
 7707W        W24555  14.294  12.039  16.100 -0.0579  0.0411 -0.0645
 7708W        W24556  15.729  10.528  12.218  0.3255  0.3191  0.1364
 7709W        W24557  14.640  15.166   1.964 -0.1221  0.1384 -0.2397
 7710W        W24558   7.820   5.263  11.272  0.0768  0.1583  0.0222
 7711W        W24559   4.077  10.254  10.492  0.1861 -0.0265 -0.0479
 7712W        W24560   9.917   0.004  15.805 -0.1477 -0.1546  0.0809
 7713W        W24561   6.516   1.888   1.620  0.3934 -0.0187  0.0728
 7714W        W24562  14.743  12.622  10.754  0.1094  0.0035 -0.0398
 7715W        W24563  15.870  14.648  15.869  0.3794  0.1703  0.1519
 7716W        W24564   6.121   2.385   0.230 -0.0114  0.2555 -0.1065
 7717W        W24565  13.613   3.513   3.338 -0.2242 -0.0254 -0.3404
 7718W        W24566   7.160   0.434   6.122 -0.4612  0.0126  0.1708
 7719W        W24567   0.975  11.421   0.940 -0.0605 -0.2585 -0.1214
 7720W        W24568   2.941   4.931  13.584  0.0020 -0.0332  0.0055
 7721W        W24569   8.229   3.519   4.054 -0.0664  0.3212 -0.0515
 7722W        W24570   3.138   4.144  12.456 -0.1281 -0.0387 -0.0515
 7723W        W24571   2.040  16.096  12.520  0.0692  0.0270 -0.0404
 7724W        W24572  11.947  12.963  16.251 -0.3286 -0.1321 -0.1276
 7725W        W24573   8.326   3.123  13.303  0.2419 -0.1120  0.0506
 7726W        W24574  10.565   8.275   2.967 -0.2484 -0.2142  0.0622
 7727W        W24575   5.849   9.068  14.656  0.2190 -0.1018 -0.3849
 7728W        W24576  12.129  12.787   1.370 -0.1173  0.1529 -0.0427
 7729W        W24577  14.254  17.390  14.130  0.2528  0.0213 -0.2869
 7730W        W24578  15.873   8.287   2.519  0.3180  0.1426 -0.2806
 7731W        W24579  15.470  10.040  14.561  0.2558 -0.0251 -0.0609
 7732W        W24580  17.527  17.631   5.367  0.1730 -0.1341 -0.1164
 7733W        W24581  14.294   7.598  14.146 -0.0415  0.2601  0.2794
 7734W        W24582  12.458  13.601   0.840  0.0703  0.0541  0.0004
 7735W        W24583   8.883   4.410  11.864  0.1774  0.0417  0.0467
 7736W        W24584  15.440  15.748  15.703  0.0180  0.2199  0.1648
 7737W        W24585  12.215   2.206   0.205 -0.0433 -0.0324 -0.1318
 7738W        W24586   6.366  15.576  11.771  0.1634  0.1093  0.1324
 7739W        W24587  16.482  13.418  14.278  0.0973  0.1166  0.0241
 7740W        W24588   3.734   9.471   2.735  0.4494  0.1711  0.1338
 7741W        W24589  17.194  12.674   5.476 -0.2074 -0.1773 -0.0619
 7742W        W24590  14.769   2.792  16.077  0.1652 -0.1658  0.0234
 7743W        W24591   5.659   3.855   4.095 -0.0183  0.0219  0.0445
 7744W        W24592  16.340  15.763  13.093  0.0115  0.2195 -0.2035
 7745W        W24593  16.190   4.624  13.164 -0.2037 -0.2882  0.0346
 7746W        W24594  12.034   7.190  16.092  0.2182 -0.2049 -0.1305
 7747W        W24595   8.178   0.049   2.907 -0.2807 -0.0696  0.0705
 7748W        W24596   7.899  16.291   4.187 -0.2901 -0.1612 -0.2358
 7749W        W24597   0.973  15.382  16.365  0.0427 -0.1088 -0.1892
 7750W        W24598   2.952   9.021  14.542  0.0077  0.1084 -0.0706
 7751W        W24599  17.173  13.039  11.965 -0.2519  0.0733  0.1896
 7752W        W24600  13.527  11.612   2.657 -0.0720 -0.2633 -0.0251
 7753W        W24601  15.130  10.068   3.580  0.2073  0.0448  0.0550
 7754W        W24602   5.425   6.840  13.137 -0.0031  0.0701  0.2778
 7755W        W24603   6.741  15.924  14.887  0.0491  0.0448 -0.1533
 7756W        W24604   0.469   0.145  16.052 -0.1974 -0.2594  0.0527
 7757W        W24605   7.253  17.440  13.641 -0.0002 -0.0160 -0.0080
 7758W        W24606   0.034  11.175  14.781 -0.1960  0.3517  0.0470
 7759W        W24607   1.187   6.198  16.403  0.0915 -0.0041 -0.0309
 7760W        W24608  16.118   7.869   3.419 -0.1155 -0.0548  0.0883
 7761W        W24609   0.664   0.130  14.618  0.4576  0.0507  0.1046
 7762W        W24610   6.143   6.280  16.594 -0.0456 -0.1069  0.3258
 7763W        W24611   4.271   2.706  10.825  0.5020 -0.1103  0.0572
 7764W        W24612  13.482  11.734  11.330 -0.2079  0.1116  0.0221
 7765W        W24613   9.571   0.214   1.299 -0.2682 -0.0902  0.2475
 7766W        W24614  15.409  11.285   2.625 -0.1034  0.2310 -0.2356
 7767W        W24615   0.587   9.461  13.191 -0.2818  0.2015 -0.1137
 7768W        W24616   0.677   5.324  16.223  0.1942 -0.1260  0.1341
 7769W        W24617  14.006  10.528   2.741  0.1984 -0.0434 -0.1193
 7770W        W24618   1.646   7.114   1.209 -0.0328 -0.3342 -0.0458
 7771W        W24619   1.332   0.109  16.070  0.0187 -0.1763  0.0819
 7772W        W24620   1.986  14.476  11.745  0.4179 -0.0061  0.0466
 7773W        W24621  11.661  16.813  11.907 -0.3330  0.0762 -0.0713
 7774W        W24622   7.522  13.438  10.744 -0.1076 -0.0132 -0.3114
 7775W        W24623   1.096   1.813   5.595  0.0585  0.1348 -0.3107
 7776W        W24624  14.360   8.387  14.350  0.2010  0.2314  0.2670
 7777W        W24625  13.781  11.732   2.180  0.0562  0.2740  0.1647
 7778W        W24626   1.408   2.045   0.364 -0.0653  0.0216 -0.1762
 7779W        W24627  17.231  16.033   4.442  0.0054 -0.3772 -0.1155
 7780W        W24628   1.040   9.239  13.332  0.2094 -0.1424 -0.0009
 7781W        W24629  10.673  14.523   4.914  0.0346 -0.0096 -0.0673
 7782W        W24630  15.530   4.350  12.995 -0.2789  0.0973  0.2393
 7783W        W24631   8.593  15.266  13.219 -0.3126  0.2814 -0.4479
 7784W        W24632  11.635   2.096  13.817 -0.0509 -0.0126 -0.1449
 7785W        W24633  15.286   2.303   3.598  0.0539 -0.0029  0.2310
 7786W        W24634  10.902  11.195  12.532 -0.1104  0.0354 -0.1261
 7787W        W24635   0.232  12.266   0.706  0.2778  0.1347 -0.1573
 7788W        W24636   8.658   2.309  13.823 -0.3867  0.0171 -0.1531
 7789W        W24637  12.814  16.103  16.352  0.0906  0.1593  0.0168
 7790W        W24638   3.626   6.479  15.583 -0.0940  0.2821 -0.0933
 7791W        W24639   7.709   2.836   5.403 -0.0172 -0.4691  0.3436
 7792W        W24640   6.919  13.642   5.127 -0.3481  0.2752  0.1287
 7793W        W24641  10.243   5.787  12.206  0.0377  0.1001 -0.1557
 7794W        W24642  16.625   0.648  16.025  0.1109 -0.2329 -0.0394
 7795W        W24643   7.970   2.161   3.524  0.0280 -0.1677 -0.1205
 7796W        W24644   8.649  15.718   4.381  0.1089  0.3003  0.1777
 7797W        W24645   3.399   5.940   4.217  0.1516 -0.0378 -0.1834
 7798W        W24646   7.888   1.831  16.667 -0.1202  0.0006  0.1224
 7799W        W24647  15.685   2.044   1.890  0.0143 -0.0848  0.0333
 7800W        W24648  11.929  13.364  12.474 -0.2477 -0.1607 -0.1846
 7801W        W24649   9.728   7.405  14.433 -0.0799 -0.2042 -0.1984
 7802W        W24650  12.984   6.390   3.168  0.0132 -0.0881 -0.0097
 7803W        W24651   1.774  11.095  13.095 -0.1247  0.4951 -0.1852
 7804W        W24652  16.997  13.310   3.044 -0.1190 -0.1044  0.1713
 7805W        W24653   9.767   1.704  12.723  0.1266 -0.0115  0.1245
 7806W        W24654   9.233   0.183   3.851 -0.1026 -0.0760 -0.4689
 7807W        W24655   8.835  16.419   0.719 -0.0620  0.3517  0.0806
 7808W        W24656  17.041   5.119   3.801  0.3924 -0.2262  0.3625
 7809W        W24657   7.946  11.598   0.099 -0.0017 -0.3239  0.2136
 7810W        W24658   2.702  16.775  12.344 -0.0590  0.0241 -0.0318
 7811W        W24659   6.644   7.048  13.719  0.1228  0.1509  0.0380
 7812W        W24660   6.976   9.381  16.108 -0.2509  0.1080  0.2547
 7813W        W24661  14.264   0.525  15.090 -0.3332 -0.1522  0.0168
 7814W        W24662   0.312   0.186  14.197  0.2424 -0.2755 -0.0399
 7815W        W24663   3.034   9.815  11.254  0.0195 -0.0395  0.2260
 7816W        W24664  12.841   6.636   0.371  0.0035 -0.0927 -0.3925
 7817W        W24665   9.092  10.371  12.008 -0.0457  0.0904 -0.0063
 7818W        W24666   9.814  13.203   4.865  0.1239 -0.0177 -0.0656
 7819W        W24667  13.473   2.730  12.522  0.0191  0.4049 -0.0795
 7820W        W24668   5.668  14.850  13.059 -0.0346 -0.1555 -0.0295
 7821W        W24669  10.166  16.231   1.524  0.1200  0.1872 -0.2574
 7822W        W24670   7.033   5.275  13.671 -0.0679 -0.1280 -0.0573
 7823W        W24671   7.091  15.083   2.045 -0.1275  0.1165  0.2711
 7824W        W24672   9.122  12.137  16.322 -0.5946 -0.0019 -0.1047
 7825W        W24673   5.768   9.140   3.870 -0.0169 -0.1091 -0.0848
 7826W        W24674   1.320  13.709  12.787 -0.1189  0.0070  0.0736
 7827W        W24675   7.071  13.422   1.155  0.0856  0.0542 -0.2371
 7828W        W24676   5.294   9.792   1.873  0.0342  0.2285 -0.2391
 7829W        W24677   1.180   9.665   3.501 -0.0566  0.1059 -0.0766
 7830W        W24678   3.334  12.347   5.155  0.0087 -0.1049 -0.1528
 7831W        W24679   3.482  12.669  14.648  0.0044 -0.1155 -0.2457
 7832W        W24680   3.470  14.175   4.670  0.2076 -0.2959 -0.1047
 7833W        W24681   1.009   1.895  14.081  0.1826 -0.4142  0.3394
 7834W        W24682  10.947   3.588   2.636 -0.0590  0.0683 -0.0845
 7835W        W24683  16.736  11.998   4.280  0.1291 -0.0947  0.0651
 7836W        W24684  12.447  15.088  12.920 -0.0494  0.1163 -0.3861
 7837W        W24685  11.119   9.148  16.201 -0.1577  0.1301  0.1031
 7838W        W24686  11.476   3.306   4.394 -0.1117 -0.1496 -0.0079
 7839W        W24687  12.351   2.773   5.520  0.0410 -0.0527 -0.2395
 7840W        W24688   6.120   8.566   2.514  0.3744  0.2587  0.0704
 7841W        W24689  14.907   5.770   4.452 -0.0239 -0.1525 -0.0175
 7842W        W24690  11.678  14.712   0.831  0.0611  0.2294  0.2165
 7843W        W24691   9.132   3.316  13.646 -0.0473 -0.0297 -0.5770
 7844W        W24692  12.700  12.803   0.573 -0.0510  0.2138  0.1848
 7845W        W24693  10.097  17.345  14.940 -0.2902 -0.1606 -0.0455
 7846W        W24694  15.255   9.254  12.982 -0.0106 -0.0017 -0.0945
 7847W        W24695  12.160   1.490   2.760  0.2119 -0.0341  0.1484
 7848W        W24696   9.511  11.257   0.364 -0.0878 -0.2690  0.2254
 7849W        W24697  10.162   5.858  15.387  0.1762 -0.1811  0.1661
 7850W        W24698  15.238   0.182   2.195 -0.1229 -0.1267 -0.1306
 7851W        W24699   3.676   9.754   0.960 -0.1421  0.2607  0.2852
 7852W        W24700  13.957  16.458   0.758  0.2085 -0.2136 -0.0347
 7853W        W24701   2.720   7.235  14.242 -0.1508  0.1261  0.0610
 7854W        W24702  11.054   5.595   2.762  0.1508 -0.0506  0.0106
 7855W        W24703  12.855   8.481  14.321 -0.1478  0.2086  0.3689
 7856W        W24704  15.114  17.008  12.069  0.2214  0.0408 -0.0391
 7857W        W24705   8.300   6.119  14.058 -0.0911  0.1939 -0.1308
 7858W        W24706   0.710  14.117   0.957  0.0877  0.1855 -0.1128
 7859W        W24707  15.026  10.141  13.446 -0.2800 -0.0633  0.1939
 7860W        W24708   9.196  13.393  12.505 -0.0533  0.1111 -0.1578
 7861W        W24709   8.481   4.795   5.849 -0.3465 -0.0915 -0.3171
 7862W        W24710   9.919  12.465   2.123  0.2234  0.0397 -0.2833
 7863W        W24711   3.148   8.573  10.612  0.3395  0.0911  0.0800
 7864W        W24712   0.940  13.040   5.172  0.2716  0.0576  0.1726
 7865W        W24713   1.378  17.494  13.768 -0.2106  0.1273 -0.0518
 7866W        W24714   2.482  16.207  15.935 -0.0501  0.1959  0.1199
 7867W        W24715   8.316   4.117   3.226 -0.1199 -0.0069 -0.1166
 7868W        W24716  10.968  10.137   3.775 -0.0132  0.0703  0.0999
 7869W        W24717  16.526  14.565   4.921  0.0886 -0.1352 -0.0488
 7870W        W24718  17.169  12.350   2.111 -0.1815  0.2199 -0.0931
 7871W        W24719  14.723   0.597   4.121 -0.1980 -0.5997 -0.0618
 7872W        W24720  16.564  14.689   2.769 -0.1051  0.1348  0.1773
 7873W        W24721   5.494  10.563   2.989  0.2986 -0.2346  0.0745
 7874W        W24722   3.977  10.044  11.428 -0.2228  0.1393 -0.1102
 7875W        W24723   6.515   1.371  15.556 -0.2854 -0.0929  0.2280
 7876W        W24724   9.284  16.494   1.687  0.0917  0.2372 -0.0303
 7877W        W24725  13.748  16.995   3.418  0.1330 -0.1302  0.0205
 7878W        W24726  10.137   1.836  12.325 -0.1113  0.0264  0.3022
 7879W        W24727   2.984   1.900  12.471 -0.1433  0.0386  0.0958
 7880W        W24728  11.839   4.255  11.445 -0.3430 -0.1836  0.0642
 7881W        W24729   2.421   3.289   5.785 -0.2013 -0.2823  0.0816
 7882W        W24730  17.253  13.303  10.900 -0.0089  0.1915  0.0271
 7883W        W24731  14.375   2.948  14.332 -0.1645  0.1883 -0.0009
 7884W        W24732   1.669   4.061   2.184  0.1015 -0.0752 -0.0262
 7885W        W24733   0.519   5.037   0.144  0.0225 -0.0387  0.2088
 7886W        W24734   2.641  12.106  14.663 -0.3490 -0.0754 -0.0164
 7887W        W24735   7.710  11.456  13.503 -0.0655 -0.0413  0.1622
 7888W        W24736   2.524  15.395   5.058  0.1369  0.2209 -0.0121
 7889W        W24737  11.522   5.384   3.878  0.1449  0.0772 -0.1443
 7890W        W24738   3.519  12.607  12.635 -0.1191  0.0083  0.1828
 7891W        W24739   8.006   0.038  16.578 -0.0264  0.2037  0.0357
 7892W        W24740   8.691   7.842  13.548 -0.1402 -0.1187 -0.1220
 7893W        W24741  12.345   5.472  12.867  0.1547 -0.2092  0.2627
 7894W        W24742  15.962  16.986  12.245 -0.0742  0.1496  0.1330
 7895W        W24743  15.557   9.096   1.097 -0.4439  0.4079 -0.3396
 7896W        W24744   7.715  12.367   4.546  0.1842  0.1651  0.2671
 7897W        W24745   6.098   5.869  14.469  0.2421  0.0157  0.0282
 7898W        W24746  16.709   7.152  12.291 -0.0252  0.0141  0.0536
 7899W        W24747   3.736  12.109  11.339 -0.2967  0.5368 -0.2042
 7900W        W24748  12.180  14.488   4.553 -0.0285  0.1858 -0.1048
 7901W        W24749   1.262  15.801   1.066 -0.0625  0.0893  0.1268
 7902W        W24750   4.939  14.998   0.275 -0.1244 -0.0843  0.0031
 7903W        W24751  13.801  11.085   0.507  0.1027 -0.2310  0.2324
 7904W        W24752   6.898   5.907  12.602  0.1309 -0.0865 -0.0550
 7905W        W24753   0.980  14.596  12.725 -0.1437 -0.0714 -0.0526
 7906W        W24754   0.245   9.627  16.600 -0.3594  0.2275  0.0980
 7907W        W24755   6.873   9.351  11.712  0.0300 -0.2349 -0.2700
 7908W        W24756   9.159  15.193   5.095 -0.0217 -0.1289  0.1562
 7909W        W24757  17.511   9.382  15.858  0.1813 -0.1771 -0.0692
 7910W        W24758  10.179   3.678  12.167 -0.0089  0.1055  0.0741
 7911W        W24759   8.761  16.194  12.943 -0.0373  0.0755  0.2941
 7912W        W24760  17.120   1.975   3.172  0.1236 -0.0960  0.0594
 7913W        W24761  14.328   9.095  16.439  0.1043 -0.0304 -0.3516
 7914W        W24762   8.188  11.878  12.888  0.0293 -0.1448 -0.1553
 7915W        W24763   9.021   8.097   4.318 -0.0857  0.4751  0.2672
 7916W        W24764  16.850  16.526   0.269 -0.0017  0.0742  0.1617
 7917W        W24765   1.113   9.784   4.724 -0.0010 -0.0301  0.0099
 7918W        W24766  15.243  13.290   1.013  0.0518 -0.0383  0.0153
 7919W        W24767   9.286   5.108   4.900  0.0696 -0.3551  0.2849
 7920W        W24768   2.145   6.387   4.114  0.2627  0.1740  0.0394
 7921W        W24769   8.724   3.590  14.223  0.1918  0.1762  0.1906
 7922W        W24770   4.398  15.051  10.692 -0.1543 -0.1792 -0.0167
 7923W        W24771   6.864   6.299  11.459  0.1697 -0.0496  0.1470
 7924W        W24772   8.212   2.345  13.021 -0.0484 -0.0156 -0.2105
 7925W        W24773  16.977   4.896   4.574  0.1068  0.1055 -0.0836
 7926W        W24774  15.993  13.521  13.376 -0.1850  0.0162 -0.2823
 7927W        W24775   5.807   2.915  15.795  0.0189 -0.1350  0.1900
 7928W        W24776   7.801  14.124  15.434 -0.1343  0.0748  0.0950
 7929W        W24777   3.404  15.331   0.617  0.2030  0.1905  0.1415
 7930W        W24778   4.240  14.944  14.134 -0.0677  0.1953  0.1643
 7931W        W24779  12.822  10.170   0.551 -0.1209  0.1794  0.2296
 7932W        W24780   9.151   2.088  12.154 -0.1761  0.0314 -0.4529
 7933W        W24781  10.401   8.938   2.406 -0.0727 -0.1803  0.2276
 7934W        W24782  17.046   3.188  12.516  0.1915 -0.0320 -0.0589
 7935W        W24783  15.030  14.646   2.922 -0.4984 -0.0417 -0.1759
 7936W        W24784   2.123   1.690   3.244  0.0150 -0.0524 -0.2029
 7937W        W24785   0.040   5.568   2.805  0.0697  0.2051  0.0740
 7938W        W24786  11.886   2.970  15.810 -0.2535 -0.3368  0.2062
 7939W        W24787  14.796  16.818  13.562 -0.2761 -0.0503 -0.0989
 7940W        W24788   6.974   2.857   0.537  0.3277 -0.2875 -0.0611
 7941W        W24789   8.222   0.818   6.226 -0.0399 -0.0475  0.4018
 7942W        W24790   8.273  16.975   0.316  0.1826  0.0527  0.1507
 7943W        W24791  15.018   3.804  13.974  0.3775  0.0469 -0.3841
 7944W        W24792  17.389   0.927  15.909  0.0043 -0.1559 -0.0720
 7945W        W24793   0.057  10.572  14.918 -0.0089 -0.2282 -0.1257
 7946W        W24794   1.642  17.185  12.237  0.0150  0.1518 -0.2861
 7947W        W24795  15.629  10.823  11.753 -0.0194  0.0622  0.0251
 7948W        W24796   4.244  11.067   5.190 -0.1105  0.0650 -0.1448
 7949W        W24797   2.676  10.557   2.982  0.0924 -0.0917 -0.1487
 7950W        W24798  10.471  13.072   2.270 -0.1356 -0.0844 -0.3455
 7951W        W24799   3.893  10.937  14.420  0.0150 -0.0687 -0.1224
 7952W        W24800   4.325   3.444  12.309  0.1340 -0.0396 -0.2884
 7953W        W24801   7.819   1.719  16.140 -0.0818 -0.0005  0.2960
 7954W        W24802   3.681   7.028  13.485  0.0245  0.0496  0.0958
 7955W        W24803  17.588  17.051  11.139  0.1979 -0.4015 -0.0567
 7956W        W24804   4.911  16.257   3.686  0.0027 -0.0014  0.2587
 7957W        W24805   3.377  10.073  14.098  0.0361  0.0755 -0.0074
 7958W        W24806  12.390   9.536  11.541 -0.4659 -0.1034 -0.0024
 7959W        W24807  12.491   3.615  13.339  0.2110  0.0283  0.3448
 7960W        W24808   8.067  15.140   0.351 -0.2978 -0.2415 -0.1450
 7961W        W24809   7.038   5.901  13.727  0.1351  0.0547  0.1019
 7962W        W24810   7.269  11.250  14.462 -0.2644  0.3557  0.1659
 7963W        W24811  17.112  10.800   1.288  0.3304 -0.1298  0.1048
 7964W        W24812  12.343  12.220  11.749 -0.1355  0.2344 -0.0014
 7965W        W24813   0.643   9.851  14.551 -0.0455  0.0343  0.0392
 7966W        W24814   6.517   0.848  10.726 -0.0150 -0.0126  0.3076
 7967W        W24815   7.512   1.823   5.124  0.0297  0.0265  0.2859
 7968W        W24816   4.453   2.517   0.846 -0.1771  0.1157  0.1470
 7969W        W24817   1.735   3.795  16.420 -0.0864 -0.0419  0.1211
 7970W        W24818  10.516   5.999   3.848 -0.2962  0.2348 -0.0765
 7971W        W24819   1.643   3.610   5.459  0.1500  0.0384  0.1359
 7972W        W24820   5.352   8.969  12.220 -0.0427 -0.2844 -0.2229
 7973W        W24821  10.188  11.278   2.756 -0.3751 -0.0528 -0.2078
 7974W        W24822  11.324   8.695  16.115 -0.5517 -0.1360  0.2963
 7975W        W24823   3.657  14.502   2.314  0.3921 -0.1083 -0.2019
 7976W        W24824  15.767  10.357  16.563  0.3053 -0.3492  0.0139
 7977W        W24825  16.561  16.148   0.576  0.3735 -0.2509  0.3085
 7978W        W24826   9.031  14.039   1.879 -0.0824 -0.1104 -0.1734
 7979W        W24827  11.618  11.835   3.917 -0.1361  0.1556 -0.2724
 7980W        W24828   6.362  13.296   5.466  0.1136 -0.3032 -0.0584
 7981W        W24829  14.152   8.609   3.205  0.0928 -0.1232 -0.6054
 7982W        W24830  13.724  14.275  14.027 -0.0190  0.2035 -0.0633
 7983W        W24831   7.787  12.396   0.683  0.2492 -0.0618  0.1535
 7984W        W24832   6.632  12.269   3.463  0.1567 -0.1753 -0.1061
 7985W        W24833   7.180   8.749   3.669  0.2372  0.0560 -0.1466
 7986W        W24834   7.969   7.631  15.856  0.1392 -0.0577 -0.1167
 7987W        W24835  15.415  13.970   2.201  0.2089  0.1399  0.3485
 7988W        W24836   6.740   7.099   0.962 -0.1320 -0.1003 -0.0715
 7989W        W24837  17.007  13.209  16.337  0.0690 -0.2270  0.0749
 7990W        W24838   1.732  16.831  15.682 -0.0432 -0.0405 -0.0138
 7991W        W24839   2.054   4.759   1.706  0.2742 -0.1010 -0.1799
 7992W        W24840  16.684   4.676  16.204  0.1797 -0.0302 -0.1218
 7993W        W24841  14.270   8.711   2.361 -0.0980 -0.2827 -0.1600
 7994W        W24842   4.392  16.036   1.661 -0.1007  0.0696 -0.0737
 7995W        W24843   6.412   4.246  13.192  0.0446  0.1306 -0.0781
 7996W        W24844  15.441  15.636   4.444 -0.2987 -0.0304 -0.0124
 7997W        W24845   5.100   9.131  14.012  0.0762  0.3166 -0.0511
 7998W        W24846  14.102  12.122   1.856  0.2912  0.2152  0.2163
 7999W        W24847  14.677  14.505   4.607  0.2257  0.0798  0.1562
 8000W        W24848   8.282   8.675   1.348  0.3845  0.0179 -0.4413
 8001W        W24849   2.121   0.993   1.697 -0.0277 -0.2574  0.2230
 8002W        W24850  14.717   2.864  13.477 -0.0749 -0.1985 -0.1614
 8003W        W24851   4.916   0.694  15.669  0.5358 -0.3058  0.2020
 8004W        W24852   3.992   2.565  12.328 -0.0187  0.2249  0.0641
 8005W        W24853   5.760   5.868   4.792  0.1140  0.0103  0.0902
 8006W        W24854  10.939   6.690   2.292 -0.0114  0.3873 -0.0340
 8007W        W24855  17.085   8.996   3.104 -0.0656 -0.2008  0.2219
 8008W        W24856   1.327   4.767   2.795 -0.0992 -0.1015 -0.0279
 8009W        W24857   4.038   8.230  15.695  0.1357 -0.0886 -0.3050
 8010W        W24858   1.791  11.433   5.132 -0.1031 -0.0232 -0.0344
 8011W        W24859   7.399   0.806  12.794  0.1127 -0.0347 -0.2736
 8012W        W24860  13.846  13.219  12.777 -0.2197 -0.2014  0.2166
 8013W        W24861  15.707  14.268   1.060 -0.1896  0.1575 -0.2053
 8014W        W24862  14.007   7.601   5.095  0.3178 -0.2071  0.0092
 8015W        W24863  16.781  16.463  13.364  0.0272 -0.2086  0.2439
 8016W        W24864   7.591   8.811   0.308  0.0632  0.0695 -0.0472
 8017W        W24865   0.318   3.413  12.660  0.0156  0.0674  0.1041
 8018W        W24866  15.336  10.297  13.874 -0.1182  0.1838 -0.0039
 8019W        W24867   2.744   9.531  13.989  0.2247 -0.0251 -0.3137
 8020W        W24868  10.557  16.421   0.200  0.1625 -0.0386  0.3870
 8021W        W24869   8.684   4.540  14.619 -0.0730 -0.0427 -0.0104
 8022W        W24870   3.775  15.616   2.272  0.1470 -0.0500  0.0653
 8023W        W24871   8.961  11.165  14.910 -0.2956 -0.0425  0.2302
 8024W        W24872  16.524  16.154  12.852 -0.2148 -0.1291  0.2043
 8025W        W24873  13.683  10.234   1.512  0.0831  0.0788  0.2164
 8026W        W24874   2.468  16.932   5.375  0.2336 -0.0164 -0.2521
 8027W        W24875   2.703  14.330   0.466 -0.0927 -0.0482 -0.0458
 8028W        W24876  12.263  12.301   4.345 -0.0644 -0.0962 -0.0987
 8029W        W24877   2.548  10.387   4.827  0.0519  0.2044 -0.1668
 8030W        W24878  13.426   7.664   2.566 -0.2986  0.1914 -0.0415
 8031W        W24879  10.966   7.611   1.173  0.0490 -0.0752  0.2019
 8032W        W24880  11.934   7.803  13.213 -0.1384 -0.1211  0.0727
 8033W        W24881  13.769   3.999   3.168  0.0613  0.2989  0.0322
 8034W        W24882   6.738   2.351   5.414 -0.0547  0.1200  0.0452
 8035W        W24883  12.963   0.932   3.422 -0.1223 -0.0658  0.0461
 8036W        W24884   0.021   2.130   5.345 -0.1269  0.0187 -0.1127
 8037W        W24885   8.251   0.138   3.546 -0.0554  0.0388 -0.0502
 8038W        W24886  15.719   7.307  13.205  0.0499 -0.0936 -0.2296
 8039W        W24887  14.446   9.708   4.166  0.0986 -0.1179 -0.0302
 8040W        W24888   5.279  10.579   3.585 -0.0095 -0.2205  0.1774
 8041W        W24889   9.058   2.059   2.066  0.1851  0.0518 -0.0966
 8042W        W24890   8.890  10.263  14.497 -0.0249 -0.2021 -0.1423
 8043W        W24891   7.527   4.521   2.262  0.3895 -0.2772 -0.3111
 8044W        W24892   1.044   9.730  15.846  0.0342 -0.3710 -0.0499
 8045W        W24893   8.745  16.807  13.884  0.1937  0.0569  0.0858
 8046W        W24894  11.524   3.577  15.582  0.1353 -0.1317 -0.0571
 8047W        W24895  12.445  11.021   0.210  0.1633  0.1152  0.0470
 8048W        W24896   4.780  13.568  11.512 -0.3308  0.0311 -0.1542
 8049W        W24897  13.193   1.720   5.024 -0.1352 -0.1055  0.1097
 8050W        W24898   0.319  16.121  14.400  0.1887 -0.0145  0.1749
 8051W        W24899   1.002  15.802  13.995 -0.2453 -0.1304  0.1576
 8052W        W24900  12.182   0.329   0.044 -0.2337 -0.1984  0.2734
 8053W        W24901   5.742   2.115  15.390 -0.2056  0.0842  0.3508
 8054W        W24902   3.991   3.468  11.943 -0.0173  0.0249  0.2210
 8055W        W24903  10.987  14.257   4.081  0.2735 -0.0812 -0.3192
 8056W        W24904   7.808  11.735  11.993  0.0083  0.0355  0.0425
 8057W        W24905   9.492   2.187   4.208  0.0889 -0.0447  0.0243
 8058W        W24906   3.889   7.892  14.424 -0.2871 -0.3543  0.0432
 8059W        W24907   9.866   2.223   3.063 -0.1392 -0.1977 -0.2435
 8060W        W24908  16.188  13.516  14.703 -0.2417 -0.0825 -0.1186
 8061W        W24909  14.038  12.201  15.137 -0.0407  0.2116 -0.1984
 8062W        W24910   6.353  13.182  16.297  0.1733  0.0322 -0.0980
 8063W        W24911  14.902   7.246  15.305 -0.1108 -0.0233  0.1005
 8064W        W24912   9.839   3.968  13.121  0.0331  0.2728  0.0503
 8065W        W24913   9.730  14.149  13.033 -0.1099  0.0613  0.3271
 8066W        W24914   9.876  13.838  13.775  0.1411  0.0355 -0.1658
 8067W        W24915  13.983  10.566  12.708  0.0684  0.0723 -0.1026
 8068W        W24916   7.938   7.487  15.380 -0.0221 -0.2899  0.0970
 8069W        W24917  10.737  14.627   3.601 -0.2603 -0.3441 -0.2828
 8070W        W24918   1.983   3.931  14.781 -0.0889  0.2142 -0.1496
 8071W        W24919  11.695  11.090   5.845 -0.0096  0.0115  0.0406
 8072W        W24920  17.117   6.379   0.996 -0.1475 -0.0980 -0.2040
 8073W        W24921  16.394  13.279   2.989 -0.1369  0.0507  0.1577
 8074W        W24922   2.041  15.457   1.022  0.0863  0.2878 -0.1694
 8075W        W24923   7.062   8.048   1.602  0.1192 -0.1563  0.0827
 8076W        W24924   2.673  13.875  10.694 -0.2333 -0.1845  0.1580
 8077W        W24925  10.811  11.237  11.996 -0.0507 -0.1047 -0.0001
 8078W        W24926  16.855  11.180   2.485  0.0382  0.0813 -0.0511
 8079W        W24927   2.180  13.974  16.021 -0.0546 -0.0016  0.0238
 8080W        W24928  12.665  12.012  15.263  0.1885 -0.1235 -0.0558
 8081W        W24929  10.589   4.267  12.292 -0.2142  0.2080  0.1476
 8082W        W24930  10.564   5.445  12.882 -0.0188 -0.1520  0.0824
 8083W        W24931  16.222   5.851   5.963  0.3271  0.1475 -0.2409
 8084W        W24932   8.845   3.556   0.517  0.3044  0.0735 -0.1731
 8085W        W24933   9.316  15.610   2.976  0.0687 -0.2214  0.1102
 8086W        W24934  12.255   5.504  14.264  0.1085  0.2246  0.0911
 8087W        W24935   4.336  11.674   2.221 -0.0896 -0.2291 -0.0736
 8088W        W24936   1.595  14.589   4.412  0.0379 -0.0680 -0.3853
 8089W        W24937   3.243   5.112  14.857 -0.2445  0.0204 -0.0840
 8090W        W24938   5.209   9.011   1.284 -0.3386  0.1786 -0.2019
 8091W        W24939  16.374   8.991   4.130 -0.1819 -0.1955  0.2690
 8092W        W24940   4.629  15.514   3.320  0.2026 -0.0531  0.1570
 8093W        W24941   0.316  12.974  13.444  0.3144 -0.0777  0.0530
 8094W        W24942   2.619   6.448   1.149  0.0406 -0.1179  0.1175
 8095W        W24943  11.628  10.035  11.390  0.0338 -0.0604  0.2067
 8096W        W24944  13.635   1.439   1.384  0.2139 -0.1888  0.0089
 8097W        W24945   6.636   4.563   2.410 -0.1350  0.2249 -0.1082
 8098W        W24946   1.735  10.426  14.023 -0.1071  0.1799  0.0530
 8099W        W24947  14.517  14.441  15.958 -0.1091  0.0684  0.0324
 8100W        W24948  13.375   5.227   1.087  0.1712 -0.0737 -0.0961
 8101W        W24949   7.100  17.611  12.875  0.4128 -0.2495 -0.0081
 8102W        W24950   5.139   1.271   4.792 -0.2479 -0.0518  0.2175
 8103W        W24951  11.927  14.263  14.565 -0.0674 -0.3797  0.0347
 8104W        W24952   7.756  12.840  13.902  0.1334  0.0501  0.0961
 8105W        W24953   0.686   4.120  14.654 -0.1904  0.0375 -0.0579
 8106W        W24954   6.299  15.460   1.619 -0.0615  0.0360  0.0831
 8107W        W24955  15.757   7.657  14.258  0.1407 -0.0257 -0.0381
 8108W        W24956   4.821  17.624  14.415 -0.0471 -0.0518 -0.0861
 8109W        W24957   0.971  11.416   2.715 -0.0592  0.1325  0.1236
 8110W        W24958  16.811  10.979  14.655 -0.1142  0.1191  0.2346
 8111W        W24959  13.868   6.071   4.364 -0.1493 -0.0020 -0.0250
 8112W        W24960  15.539  15.662   1.977 -0.2591 -0.2366 -0.0584
 8113W        W24961  17.364  17.514   3.637 -0.0614  0.0270 -0.0234
 8114W        W24962  12.242  11.573   2.664 -0.0225  0.2499 -0.1381
 8115W        W24963   5.909  11.210   0.696 -0.1282  0.0600 -0.1246
 8116W        W24964   8.003   8.799  16.637  0.1389 -0.1042  0.1818
 8117W        W24965  13.136  15.448   0.150  0.0790 -0.0780  0.0048
 8118W        W24966   1.983   6.334  12.411  0.0600 -0.0083  0.1516
 8119W        W24967   6.649   9.425   4.513  0.0649 -0.1161  0.0216
 8120W        W24968   6.534   4.433  12.728  0.1561 -0.1110  0.1984
 8121W        W24969  12.801   9.064  16.371 -0.3090  0.0648  0.1801
 8122W        W24970  14.822   6.583  15.035 -0.1866 -0.0107  0.1157
 8123W        W24971   7.774   3.533   2.780  0.1038  0.1477  0.2713
 8124W        W24972  15.331  13.362  11.662  0.2136  0.2542  0.1238
 8125W        W24973   7.786   3.750   4.982  0.1042  0.1969  0.0319
 8126W        W24974   8.855   0.922  13.509  0.0206  0.0156  0.0076
 8127W        W24975   4.672   4.484  11.455 -0.0155  0.2540  0.1172
 8128W        W24976  16.335  12.594   4.699  0.1546 -0.2326 -0.1927
 8129W        W24977  14.932   6.802  12.393 -0.1402 -0.0183 -0.1656
 8130W        W24978   0.869  11.520   4.752 -0.1355 -0.1009  0.1887
 8131W        W24979   9.973  13.985  16.359 -0.0082 -0.1311  0.2430
 8132W        W24980  13.763   0.719   3.002  0.1199 -0.1885 -0.0404
 8133W        W24981  11.963  13.729  12.870  0.1135 -0.0957 -0.2079
 8134W        W24982   1.231  17.128  15.526 -0.0557  0.2085  0.1396
 8135W        W24983  17.088   7.096  12.901 -0.1645  0.1860 -0.0053
 8136W        W24984  13.067  12.755   0.264 -0.0398 -0.1967  0.0200
 8137W        W24985  13.392   3.969   4.025 -0.1410  0.5023 -0.4516
 8138W        W24986   9.466  12.418  15.061 -0.0600 -0.0316 -0.2194
 8139W        W24987   2.439  14.694   1.916  0.1045  0.2005  0.3306
 8140W        W24988   3.931   5.416   4.572 -0.2267  0.0923  0.0833
 8141W        W24989   5.120  16.367  13.371 -0.0459  0.1213 -0.0583
 8142W        W24990   8.008  15.601   0.277  0.1188 -0.0408 -0.0969
 8143W        W24991   8.637   7.029   1.539  0.2748 -0.0738 -0.1781
 8144W        W24992  17.389   3.870  16.107 -0.0118 -0.1237  0.3569
 8145W        W24993   1.379  16.803   1.214 -0.0645 -0.0004 -0.2599
 8146W        W24994   0.240  17.535   1.598 -0.2649  0.0342 -0.0711
 8147W        W24995  17.583  13.646  11.827  0.0394  0.0218  0.1152
 8148W        W24996  14.264   5.068  12.131  0.2309 -0.0863 -0.1727
 8149W        W24997   5.013   8.106  12.500  0.2744  0.2769 -0.1275
 8150W        W24998   9.664   5.841   1.370 -0.0597 -0.2741  0.0963
 8151W        W24999   4.230   8.224   2.644  0.2549  0.0668 -0.1138
 8152W        W25000   7.508   4.580   0.363  0.3969 -0.1455 -0.1808
 8153W        W25001  13.971   2.111  11.246 -0.0537  0.2348 -0.0572
 8154W        W25002  12.083  15.470  15.516 -0.1814  0.0426 -0.0709
 8155W        W25003   5.612   3.706   2.838  0.1903 -0.1197 -0.1309
 8156W        W25004   4.916   0.521  11.866  0.2256 -0.0305 -0.0383
 8157W        W25005   1.060  17.542  15.234  0.1416  0.1325 -0.2420
 8158W        W25006  15.052   0.603  16.479  0.3293  0.0136 -0.2569
 8159W        W25007   0.248  10.089   5.576  0.1759  0.2688 -0.0909
 8160W        W25008   9.612   5.584  11.130  0.0028  0.0038 -0.0078
 8161W        W25009   8.473   7.388  15.836  0.1319  0.2285  0.1136
 8162W        W25010   7.440  17.136   3.934  0.2050 -0.2977  0.1038
 8163W        W25011  16.102   4.544  11.146  0.3531 -0.3003 -0.2090
 8164W        W25012  14.293   5.591   4.521 -0.2218 -0.0307  0.0800
 8165W        W25013  10.407   2.500  11.637  0.3366 -0.0212  0.0928
 8166W        W25014   7.873  14.210   4.020  0.1351  0.1723 -0.3126
 8167W        W25015   1.015  11.132  11.222 -0.0868 -0.0000  0.2961
 8168W        W25016   2.201  15.740   4.843  0.2350  0.1501 -0.2897
 8169W        W25017   7.108   5.982  15.179  0.0297 -0.0580  0.0374
 8170W        W25018   9.917  14.832   2.717  0.2205  0.1737 -0.5253
 8171W        W25019  17.381   8.292  15.501 -0.2046 -0.2753 -0.0715
 8172W        W25020   9.523   5.670  10.178  0.0495  0.2400 -0.0215
 8173W        W25021   9.771   9.906  12.440  0.2132  0.0209  0.0065
 8174W        W25022   0.294  12.375  11.875 -0.0823 -0.0033  0.1752
 8175W        W25023   1.691  11.377   4.686 -0.2079 -0.2003  0.0873
 8176W        W25024  12.253  13.093   1.708 -0.2354  0.4536 -0.0788
 8177W        W25025  13.078   2.815  11.292 -0.0645 -0.0365 -0.0590
 8178W        W25026   2.398   3.304  11.394 -0.0999  0.1862  0.1498
 8179W        W25027  11.537   7.443  13.275  0.1137 -0.0501  0.0331
 8180W        W25028  14.228   0.637   3.273 -0.0656 -0.1124 -0.0392
 8181W        W25029  10.855  13.259  14.334  0.1081  0.1595 -0.3034
 8182W        W25030   2.320  11.533  12.528 -0.1195 -0.0588 -0.0437
 8183W        W25031   2.844  13.639   4.212  0.1610  0.4114  0.0105
 8184W        W25032  12.392   7.990  13.644  0.2393 -0.0627  0.0570
 8185W        W25033  15.219  11.754  14.069  0.0628  0.0825  0.0783
 8186W        W25034   1.504  16.754   3.268  0.2094  0.2338 -0.0442
 8187W        W25035  15.424   1.308  14.647  0.0042 -0.1087 -0.0072
 8188W        W25036   9.596  11.076  13.341  0.2268 -0.3218 -0.1314
 8189W        W25037  11.871   1.384  16.536 -0.1686  0.2256  0.1346
 8190W        W25038   5.714   7.512  12.751  0.0334 -0.0757  0.1129
 8191W        W25039   9.521  16.555   4.933 -0.0435  0.0771  0.0035
 8192W        W25040   6.935  12.094   0.949  0.1095 -0.0371 -0.2782
 8193W        W25041   1.060  13.222  16.358  0.1042 -0.0779 -0.0620
 8194W        W25042   6.635   1.953  15.517 -0.2118  0.1063  0.0458
 8195W        W25043   9.614  16.458  14.031  0.0778 -0.3333 -0.1652
 8196W        W25044   1.017  13.913   5.266 -0.2307  0.4535 -0.0201
 8197W        W25045   6.151  14.016  13.616  0.0110  0.0059 -0.2014
 8198W        W25046  12.270  13.973  13.550  0.3962 -0.4638 -0.1537
 8199W        W25047  11.899   4.531  13.413 -0.1167 -0.1016 -0.4255
 8200W        W25048   3.228   5.155   5.040  0.3245 -0.3989  0.0379
 8201W        W25049   4.339  11.892   2.728 -0.0002 -0.1378  0.4463
 8202W        W25050  12.782  15.722  13.692 -0.2058 -0.0696 -0.2545
 8203W        W25051   1.060   4.668  15.995 -0.0568 -0.4089  0.2463
 8204W        W25052   4.649  13.813   2.234 -0.0198  0.0021 -0.0149
 8205W        W25053   7.397   7.026   5.071  0.2970 -0.1697  0.3032
 8206W        W25054   5.652  15.121  15.768  0.2250  0.0449 -0.1990
 8207W        W25055   9.922   6.137  12.252 -0.2244  0.0922 -0.2604
 8208W        W25056   1.907   3.729   4.908 -0.1003  0.5106  0.1421
 8209W        W25057   9.512  16.468   5.507  0.0760 -0.0406 -0.3930
 8210W        W25058   0.632   9.986  16.022  0.1762 -0.0472 -0.2055
 8211W        W25059  11.550  17.200   1.821  0.3902 -0.3304  0.1134
 8212W        W25060  10.671  17.631  12.497  0.0286 -0.0889  0.2477
 8213W        W25061   9.752  15.639   6.055 -0.0531  0.1066  0.0252
 8214W        W25062  13.570  10.539  15.835 -0.1318  0.0040  0.2511
 8215W        W25063  11.604   5.162  16.443  0.0336  0.1456  0.2485
 8216W        W25064   8.292   5.103  14.411 -0.2046  0.1857  0.0270
 8217W        W25065   7.038   8.174   4.502 -0.0605  0.1620  0.2016
 8218W        W25066  17.608   9.477   3.630 -0.0631  0.1238  0.1901
 8219W        W25067  15.618  15.918   2.783  0.0214  0.0452  0.1955
 8220W        W25068  16.113  10.400   3.378  0.1185 -0.2731  0.1859
 8221W        W25069   1.680   3.080  11.065  0.1321  0.1879  0.0236
 8222W        W25070  12.517  14.933  11.826  0.0832  0.1115 -0.1025
 8223W        W25071  17.674  13.620  14.229 -0.0658 -0.0984 -0.2759
 8224W        W25072  11.492  11.395  13.492  0.1626 -0.0148  0.3334
 8225W        W25073  16.792  12.459  11.323  0.1205  0.1760 -0.1012
 8226W        W25074  10.517   1.195   4.615  0.2478  0.0719  0.1085
 8227W        W25075  14.999   8.401   2.763 -0.0274  0.0616  0.0456
 8228W        W25076   0.052   5.271   1.650  0.1268 -0.2639 -0.1046
 8229W        W25077   7.668  12.536  12.489 -0.0116  0.0917  0.0702
 8230W        W25078   4.560   7.802  15.060 -0.2557  0.0229  0.0144
 8231W        W25079   9.229   7.668  13.360  0.0184  0.1059  0.2735
 8232W        W25080   1.976   4.389  10.864 -0.2688  0.2037 -0.1288
 8233W        W25081   8.370   7.186   4.878 -0.1367  0.0048  0.1236
 8234W        W25082   6.251   7.575   5.863 -0.1329 -0.0579 -0.0211
 8235W        W25083   0.563   0.977  15.022  0.0187 -0.0390  0.3650
 8236W        W25084  11.104  12.619   3.440 -0.5308  0.1030  0.1305
 8237W        W25085   0.208  16.578  15.667 -0.1562 -0.0417 -0.1895
 8238W        W25086  11.072  13.848  12.898  0.0954 -0.1284 -0.1528
 8239W        W25087   6.113   4.453  12.366 -0.0954 -0.2024 -0.0435
 8240W        W25088   6.647   0.526  12.660  0.0890 -0.2542  0.0128
 8241W        W25089  17.617   9.712   4.051 -0.1213  0.1808  0.0252
 8242W        W25090   8.638  11.247  16.101 -0.1677 -0.0384  0.0747
 8243W        W25091  14.805  10.844   4.305 -0.1111 -0.0661  0.1783
 8244W        W25092   4.628   6.059   2.234 -0.0746  0.0250  0.0289
 8245W        W25093   1.923   7.532  15.770 -0.0636 -0.0300 -0.0557
 8246W        W25094   2.619   5.425   3.582 -0.2663 -0.1173 -0.3000
 8247W        W25095   9.114  16.094   4.743  0.0100  0.2923 -0.3835
 8248W        W25096  14.545   9.370  11.154  0.1138 -0.2247  0.0101
 8249W        W25097   4.121  14.563  12.294 -0.1910  0.1189  0.0276
 8250W        W25098   1.824   7.989   0.719 -0.0596 -0.0025 -0.1463
 8251W        W25099   3.969   5.876  15.798  0.0721 -0.0592  0.0328
 8252W        W25100   2.570  10.965  13.867 -0.0860  0.0464  0.1211
 8253W        W25101   2.905  15.071   1.189 -0.1001  0.0752  0.2153
 8254W        W25102   3.335   0.011  15.202  0.0897 -0.0449 -0.1343
 8255W        W25103   0.324  11.925  12.728 -0.0994 -0.0547 -0.2034
 8256W        W25104   5.312  12.068   4.256 -0.1101  0.0115  0.2138
 8257W        W25105  15.020   4.984   1.944  0.0766  0.2082  0.3838
 8258W        W25106   0.729   6.217  15.199  0.1553  0.0437  0.0638
 8259W        W25107   4.030  17.518   4.755 -0.0834 -0.0174 -0.2235
 8260W        W25108   2.259   0.603  16.560  0.0028 -0.0682 -0.1490
 8261W        W25109   6.927  13.053  12.614 -0.3691 -0.0124 -0.0746
 8262W        W25110  10.025   8.266   4.853  0.1753 -0.0174 -0.0550
 8263W        W25111  14.340   6.521   4.448  0.2968  0.1580  0.0401
 8264W        W25112   4.777  16.036   4.511  0.0033 -0.1656 -0.0918
 8265W        W25113   0.011  17.546   3.293 -0.1494  0.0135  0.0612
 8266W        W25114   7.477   1.962   3.580 -0.0277 -0.1389  0.0231
 8267W        W25115  17.687   4.060  13.448 -0.0515  0.0389 -0.1951
 8268W        W25116   7.822  10.438  14.585 -0.0138 -0.2622  0.0126
 8269W        W25117   5.171   3.032   2.514  0.0050 -0.2159  0.0016
 8270W        W25118   7.464  11.576   4.685  0.0808  0.1863  0.0025
 8271W        W25119  11.967   5.890   2.713 -0.1827  0.1382 -0.2101
 8272W        W25120  15.242   2.758  13.551 -0.2563 -0.2196 -0.0730
 8273W        W25121  13.696   2.642   4.363 -0.2167 -0.1568 -0.0359
 8274W        W25122   9.871  13.814  14.945 -0.1155 -0.0576 -0.2352
 8275W        W25123  12.032   4.262   5.345  0.2786  0.0548 -0.0809
 8276W        W25124   6.868   2.797   2.585 -0.0625 -0.3830  0.0763
 8277W        W25125  17.573   3.793   5.453  0.0289  0.0252  0.4829
 8278W        W25126   3.503  10.787   1.454  0.3656  0.1209 -0.4145
 8279W        W25127  10.180  16.198   2.088 -0.1001  0.1706 -0.0590
 8280W        W25128   8.610   4.839  14.984 -0.0041 -0.2160  0.0841
 8281W        W25129   2.217   2.703  13.131  0.2678  0.2702 -0.0153
 8282W        W25130   5.857  15.072  12.604 -0.1912 -0.2375 -0.0138
 8283W        W25131  14.285   4.621  11.837  0.1977 -0.0015  0.1858
 8284W        W25132   8.580  15.656   3.046  0.1252  0.0585 -0.0287
 8285W        W25133   3.202   3.528   2.695  0.1300 -0.0928  0.1888
 8286W        W25134  12.246   4.434  14.335  0.2810 -0.0570  0.0105
 8287W        W25135  16.025   4.742   2.061  0.0876  0.1638  0.2752
 8288W        W25136  10.758  10.421   4.079 -0.0076 -0.0031 -0.3180
 8289W        W25137  16.338   7.530  16.347  0.2332 -0.4401 -0.2453
 8290W        W25138  10.024  11.869  13.110  0.1081  0.0680 -0.2540
 8291W        W25139  16.542   0.016   5.968  0.0929 -0.2988  0.1952
 8292W        W25140  14.899  11.423  16.070 -0.3815  0.0188  0.2672
 8293W        W25141   6.284  15.725   3.953  0.0878  0.1104 -0.0967
 8294W        W25142   5.987  11.946  16.101 -0.1109  0.1945  0.1180
 8295W        W25143  17.608   9.188   5.535  0.2347 -0.0903  0.0877
 8296W        W25144   9.765  16.207  11.732  0.1200  0.0372  0.1170
 8297W        W25145   1.528  11.800  15.906 -0.0229 -0.0280  0.1355
 8298W        W25146   6.704  12.261  11.978 -0.1082  0.2772 -0.3669
 8299W        W25147   0.665   8.371   2.013 -0.1404 -0.1114  0.0678
 8300W        W25148  11.968  11.071   4.621 -0.2492 -0.1116 -0.0114
 8301W        W25149   5.438  16.242  15.252  0.2789  0.1084 -0.3912
 8302W        W25150   5.330   5.664  14.557 -0.3130 -0.1758 -0.0149
 8303W        W25151  17.469   5.370   6.257  0.0717 -0.3570  0.2690
 8304W        W25152   6.377   5.563  14.078  0.0186 -0.1066  0.2100
 8305W        W25153  15.202   6.635  12.750 -0.0758  0.1791  0.1318
 8306W        W25154  15.205   0.845  11.610 -0.1182 -0.0986  0.0822
 8307W        W25155  14.281   7.070   2.078  0.1090 -0.2340 -0.1284
 8308W        W25156  13.510  11.260   2.212 -0.0192 -0.0388  0.3026
 8309W        W25157   5.727  15.778  16.169 -0.1882  0.2823 -0.1387
 8310W        W25158  13.429  14.710  13.630  0.1547 -0.1331 -0.1158
 8311W        W25159   7.426   9.832  14.479 -0.0603 -0.1605 -0.2474
 8312W        W25160   4.779  15.790  16.474  0.1038  0.3756  0.1222
 8313W        W25161   3.342  13.506  12.354 -0.1467 -0.3001  0.0238
 8314W        W25162  14.209   2.309   3.713 -0.4698  0.0569 -0.0291
 8315W        W25163   0.153  15.234  15.754 -0.0133 -0.1152  0.0373
 8316W        W25164   7.875  10.674   1.643 -0.0076  0.0836  0.2622
 8317W        W25165  13.782   2.472  15.253 -0.0068 -0.2044  0.0705
 8318W        W25166   1.436  16.948  12.703  0.0450 -0.0576  0.2969
 8319W        W25167   3.124  10.595   2.271  0.0198  0.0330  0.1995
 8320W        W25168  13.812   8.433   3.581 -0.0102 -0.1310 -0.2570
 8321W        W25169  12.459   4.323  12.336 -0.3277 -0.0363 -0.3002
 8322W        W25170  15.092   4.481  11.408 -0.0110  0.1450  0.0504
 8323W        W25171   7.074  15.355  13.350 -0.0637 -0.2796  0.3305
 8324W        W25172  12.011   4.803   6.045  0.0878  0.0814 -0.3233
 8325W        W25173   3.681  16.919  13.106 -0.1195 -0.2140 -0.2165
 8326W        W25174  14.047  15.403   4.013 -0.1007 -0.1122 -0.1079
 8327W        W25175   9.372   2.648   4.258  0.1045 -0.0389  0.1019
 8328W        W25176   8.708  15.144  11.795  0.3075 -0.0039  0.3466
 8329W        W25177  12.278  15.695  11.726 -0.0616  0.1600 -0.0962
 8330W        W25178   1.582   6.273   1.398 -0.1617  0.1006  0.1293
 8331W        W25179   3.011  17.525   0.619 -0.1351 -0.5363 -0.1905
 8332W        W25180  10.405   1.306  14.861 -0.3048 -0.2252  0.0244
 8333W        W25181   2.659  11.272   4.834  0.0597 -0.0844 -0.0854
 8334W        W25182   0.717  12.026   2.386 -0.1284 -0.1837 -0.1556
 8335W        W25183  13.084   6.282   2.692  0.0352 -0.2553  0.0936
 8336W        W25184   3.360  13.013  12.365 -0.1646 -0.1442 -0.1428
 8337W        W25185  16.159  12.310   2.987  0.3566  0.0654 -0.0197
 8338W        W25186  12.438   4.775  12.558 -0.1602  0.0510  0.0345
 8339W        W25187   0.185   1.169  11.165 -0.2061  0.0536 -0.0488
 8340W        W25188  16.625  15.330   2.103 -0.2579 -0.0853 -0.3037
 8341W        W25189  15.954  14.039   0.402  0.1418  0.0674 -0.0205
 8342W        W25190  17.113   9.962   1.555  0.0940 -0.0947  0.1370
 8343W        W25191  13.467   2.688  11.752  0.0330 -0.0946  0.1335
 8344W        W25192  17.388   2.808   0.058  0.0466  0.1578  0.2818
 8345W        W25193   5.633   1.941   6.316  0.1388 -0.0457 -0.1857
 8346W        W25194  14.865   1.502   1.435 -0.1822  0.1141  0.0183
 8347W        W25195   0.910  11.907   3.040  0.0765 -0.0807 -0.0425
 8348W        W25196   9.649  13.627  15.714 -0.0108 -0.2710  0.1390
 8349W        W25197  10.354   1.052  11.599  0.2217 -0.0613 -0.1550
 8350W        W25198  16.555   4.145  16.139  0.2486 -0.0376 -0.2625
 8351W        W25199   8.801  14.503   0.218 -0.0780 -0.0313 -0.1472
 8352W        W25200   1.189  12.540  11.444 -0.3833 -0.4294 -0.1313
 8353W        W25201  15.935   6.429   5.220 -0.0808 -0.1092  0.1995
 8354W        W25202  16.716  15.007  12.700 -0.1355  0.0395  0.0269
 8355W        W25203   2.016   3.394   0.751 -0.0585 -0.1113  0.1566
 8356W        W25204  14.357  13.207  14.194  0.1983 -0.1045  0.1528
 8357W        W25205   5.500   5.868  15.456 -0.2596 -0.0708  0.0300
 8358W        W25206   7.866   8.874  14.059 -0.0719 -0.1904  0.0372
 8359W        W25207   6.216  15.779   1.951 -0.1389 -0.0952 -0.1141
 8360W        W25208   2.256  17.334   3.648  0.0388  0.2222 -0.1004
 8361W        W25209   2.418  11.684   3.506 -0.1320 -0.0299  0.4143
 8362W        W25210   2.368   1.063   2.595  0.0827  0.0959 -0.1344
 8363W        W25211  17.598   5.054   3.742  0.2462  0.0329 -0.1031
 8364W        W25212   6.266   7.549  16.540  0.0558  0.0943 -0.2044
 8365W        W25213   7.507   7.382  16.234 -0.0225 -0.2755 -0.2492
 8366W        W25214   7.819   7.768  10.730  0.1034  0.0872  0.2224
 8367W        W25215   0.265   8.400  12.129 -0.2594 -0.2013 -0.0312
 8368W        W25216   0.654  10.530  11.684 -0.2194 -0.1692 -0.1475
 8369W        W25217  13.146  11.054  12.895 -0.2888  0.0619 -0.0894
 8370W        W25218  16.064   5.416   5.187  0.0154  0.2412 -0.3086
 8371W        W25219  16.516  10.326   0.959 -0.0325  0.0746  0.0945
 8372W        W25220   2.545   8.940   0.791  0.0727  0.0452 -0.0122
 8373W        W25221   2.866  17.368  15.906  0.0938  0.2174  0.0247
 8374W        W25222   2.850  12.987   0.752 -0.0394 -0.3401  0.2552
 8375W        W25223  15.835  16.116  13.385  0.0592  0.1052 -0.0712
 8376W        W25224   2.392   4.249  15.657  0.0483 -0.1893  0.0372
 8377W        W25225   5.759   3.154   0.438 -0.0579 -0.2451  0.1276
 8378W        W25226   8.777  10.252  15.124  0.2274 -0.1954 -0.0250
 8379W        W25227   8.889   5.486  12.843 -0.1042  0.0096 -0.1828
 8380W        W25228   3.261  12.001   0.169 -0.2126  0.2571 -0.3115
 8381W        W25229   5.004   0.958   1.609  0.2309  0.2452 -0.4015
 8382W        W25230   3.544   1.359   0.773  0.1650 -0.0841 -0.0399
 8383W        W25231  13.206  13.867  11.782  0.1075  0.2467 -0.4450
 8384W        W25232  17.531   2.994   2.689 -0.0517 -0.1467  0.2080
 8385W        W25233   9.567  13.894   2.886  0.0333 -0.1493 -0.0259
 8386W        W25234  11.645  10.920   1.220 -0.0712  0.0211  0.0151
 8387W        W25235  12.259   5.151  13.501  0.5485  0.1829  0.1498
 8388W        W25236  17.425   7.120  14.995  0.0424  0.0521  0.0867
 8389W        W25237   2.480   6.565  12.514 -0.1410 -0.1153  0.1445
 8390W        W25238  16.761   0.646   1.155 -0.0421 -0.2160 -0.0560
 8391W        W25239   2.922  13.856   3.562  0.1887 -0.3547  0.0284
 8392W        W25240  16.943  14.972  11.679 -0.0850 -0.0923 -0.2736
 8393W        W25241   4.016   4.890  14.358 -0.0892 -0.3915  0.1253
 8394W        W25242   0.125  16.733  14.679 -0.1013 -0.1401 -0.1987
 8395W        W25243   9.412  15.400  16.108  0.1380  0.2006 -0.2131
 8396W        W25244  10.825   8.789  14.689 -0.1249  0.0801  0.0384
 8397W        W25245   3.817   5.922  13.433  0.2094 -0.0131 -0.0292
 8398W        W25246  11.136  10.689   3.934 -0.0829  0.0676 -0.1259
 8399W        W25247  12.203   8.789   0.523 -0.0383  0.0167 -0.1871
 8400W        W25248  10.121  16.435  14.891  0.0131  0.1273  0.2226
 8401W        W25249  15.392   3.586  16.084 -0.0481  0.2083  0.1625
 8402W        W25250   2.018  16.376  11.614  0.0997  0.1753  0.1511
 8403W        W25251  12.738   4.104  14.161 -0.1682 -0.1918  0.2586
 8404W        W25252  12.728   2.574   1.617  0.1189  0.1275  0.0057
 8405W        W25253   0.871   3.426  15.075 -0.2511 -0.0936  0.0770
 8406W        W25254  12.084  16.919   4.874 -0.1818 -0.0613 -0.1280
 8407W        W25255   1.209   1.330  15.622  0.0924 -0.0220 -0.3880
 8408W        W25256   0.882   0.747   1.188 -0.0294 -0.0649  0.1619
 8409W        W25257   8.571  13.878   0.386 -0.0224  0.3341  0.1360
 8410W        W25258   3.429   7.559   1.753  0.2233 -0.0952  0.0380
 8411W        W25259   7.401   1.799   1.108  0.4266  0.1611  0.0754
 8412W        W25260   9.552  11.243  11.236 -0.0434  0.0804 -0.1611
 8413W        W25261   6.522  11.568   4.115 -0.2001 -0.2291  0.0584
 8414W        W25262  12.036  16.954  14.271  0.0934  0.2952  0.2373
 8415W        W25263   0.021   8.195   4.946  0.0242 -0.2392 -0.2378
 8416W        W25264  15.112   1.753  14.001  0.2517  0.2132  0.0774
 8417W        W25265   5.739   9.115   1.296 -0.1797  0.0046 -0.1433
 8418W        W25266  11.909   4.637  11.827  0.2007  0.0971 -0.2516
 8419W        W25267   1.488  14.574   2.672 -0.0487 -0.1423 -0.0680
 8420W        W25268   5.220  13.944  13.343  0.1099 -0.4693  0.0935
 8421W        W25269   5.571   4.796   2.994 -0.1230 -0.0437  0.0750
 8422W        W25270  15.273   8.415  13.948  0.2132  0.2957 -0.1457
 8423W        W25271   4.133  11.894  11.070 -0.0976  0.1105  0.0102
 8424W        W25272   1.794   7.234   3.784 -0.0532  0.1344 -0.0094
 8425W        W25273   6.272  15.277   0.045  0.3992 -0.0846  0.1542
 8426W        W25274   5.654  12.483  14.423  0.1094  0.3585 -0.0191
 8427W        W25275  16.525  11.337   3.526  0.0415  0.1714  0.1980
 8428W        W25276  15.189  15.292  13.794 -0.2192  0.0426 -0.1200
 8429W        W25277   5.725   8.668  12.033 -0.1424  0.2974 -0.2512
 8430W        W25278   1.363  10.513  12.176  0.0796 -0.1136  0.1483
 8431W        W25279  10.760  10.783   1.990  0.0152 -0.0681 -0.1330
 8432W        W25280   5.824  14.201   2.984 -0.3017  0.2739 -0.2211
 8433W        W25281  14.716   8.263   1.428 -0.1663  0.4561 -0.2168
 8434W        W25282   6.067   7.916   3.663  0.2485 -0.1635 -0.2426
 8435W        W25283  13.041   8.155   5.716 -0.1070  0.1340  0.2446
 8436W        W25284  10.060   9.978   1.575  0.0340 -0.3282  0.2467
 8437W        W25285   6.289  14.616  11.927  0.1400  0.2331  0.1019
 8438W        W25286  14.806   5.976   3.217 -0.0956  0.2252  0.1454
 8439W        W25287   1.096  10.147  16.211 -0.1525  0.0700  0.4131
 8440W        W25288  10.075   2.494  13.026  0.1170  0.0830  0.0553
 8441W        W25289   5.109   9.953  12.039 -0.0529  0.2864  0.2739
 8442W        W25290  15.202  12.384  14.923 -0.0181 -0.2478  0.2238
 8443W        W25291   5.844   6.360  13.822 -0.0741 -0.2430 -0.2334
 8444W        W25292  11.119   1.843  14.008  0.2088 -0.0166 -0.2393
 8445W        W25293  10.190   5.795  14.047 -0.2804 -0.3675  0.1171
 8446W        W25294  13.761   7.038  12.632  0.0889  0.0241  0.2423
 8447W        W25295  16.768  13.870  13.260 -0.2132  0.2874  0.2063
 8448W        W25296  17.163   1.410  16.084  0.2152  0.1305 -0.0976
 8449W        W25297  17.297  17.295   4.159 -0.1511  0.1374  0.3305
 8450W        W25298  15.449  16.599   2.726  0.0378 -0.3466  0.0850
 8451W        W25299   3.817   6.544  12.499 -0.0710 -0.1552 -0.1631
 8452W        W25300  11.006   1.739  11.605  0.2577 -0.1613  0.1620
 8453W        W25301   2.390  15.160  13.807  0.1951  0.1661  0.1873
 8454W        W25302  11.556   0.803   3.926  0.1198 -0.0962 -0.0165
 8455W        W25303   2.643   4.248  12.413  0.3345  0.1023  0.0614
 8456W        W25304   6.110   1.230   5.840  0.1142 -0.0016  0.1240
 8457W        W25305   3.367  16.077   2.752 -0.1769  0.1177  0.0905
 8458W        W25306   9.624   4.127   3.103 -0.0627 -0.2963  0.0769
 8459W        W25307  14.225   0.924   0.239 -0.1049 -0.3572  0.3588
 8460W        W25308  17.065   1.396   1.858  0.1827  0.2804  0.1178
 8461W        W25309   0.440  12.425  14.872  0.2582 -0.0883  0.0312
 8462W        W25310   9.685  13.233  12.052 -0.0488  0.3176  0.1787
 8463W        W25311  13.102   9.219  11.707  0.1107 -0.0738  0.2022
 8464W        W25312  15.142  17.545   4.544 -0.3525  0.0660  0.0270
 8465W        W25313   6.992  11.253  12.836 -0.0866 -0.4417  0.0515
 8466W        W25314  15.476   5.114   4.451 -0.0112  0.0747 -0.1359
 8467W        W25315  10.155   2.686   1.327  0.0464  0.0214  0.1299
 8468W        W25316  16.807   9.138   0.588 -0.0493 -0.1303 -0.2413
 8469W        W25317  14.794  17.549   5.707 -0.0497  0.0378 -0.2219
 8470W        W25318   4.128  11.072   6.087 -0.0352  0.2091 -0.0921
 8471W        W25319   4.280   7.290  15.608  0.1545 -0.1498 -0.1454
 8472W        W25320   6.701   2.693   4.429 -0.0063  0.0896  0.0605
 8473W        W25321   1.679   0.263  14.675  0.0306 -0.3052 -0.1453
 8474W        W25322   0.933   3.722  14.679 -0.0020  0.1754 -0.1462
 8475W        W25323   2.273  17.166  11.959 -0.2567 -0.1413 -0.1339
 8476W        W25324  13.935   4.607  15.889  0.0675  0.1082 -0.1728
 8477W        W25325  16.911  15.487  14.937 -0.0790 -0.1059 -0.1051
 8478W        W25326  14.637  16.579  15.471 -0.1432 -0.0626  0.0421
 8479W        W25327  11.966  15.855  12.607  0.1431  0.0696  0.0096
 8480W        W25328  15.579  15.235  14.104  0.1950 -0.0062  0.1338
 8481W        W25329   9.119   1.265  16.567  0.1198 -0.1497  0.0916
 8482W        W25330   5.920  14.260   0.953  0.0019  0.0512 -0.3680
 8483W        W25331  15.689   3.031  16.271 -0.0563 -0.0420  0.0268
 8484W        W25332   4.510   9.489  13.650  0.0274  0.1687  0.2617
 8485W        W25333  16.480   3.290  11.996 -0.0476  0.0039 -0.2822
 8486W        W25334   5.844   6.387  14.843  0.0303 -0.0170  0.0562
 8487W        W25335  11.757   5.786   3.743  0.1385  0.3412 -0.2536
 8488W        W25336  14.726   9.865   3.204  0.0753  0.1561 -0.1302
 8489W        W25337   5.922   7.457   1.965 -0.1118  0.1842 -0.0773
 8490W        W25338  12.072  10.763   4.985 -0.0060  0.3122  0.1211
 8491W        W25339  15.187  17.028   3.658 -0.1897  0.1513  0.2536
 8492W        W25340   2.294   2.630   3.511  0.1402  0.0479  0.4209
 8493W        W25341  16.711   1.765   5.467  0.0278  0.0651 -0.2081
 8494W        W25342   3.337   4.205   4.978  0.2323  0.1898  0.0637
 8495W        W25343   1.090   1.844  14.580 -0.0286  0.2351  0.2566
 8496W        W25344  10.213  11.022  16.057 -0.0951 -0.4021 -0.1676
 8497W        W25345   6.185  17.067  14.694 -0.1833 -0.0338  0.0754
 8498W        W25346   1.713   3.147  13.004 -0.1409  0.0548 -0.1548
 8499W        W25347  16.607   2.071  15.048 -0.0218  0.0778  0.0420
 8500W        W25348  13.947  15.769   3.596  0.1701 -0.2437  0.1564
 8501W        W25349  10.397   2.428   1.773  0.0948 -0.0051 -0.0252
 8502W        W25350   4.229  11.985  14.690  0.1215 -0.1591  0.2247
 8503W        W25351  16.307   0.192  13.821 -0.2762  0.2217  0.0360
 8504W        W25352  15.186   9.407  12.251 -0.2186 -0.0317 -0.0708
 8505W        W25353  16.962   7.724   1.282  0.0295 -0.1660 -0.1570
 8506W        W25354   6.531  10.472   5.110 -0.0902  0.1411  0.1266
 8507W        W25355  11.955   4.277   4.357  0.0684 -0.0173  0.0470
 8508W        W25356   4.731   9.160   0.204 -0.4038  0.1050 -0.0213
 8509W        W25357   7.447  11.397  12.626 -0.0706  0.0419 -0.0229
 8510W        W25358   6.005   3.257  11.599  0.0611 -0.1685  0.1911
 8511W        W25359  10.336   0.653   3.283  0.0391 -0.0964  0.0762
 8512W        W25360   7.895   2.288  13.443  0.0736 -0.0592 -0.0112
 8513W        W25361   3.512  12.271  12.145  0.2236  0.0851 -0.2441
 8514W        W25362   0.002   4.694   2.376 -0.6459  0.2762  0.0609
 8515W        W25363   8.262  10.694  13.600 -0.1520 -0.0430  0.0048
 8516W        W25364  11.778   8.983   2.067 -0.5098 -0.2830  0.0465
 8517W        W25365  15.454   1.944  12.364 -0.1049  0.0798  0.0425
 8518W        W25366   0.681  10.072  11.468 -0.0482 -0.0099  0.0556
 8519W        W25367   4.977  10.948  16.065  0.1211 -0.0165  0.3216
 8520W        W25368   7.540  11.723   6.317  0.1561 -0.1912 -0.2856
 8521W        W25369   5.024   7.418  11.378 -0.2043  0.2180 -0.0965
 8522W        W25370  10.076  16.734  13.880  0.0169  0.2448  0.0020
 8523W        W25371  11.046  13.787  11.907 -0.2121  0.0984  0.0158
 8524W        W25372   7.396  12.710  11.479 -0.0867  0.0974  0.0042
 8525W        W25373  12.645   7.330  11.838 -0.1044 -0.0197  0.0664
 8526W        W25374   1.994  17.090   1.414 -0.0268 -0.0061  0.1907
 8527W        W25375  17.585  11.461   4.077  0.0482  0.0198 -0.1886
 8528W        W25376  14.690   9.485   0.952 -0.4088 -0.0914 -0.1863
 8529W        W25377   3.887   5.477   1.663 -0.1481 -0.4907  0.3694
 8530W        W25378  10.891   2.835  13.792  0.1341 -0.0123 -0.3034
 8531W        W25379  17.155   5.080  16.285  0.0538 -0.0319 -0.2698
 8532W        W25380   1.151  12.887   0.063  0.1166  0.3054  0.2989
 8533W        W25381  10.448   0.515   0.957 -0.2415 -0.1355  0.0237
 8534W        W25382   7.099   9.851   4.641  0.3485 -0.0534  0.0225
 8535W        W25383   1.694  16.441  12.909  0.0093  0.0181  0.0091
 8536W        W25384   1.146   0.340  13.488 -0.3517  0.1655  0.0763
 8537W        W25385   5.154  12.406   1.065  0.2737 -0.3352  0.1924
 8538W        W25386   3.977   8.577   3.675  0.1746  0.1352 -0.1591
 8539W        W25387   6.529   7.058  15.138 -0.2379 -0.1290  0.1294
 8540W        W25388  11.051  11.176   1.646  0.1182  0.1634  0.0216
 8541W        W25389   1.035   6.510  14.969  0.1861  0.1883 -0.0345
 8542W        W25390   7.049   5.115  11.596  0.3488 -0.2446 -0.2282
 8543W        W25391  14.752  16.437  12.323  0.0713  0.0341  0.1712
 8544W        W25392   8.708   5.663  12.358 -0.0133 -0.1872 -0.3392
 8545W        W25393  11.409   9.095   2.465  0.0749 -0.1607 -0.3049
 8546W        W25394   0.020   7.145  14.348 -0.1235  0.3085  0.0388
 8547W        W25395   8.976  11.587  14.426 -0.4061  0.1322  0.2939
 8548W        W25396  16.504  11.189  11.976 -0.5096 -0.1483  0.1412
 8549W        W25397   7.104  11.361   0.460 -0.2181  0.0882  0.0726
 8550W        W25398  11.124  17.543   1.852 -0.4121 -0.0335 -0.0197
 8551W        W25399   6.573  17.496  15.197 -0.1165 -0.3372 -0.2728
 8552W        W25400  11.637   2.240  14.624  0.1960 -0.0390  0.0081
 8553W        W25401  16.643  13.514  11.765  0.3754 -0.0662  0.0367
 8554W        W25402  12.262   7.602  11.538  0.2276 -0.2284 -0.1382
 8555W        W25403  12.075   0.395  13.089  0.1247 -0.2205 -0.0791
 8556W        W25404   5.009  12.774   3.923  0.0524 -0.1531  0.4111
 8557W        W25405   3.710  10.192   1.190 -0.1469  0.4254  0.2282
 8558W        W25406   8.670  15.441   2.155 -0.1644  0.0741  0.0225
 8559W        W25407   8.407   7.781  16.453  0.0982 -0.2177  0.1823
 8560W        W25408   6.818  14.848  15.025  0.1390 -0.1911  0.0663
 8561W        W25409  10.520   9.465  15.851 -0.0634 -0.0418 -0.1274
 8562W        W25410   7.742  11.028  12.662 -0.0553  0.0780 -0.2441
 8563W        W25411  16.245  15.199   1.701  0.0562  0.0888 -0.1271
 8564W        W25412  16.463   6.156  14.620 -0.1768  0.1774  0.1059
 8565W        W25413  15.695  16.764  12.650 -0.0989 -0.2984  0.3016
 8566W        W25414   2.854   9.602  14.533 -0.0898 -0.1736 -0.0241
 8567W        W25415  15.419   9.219  14.911 -0.0664  0.2340  0.1552
 8568W        W25416   5.469   1.604  15.279  0.2225 -0.0198  0.2476
 8569W        W25417   4.685   1.074  15.399  0.1122  0.3326  0.0621
 8570W        W25418   6.136  14.764  14.836 -0.1847  0.0662  0.0195
 8571W        W25419   8.663  17.142   4.547  0.0583  0.1484 -0.0831
 8572W        W25420   2.183  12.403   0.687 -0.1092  0.3265  0.0257
 8573W        W25421  13.145  10.681  15.081 -0.1968  0.1391 -0.1972
 8574W        W25422  14.095  11.566  12.603  0.2539  0.0402 -0.1996
 8575W        W25423   8.973   6.847  12.878 -0.2075  0.1443  0.0437
 8576W        W25424   7.516  12.453   0.215  0.0463  0.1980 -0.1282
 8577W        W25425   9.635   9.004  16.541  0.1291  0.1524  0.4251
 8578W        W25426  14.811   8.617  11.758 -0.0500 -0.0971  0.0364
 8579W        W25427  10.033  12.250  11.956 -0.0639  0.1488 -0.1685
 8580W        W25428   5.091   9.440   2.716 -0.4382  0.0534  0.0785
 8581W        W25429   4.422   6.008  14.838  0.0532 -0.5106  0.0196
 8582W        W25430   5.987   1.503  11.723 -0.0929 -0.2789  0.0576
 8583W        W25431   0.562   2.536  12.408  0.0825 -0.0100 -0.2333
 8584W        W25432   9.905   1.071   2.345 -0.0785  0.0251 -0.0079
 8585W        W25433   0.376  12.612   3.487  0.0507 -0.1494 -0.1789
 8586W        W25434   8.986   1.500  15.187  0.0305  0.1789  0.0049
 8587W        W25435   7.891   0.383  15.098 -0.4412 -0.2444  0.0010
 8588W        W25436   8.448  11.669   3.153 -0.1231  0.0915  0.0241
 8589W        W25437   3.839   7.639  14.833  0.3577 -0.1496 -0.1974
 8590W        W25438   1.164  14.422   4.539 -0.1559 -0.1167  0.1096
 8591W        W25439   0.025   1.319   0.325  0.1958 -0.1232 -0.1675
 8592W        W25440  12.441   9.678  14.359 -0.0217 -0.3096  0.2151
 8593W        W25441  13.275  10.915  11.448  0.1423 -0.0310  0.1057
 8594W        W25442   9.917   8.804   0.772  0.1003 -0.1786 -0.2037
 8595W        W25443  13.881   2.954   1.034  0.0487  0.0536  0.1879
 8596W        W25444  10.760  15.135  15.643  0.0149  0.0527  0.0356
 8597W        W25445   0.432   2.780  14.129 -0.0090  0.0744 -0.0283
 8598W        W25446  13.360   3.988  16.368  0.1126 -0.0486 -0.2080
 8599W        W25447  10.357  10.453   5.945 -0.1510 -0.1083 -0.0324
 8600W        W25448   8.465  11.350   0.727 -0.0797 -0.1704  0.0182
 8601W        W25449  17.476   0.161   0.508 -0.0828  0.1173 -0.2821
 8602W        W25450  12.020   5.994  11.329 -0.1554  0.1005 -0.1571
 8603W        W25451   1.845  12.559   5.019 -0.3415 -0.3022  0.3599
 8604W        W25452   1.230   4.284   2.765  0.1854 -0.1016 -0.1756
 8605W        W25453   1.094  15.875   0.574 -0.3159 -0.0610  0.1572
 8606W        W25454   9.522   5.537  14.753 -0.1297  0.0286  0.0188
 8607W        W25455   8.936   6.425   4.965  0.1569  0.2357  0.2349
 8608W        W25456  14.502  11.282  12.602  0.0190 -0.2073 -0.4778
 8609W        W25457  10.754   6.069  15.148  0.1725  0.1707  0.2504
 8610W        W25458  13.713  12.080  16.089 -0.0073 -0.2241 -0.0740
 8611W        W25459  12.365   0.756   0.191  0.1429 -0.1820  0.1129
 8612W        W25460  10.911   8.282  14.689 -0.0298 -0.0186 -0.1826
 8613W        W25461   8.977  10.441  10.218 -0.1583 -0.2913 -0.1964
 8614W        W25462  11.068   0.485   1.015  0.2701  0.1296 -0.0391
 8615W        W25463   3.518   6.842   2.473  0.1503  0.1516  0.1951
 8616W        W25464  15.091   1.948  13.251 -0.0882 -0.4231  0.2451
 8617W        W25465   8.555   2.391  15.035  0.3726  0.0153  0.2954
 8618W        W25466  16.939   4.986   0.850 -0.0631  0.1098  0.3872
 8619W        W25467  13.985   2.446   5.399  0.0392 -0.1095  0.3697
 8620W        W25468  11.961   8.577   1.024 -0.1309  0.1155 -0.2503
 8621W        W25469   0.002  13.500  13.692 -0.1282  0.1508 -0.1850
 8622W        W25470  11.122   8.487   4.291 -0.0444 -0.3900 -0.1124
 8623W        W25471  15.365   4.203  16.174 -0.1595 -0.0704  0.2694
 8624W        W25472   3.047  15.816  14.871 -0.1831 -0.0962  0.2647
 8625W        W25473   5.255   5.330   3.476  0.1245  0.0186 -0.0052
 8626W        W25474   7.286   2.737   3.714  0.1164  0.2155  0.1507
 8627W        W25475   7.357   9.186   2.287  0.0392 -0.1533  0.3415
 8628W        W25476  11.973  11.192  11.267  0.1571 -0.2703  0.1699
 8629W        W25477  14.950   5.851   0.893  0.0081 -0.0260  0.2760
 8630W        W25478   8.632  16.400   5.522 -0.0718 -0.0225 -0.0527
 8631W        W25479   0.797   5.024  12.864  0.2249 -0.0563 -0.2443
 8632W        W25480  15.424  16.204   2.395 -0.2399  0.2492 -0.2647
 8633W        W25481  13.538   1.846   4.103  0.1119  0.3803  0.0861
 8634W        W25482   7.220  10.796   3.747  0.0967 -0.2041 -0.3797
 8635W        W25483  16.314   4.091   3.171  0.1277  0.1698  0.0808
 8636W        W25484  16.939   0.984  13.758  0.0082 -0.4394  0.0442
 8637W        W25485   1.869  14.707  13.093  0.0181 -0.0148 -0.1200
 8638W        W25486   9.365  11.956  15.930 -0.1220 -0.0294 -0.0611
 8639W        W25487  16.676   4.981  13.073 -0.0630  0.0087  0.2680
 8640W        W25488   6.718  17.492  16.408  0.5989 -0.3159 -0.1512
 8641W        W25489   4.924   9.980  15.908  0.1912 -0.0485 -0.0834
 8642W        W25490  16.437   7.327   3.062  0.0318  0.0343 -0.0409
 8643W        W25491  12.510   9.924   2.992 -0.0495 -0.1397 -0.1293
 8644W        W25492  16.235  13.997  13.370  0.4006  0.4926 -0.1188
 8645W        W25493  10.869   1.392  15.857 -0.2835 -0.0046 -0.1080
 8646W        W25494  14.334  13.306   4.758 -0.0005 -0.0209  0.1896
 8647W        W25495   2.861  17.546   1.286  0.0053 -0.0077  0.2473
 8648W        W25496  10.284   2.526  10.700 -0.1376 -0.0430 -0.1400
 8649W        W25497   7.233   3.524   5.064  0.0636  0.3005 -0.0646
 8650W        W25498  16.377  14.678  16.663  0.1414  0.1686 -0.1532
 8651W        W25499  15.244  15.196   1.692 -0.1089  0.0833  0.2928
 8652W        W25500   2.583  14.149   1.084  0.2046  0.1085 -0.2137
 8653W        W25501   6.170   9.140   4.232 -0.2808 -0.0986 -0.1211
 8654W        W25502  16.165   9.727  12.256  0.0230 -0.1339 -0.1482
 8655W        W25503  13.146  10.425   2.589  0.0741 -0.3095  0.0251
 8656W        W25504  13.859  14.995   3.806  0.1235 -0.0688 -0.0547
 8657W        W25505   9.167   0.323   4.444  0.0035 -0.1133 -0.2841
 8658W        W25506  10.126  11.055   3.863 -0.2039  0.0916  0.2179
 8659W        W25507   4.927   4.165  16.430 -0.0663  0.0734 -0.2058
 8660W        W25508  13.737   0.449  16.148  0.1370  0.0157 -0.1143
 8661W        W25509   3.118  10.184  15.868  0.2319  0.0460 -0.0466
 8662W        W25510   4.510   2.724  11.709 -0.1667 -0.1752 -0.0065
 8663W        W25511  15.916   8.315   5.611 -0.1723  0.3028 -0.0430
 8664W        W25512   5.748  11.116   3.270 -0.1393 -0.1021  0.1672
 8665W        W25513  15.845  16.534  12.152  0.1753  0.1823  0.3667
 8666W        W25514   4.994   6.322   4.463 -0.1276 -0.1826  0.3206
 8667W        W25515  11.753   8.308  11.735 -0.2894 -0.1400 -0.0763
 8668W        W25516   8.708   6.360  12.668  0.0766 -0.2953 -0.2731
 8669W        W25517  16.074  16.287   4.407 -0.0111  0.1517  0.3238
 8670W        W25518  15.493  13.898   5.717  0.0754 -0.1573 -0.0313
 8671W        W25519   4.599   0.127  11.715  0.1916 -0.1306 -0.1350
 8672W        W25520   7.777  10.995   4.826  0.0842 -0.0436  0.1446
 8673W        W25521  17.081  14.210  11.215 -0.1535  0.2231  0.3059
 8674W        W25522  13.682   4.144   0.027  0.1989 -0.0716 -0.0140
 8675W        W25523   8.587  13.618  14.895 -0.1667  0.1320  0.0861
 8676W        W25524   4.441   8.532   4.412  0.2122 -0.0205  0.0899
 8677W        W25525   5.954   7.137  15.727  0.0602 -0.3098  0.1773
 8678W        W25526   5.064  11.608   2.411  0.0460 -0.1977 -0.0324
 8679W        W25527  16.538   5.753  11.699 -0.1179 -0.3642  0.0657
 8680W        W25528   0.495   1.169  16.541  0.0977 -0.1194  0.2263
 8681W        W25529  15.191   4.926  13.612 -0.3473  0.0352 -0.0752
 8682W        W25530  16.984   7.941  12.286  0.1208  0.1878  0.2060
 8683W        W25531  17.328   4.288   2.622 -0.2921 -0.2126  0.1759
 8684W        W25532   6.120  11.693   0.552  0.1334 -0.1970  0.2156
 8685W        W25533   3.096   0.144  16.400 -0.0027 -0.0667  0.4053
 8686W        W25534   3.893   9.612   0.137  0.0157 -0.0203 -0.1101
 8687W        W25535  17.265  13.296  14.031  0.1137 -0.2268 -0.0944
 8688W        W25536  12.655  16.110   3.407  0.1164  0.0963  0.2128
 8689W        W25537   6.257   0.303  12.997  0.2629  0.1049  0.2954
 8690W        W25538   2.748   2.128  13.866 -0.2302  0.2706  0.1256
 8691W        W25539   9.502   9.920   3.959  0.1396 -0.3157 -0.1453
 8692W        W25540  14.837  15.076  14.066 -0.0391 -0.0681  0.4755
 8693W        W25541  17.329  11.333   1.776  0.1906 -0.0479  0.1374
 8694W        W25542   1.215  11.918   6.121  0.2398 -0.1203 -0.1595
 8695W        W25543   0.248   8.429   0.004 -0.0858  0.2478 -0.2995
 8696W        W25544  12.012   0.822  13.486 -0.0740 -0.2120  0.1209
 8697W        W25545   6.882   8.482   0.909 -0.2082 -0.2264 -0.0110
 8698W        W25546   8.982   9.217   2.856  0.1953  0.0195 -0.1517
 8699W        W25547   5.361   3.960   2.450  0.3557 -0.1134  0.0361
 8700W        W25548   8.095   1.273   3.573  0.0800 -0.1001  0.0416
 8701W        W25549   6.643   5.755   1.339  0.1043  0.1286 -0.0372
 8702W        W25550   0.779  14.297   2.043  0.3416  0.2460 -0.0055
 8703W        W25551   5.686  12.164  15.697 -0.0945  0.1525  0.0992
 8704W        W25552  12.977  17.397  14.902 -0.3047 -0.0363 -0.1268
 8705W        W25553   9.404  13.700  16.578  0.1944  0.0731  0.6449
 8706W        W25554   3.148   8.258  11.849  0.1889 -0.0799  0.1942
 8707W        W25555  17.461  11.193  12.248  0.1744 -0.0731 -0.1506
 8708W        W25556  11.233   1.726  15.657  0.1148  0.0708 -0.0740
 8709W        W25557   5.773  17.611  14.186 -0.0768  0.0826  0.2769
 8710W        W25558   0.027   5.141  13.197  0.0728  0.3036 -0.1252
 8711W        W25559  14.921   5.276   4.413  0.1780  0.0351 -0.0189
 8712W        W25560   6.373  11.293  15.077 -0.0816 -0.2149 -0.0434
 8713W        W25561   3.381  13.649  14.561 -0.0883 -0.2146  0.2661
 8714W        W25562   3.882   8.650   2.636  0.3139  0.0678 -0.0935
 8715W        W25563  10.878  12.182  13.818  0.3413  0.1121 -0.1168
 8716W        W25564  16.539   6.611   3.690  0.3480  0.1809  0.3403
 8717W        W25565  15.833   4.006  12.530 -0.2240  0.0768 -0.0214
 8718W        W25566   6.117   6.969  13.633 -0.0025  0.0481  0.1099
 8719W        W25567  12.130   8.298   4.170 -0.1983  0.0755  0.1509
 8720W        W25568   9.862   7.057   3.408 -0.0960  0.1201 -0.0704
 8721W        W25569   7.613  17.477  11.016  0.0116 -0.0322  0.2210
 8722W        W25570   6.803   8.059  15.142  0.0573 -0.0012 -0.1352
 8723W        W25571   5.081   3.074  15.123 -0.1584  0.3046  0.0010
 8724W        W25572  14.726  14.252   0.915 -0.2169  0.1334 -0.1149
 8725W        W25573   5.757   1.234   5.109 -0.0757  0.0729  0.0492
 8726W        W25574   0.414  15.500  11.765  0.0037 -0.0513  0.0838
 8727W        W25575   2.881   6.146   0.257 -0.2119 -0.2097 -0.1255
 8728W        W25576  16.629  14.017   2.023  0.0402 -0.2468 -0.0489
 8729W        W25577   3.528   8.452  13.225  0.2169 -0.0559 -0.1109
 8730W        W25578  17.567  11.978  11.134 -0.1076 -0.0749 -0.0862
 8731W        W25579   7.998  14.305  13.682  0.2967  0.1473 -0.0789
 8732W        W25580   9.477   7.956   3.523 -0.0017 -0.2162  0.1750
 8733W        W25581   1.374  14.062   1.313 -0.0409  0.0421  0.3431
 8734W        W25582   7.315   4.022   1.135 -0.0315  0.1196 -0.0541
 8735W        W25583  13.300   7.610   3.239  0.3772  0.1556 -0.0969
 8736W        W25584  12.906  15.219  15.048  0.1579 -0.1969  0.1092
 8737W        W25585   1.953   2.455  12.336  0.1625  0.1548 -0.0503
 8738W        W25586  10.219   7.778  13.104  0.1314 -0.3136  0.3363
 8739W        W25587  16.255  10.249   3.932 -0.0486  0.3282  0.1414
 8740W        W25588   1.907   5.564   0.965  0.0669 -0.1730  0.1297
 8741W        W25589   4.932  10.867   2.691  0.0729  0.3201 -0.0054
 8742W        W25590  11.261  16.593  14.469 -0.1973 -0.1473 -0.1109
 8743W        W25591   8.311  13.280   3.826 -0.0678  0.0174 -0.0027
 8744W        W25592  11.437   7.647   6.376  0.0627  0.0255 -0.0525
 8745W        W25593  17.136  16.935   0.448 -0.2522  0.1443  0.3985
 8746W        W25594   4.519   4.421  12.729  0.2146 -0.1280  0.2899
 8747W        W25595   4.364   9.383  10.823 -0.2781 -0.0687  0.1114
 8748W        W25596   8.717   6.845   5.164 -0.1513  0.0577 -0.2073
 8749W        W25597  14.393   9.773  13.096 -0.2637  0.0942 -0.4598
 8750W        W25598   9.395   5.309  13.651 -0.1429 -0.0984 -0.0631
 8751W        W25599   5.428   3.847  14.796 -0.1044 -0.0293  0.1583
 8752W        W25600   1.900   8.182  12.633  0.2850 -0.3960  0.1262
 8753W        W25601   3.162   7.066  13.355  0.0953  0.2169 -0.1047
 8754W        W25602  12.572  11.626  14.386  0.1053 -0.1833 -0.0512
 8755W        W25603   2.051  16.412  14.841  0.1149  0.0792  0.0218
 8756W        W25604   7.856   4.956  12.546  0.1646 -0.1064 -0.1294
 8757W        W25605   7.463  11.092  13.068  0.1836 -0.2419  0.1028
 8758W        W25606  14.033   1.446   0.274  0.4234  0.1025 -0.3568
 8759W        W25607   7.168  12.951   4.371 -0.0889  0.0980  0.2745
 8760W        W25608  12.251   1.337   3.686  0.0082 -0.0496 -0.0830
 8761W        W25609   0.238   4.008   0.822 -0.1189  0.1923 -0.0806
 8762W        W25610  11.149   4.405   2.452 -0.0945  0.1344 -0.0980
 8763W        W25611   8.500   1.231   4.521  0.0356 -0.1290  0.1604
 8764W        W25612   7.407  14.570  14.913  0.1302 -0.1326 -0.0043
 8765W        W25613   9.956   1.543   1.163 -0.0356 -0.1253 -0.1561
 8766W        W25614  16.215   5.414  15.758  0.0316 -0.0223  0.1508
 8767W        W25615   2.232   0.953   3.064  0.0484 -0.3365 -0.1521
 8768W        W25616   9.162   3.925   5.753 -0.1877 -0.2470  0.2881
 8769W        W25617  10.701  14.648  15.983 -0.2302  0.0533 -0.0697
 8770W        W25618   2.675   0.506  14.549  0.0263  0.1440 -0.2906
 8771W        W25619   7.509   7.179  14.317 -0.2140  0.1312 -0.2137
 8772W        W25620  14.573  14.347  11.148 -0.1270 -0.1826 -0.2721
 8773W        W25621  15.830  13.554   0.285 -0.1245  0.1090  0.3246
 8774W        W25622   3.259  16.630  14.500 -0.0195  0.0471  0.0458
 8775W        W25623   3.285   0.281   3.670 -0.0182  0.1879 -0.1158
 8776W        W25624  10.808   2.062  16.549 -0.1311  0.2182 -0.3291
 8777W        W25625  11.173   0.607   3.511 -0.0362 -0.2414 -0.1430
 8778W        W25626   2.472   2.881   4.817  0.0728 -0.2241 -0.0371
 8779W        W25627   9.706  14.151   1.305  0.1846  0.0910  0.1316
 8780W        W25628   7.677   0.636  11.366 -0.1254 -0.0804 -0.1347
 8781W        W25629   4.519  15.740   1.249 -0.2784 -0.0523 -0.0635
 8782W        W25630   0.501  13.567   0.164  0.0903  0.1635  0.1598
 8783W        W25631   1.774  17.274   3.759  0.2949 -0.0343  0.2883
 8784W        W25632   6.546  14.152  13.214  0.3661 -0.1799  0.0985
 8785W        W25633   6.240   0.949   3.483  0.0700 -0.0245  0.2385
 8786W        W25634   8.854   3.098  10.601  0.2455  0.0118  0.4376
 8787W        W25635  13.063   5.435  11.692  0.3012  0.1699  0.0226
 8788W        W25636  12.942   1.889   3.303  0.1209  0.0100 -0.0001
 8789W        W25637  10.872   6.076  16.535 -0.0465  0.1136 -0.0951
 8790W        W25638  13.561  10.232  16.215  0.2860  0.2424  0.1623
 8791W        W25639  13.008   5.176  16.139 -0.1323 -0.0241 -0.0674
 8792W        W25640   9.117   1.012   1.953  0.0469 -0.0510  0.0903
 8793W        W25641   6.734   6.340   0.591 -0.1514  0.0885  0.0191
 8794W        W25642  14.480   3.102  13.840 -0.0201  0.0107 -0.1301
 8795W        W25643   3.543   2.684   3.428 -0.3434 -0.0841 -0.0753
 8796W        W25644  11.642  11.248   4.981  0.1208  0.2003 -0.0246
 8797W        W25645  13.930  13.845   3.487 -0.0986  0.1369 -0.2925
 8798W        W25646  10.999   9.142   2.737  0.2445  0.1800 -0.2012
 8799W        W25647  11.671   5.684  10.904 -0.1210 -0.0690  0.2046
 8800W        W25648   8.519   2.121   2.083  0.3991 -0.2270  0.2152
 8801W        W25649   8.290   8.733  12.513  0.0153 -0.2319 -0.0275
 8802W        W25650  15.408  12.415   1.401 -0.0157  0.1040 -0.0671
 8803W        W25651  13.669  10.510   3.153  0.2732 -0.0648  0.0687
 8804W        W25652   0.225  14.383  12.374 -0.1908 -0.1937 -0.0656
 8805W        W25653  14.247   5.568  15.638 -0.0490 -0.2799  0.0781
 8806W        W25654   4.586   2.488   5.257  0.0091 -0.0710 -0.3754
 8807W        W25655   9.261   6.628   0.382 -0.1310 -0.3228  0.0184
 8808W        W25656  12.557   1.911   1.463 -0.1228  0.1535 -0.1335
 8809W        W25657   7.348  16.170   4.260 -0.2149  0.0962  0.0934
 8810W        W25658  12.017  10.218   5.192  0.1399 -0.1051  0.1512
 8811W        W25659   6.448   3.886   1.376 -0.0350 -0.3420 -0.2549
 8812W        W25660  15.169   9.025  14.465 -0.1754  0.0340  0.2074
 8813W        W25661  13.171  16.669   2.493  0.3252  0.1721  0.3991
 8814W        W25662   5.777   7.905  11.520  0.1594 -0.1859  0.1925
 8815W        W25663   0.828   4.207   0.428  0.0320 -0.1369  0.0897
 8816W        W25664   1.638   8.857   1.256  0.0525 -0.0136  0.0960
 8817W        W25665   7.533  16.969  14.433 -0.0213  0.3645 -0.2440
 8818W        W25666  13.018   8.514  15.461 -0.2212  0.0595 -0.3132
 8819W        W25667   2.891   5.543   2.463 -0.1505 -0.0430  0.0819
 8820W        W25668   0.846  10.662   2.382 -0.2650  0.1186 -0.2576
 8821W        W25669  16.897   0.089  16.650 -0.1437  0.1815 -0.1310
 8822W        W25670  14.492   5.420  13.976 -0.0116  0.2218  0.2437
 8823W        W25671   3.170  12.257  15.952  0.0304 -0.1574  0.4542
 8824W        W25672   5.464  12.792  14.803 -0.0751  0.0166  0.0351
 8825W        W25673  12.416   5.731  15.617 -0.2682  0.0941 -0.4968
 8826W        W25674   1.453   3.820  14.795  0.0827  0.1997  0.3184
 8827W        W25675  13.255  11.971   6.022  0.0063 -0.0373 -0.3325
 8828W        W25676  13.115   4.399  13.469  0.1092  0.0873  0.1398
 8829W        W25677   9.828   0.633  13.187 -0.0080  0.0970 -0.2209
 8830W        W25678  17.381  17.641   4.466  0.0202 -0.0081  0.2127
 8831W        W25679  10.154  13.583  12.460 -0.0326  0.1818 -0.0306
 8832W        W25680   3.703   1.218  16.094 -0.1011 -0.1426 -0.0246
 8833W        W25681   3.369  13.152   3.568  0.0109 -0.3525  0.1418
 8834W        W25682  16.340  14.345  11.993  0.1515  0.1223 -0.0693
 8835W        W25683   3.061  13.359   3.870 -0.1166  0.0410 -0.0247
 8836W        W25684   1.272   4.048   1.741  0.1459  0.2752  0.0926
 8837W        W25685   4.159  10.553  11.421 -0.1094 -0.1182  0.0130
 8838W        W25686   0.617   2.986  10.850 -0.0429 -0.0668 -0.1143
 8839W        W25687   0.649   2.962  16.503 -0.0008 -0.0059 -0.3197
 8840W        W25688  15.242   6.897   3.498  0.3458 -0.0764 -0.4720
 8841W        W25689   5.998  12.571   4.839  0.1044  0.1028 -0.2817
 8842W        W25690   6.983  14.674   4.421  0.0228 -0.3821  0.2140
 8843W        W25691  10.185   3.124  14.392  0.2405  0.0872 -0.0233
 8844W        W25692  16.418  11.727  15.031 -0.0612 -0.2910 -0.0146
 8845W        W25693  12.368   1.854  13.937  0.0359 -0.1133 -0.0047
 8846W        W25694  13.886   0.135  15.354 -0.0363  0.1171  0.0726
 8847W        W25695  10.321  17.624  15.447 -0.0939  0.0382 -0.0970
 8848W        W25696  12.468  10.115   4.863  0.2678 -0.0645  0.0093
 8849W        W25697   7.693   9.631  14.100 -0.0605 -0.0956 -0.0729
 8850W        W25698  11.538   2.258  15.469 -0.0075 -0.1205 -0.0073
 8851W        W25699   2.722   5.224   0.072  0.0615 -0.0507 -0.0478
 8852W        W25700  16.913   7.234   3.262 -0.0569 -0.0276 -0.0570
 8853W        W25701   1.939   5.914  12.118 -0.1310 -0.0421  0.0309
 8854W        W25702  10.766   5.706  16.163 -0.2113 -0.2598  0.0491
 8855W        W25703   5.341   6.493   0.053 -0.0094  0.0176 -0.1720
 8856W        W25704  13.255   2.843   4.071 -0.0424 -0.0405 -0.0396
 8857W        W25705   1.964  14.820  16.188  0.2540 -0.2098 -0.1291
 8858W        W25706  12.572   6.917   3.697 -0.0348 -0.1671  0.2726
 8859W        W25707  15.799   4.095   3.263  0.0780 -0.0787 -0.1068
 8860W        W25708   0.937  11.149  11.731  0.2573 -0.0067 -0.0646
 8861W        W25709   9.175  11.657   4.222  0.0112 -0.1096 -0.1368
 8862W        W25710  13.141   1.838   1.089 -0.0497 -0.0218 -0.1427
 8863W        W25711  13.337   3.271   1.787  0.0715  0.1823 -0.0922
 8864W        W25712   2.588   3.914  16.474  0.2695 -0.0434 -0.0763
 8865W        W25713   3.343  12.236  11.667 -0.0634  0.1595  0.0532
 8866W        W25714  10.055  11.739  10.386  0.0540  0.0599 -0.0785
 8867W        W25715   4.012   6.780   6.011  0.0435  0.1541 -0.1238
 8868W        W25716  12.192   1.398  14.684 -0.0542 -0.0171  0.0263
 8869W        W25717   8.227   1.566   0.985  0.0048  0.1306 -0.2645
 8870W        W25718  11.318  16.734   2.517  0.1529  0.1424 -0.0872
 8871W        W25719   1.160  11.278  15.194 -0.1314 -0.1129 -0.1916
 8872W        W25720  10.631   4.105  14.678  0.5866 -0.3421  0.1625
 8873W        W25721   6.064  15.770   0.241 -0.1010  0.1429  0.4061
 8874W        W25722  12.365  11.854   0.445  0.2534 -0.0113 -0.0962
 8875W        W25723   8.409  13.878   4.463  0.2161 -0.1350  0.1249
 8876W        W25724   3.775   8.892  13.509 -0.1923  0.2618  0.2265
 8877W        W25725   3.803  16.456   0.075 -0.1581  0.0203 -0.1470
 8878W        W25726  11.982   1.431  12.755 -0.0881 -0.1288  0.1945
 8879W        W25727  10.692  15.219   3.341  0.1826  0.3580  0.1620
 8880W        W25728   2.226  11.337  14.002  0.0417  0.1167  0.0355
 8881W        W25729   9.574   8.240   1.319  0.1353  0.0151  0.1317
 8882W        W25730   0.158  13.622  15.377  0.0184  0.1426  0.3634
 8883W        W25731   7.434   3.298  13.633  0.0400  0.1994  0.1793
 8884W        W25732  16.152   1.448  15.318 -0.0556  0.4001  0.1831
 8885W        W25733   1.222   4.266   5.146 -0.4739 -0.3693 -0.3773
 8886W        W25734   2.683  13.615   4.757  0.2978 -0.2169 -0.3482
 8887W        W25735  17.312   8.953  13.624  0.2047  0.2049  0.0141
 8888W        W25736  15.042   8.964  12.600 -0.3557  0.1092 -0.1158
 8889W        W25737   5.214  14.300   0.239  0.0681  0.2716 -0.0975
 8890W        W25738  13.923   2.939  15.121 -0.0922 -0.2313  0.1165
 8891W        W25739  10.280   2.073  10.778 -0.2003 -0.1818 -0.0585
 8892W        W25740  10.206   4.337   2.899  0.0008 -0.0921 -0.2065
 8893W        W25741   9.877   9.194   1.119 -0.2723 -0.1454  0.1618
 8894W        W25742   6.465  14.078   2.163  0.1406 -0.0638  0.1780
 8895W        W25743   1.605   4.966   1.640  0.2373 -0.0500 -0.1336
 8896W        W25744  17.407   5.659  11.566  0.0547 -0.2081  0.1225
 8897W        W25745  15.846   2.727  14.181 -0.1146  0.1124  0.0591
 8898W        W25746   7.632  11.379   1.367  0.0524  0.1377  0.0516
 8899W        W25747  14.581   4.049   0.523 -0.1345  0.0328  0.0652
 8900W        W25748  11.490   1.548   2.250  0.2456 -0.1859 -0.0250
 8901W        W25749  10.529  16.904  14.290  0.1989  0.0083 -0.1405
 8902W        W25750   6.423   5.457   0.472  0.3077 -0.2933 -0.1168
 8903W        W25751   1.717  16.850   4.068 -0.2914  0.0198 -0.2367
 8904W        W25752  16.530  12.245  14.128  0.2053  0.1837 -0.1980
 8905W        W25753   1.337   1.525  10.687 -0.2359 -0.1258  0.5244
 8906W        W25754   3.919   3.393   0.780 -0.4396 -0.1262  0.0678
 8907W        W25755  12.972   6.642  12.273  0.0728 -0.2537 -0.2038
 8908W        W25756  15.006   7.982  12.503 -0.0286  0.1877 -0.0862
 8909W        W25757   4.569  11.838   0.488  0.0271  0.2030 -0.0400
 8910W        W25758  11.996   0.530  14.924  0.1935  0.0508  0.0237
 8911W        W25759  16.897  16.867   2.686 -0.0481  0.1342 -0.2387
 8912W        W25760  17.007  16.123  14.316 -0.0714 -0.1218  0.0186
 8913W        W25761  11.327   4.059  12.151  0.0168  0.2312 -0.0943
 8914W        W25762   9.799  17.542  12.728 -0.1278 -0.3277  0.1689
 8915W        W25763   2.168  12.161   3.692  0.1826  0.2087 -0.5725
 8916W        W25764   5.868   7.830  11.033  0.1025  0.1209 -0.1386
 8917W        W25765  15.011   9.409  11.240 -0.0482 -0.0966  0.0298
 8918W        W25766   7.851  17.368   1.366 -0.0581 -0.0956  0.0023
 8919W        W25767   4.597   5.489   4.279 -0.1871 -0.3183  0.0462
 8920W        W25768   8.833  13.389  14.218 -0.0639  0.0755 -0.1629
 8921W        W25769   7.213   6.344  10.531  0.0753 -0.1278 -0.0318
 8922W        W25770   3.691   8.762  15.016 -0.0462  0.2751 -0.0630
 8923W        W25771   3.840   3.447  14.670 -0.2283  0.1966 -0.1280
 8924W        W25772  17.680  14.766   3.107  0.1822 -0.0625  0.1603
 8925W        W25773  16.552   9.624  15.964 -0.1785 -0.3825  0.0200
 8926W        W25774   3.072  17.662  13.109 -0.2495 -0.1768  0.4332
 8927W        W25775  11.061  15.287   5.345  0.0780 -0.1034 -0.0570
 8928W        W25776  13.960   2.781  11.781  0.1811 -0.1825  0.1656
 8929W        W25777   3.979   0.364   2.432 -0.0553  0.0598  0.1612
 8930W        W25778  16.859   6.384   3.185  0.0657 -0.1058 -0.3363
 8931W        W25779  12.080   3.655  12.556 -0.1170 -0.1284  0.0352
 8932W        W25780  10.297  11.800  15.083  0.2869 -0.0205 -0.1758
 8933W        W25781  15.747   8.203   4.164 -0.2713  0.0920 -0.1352
 8934W        W25782  16.562   6.022  13.236 -0.0005  0.0661  0.0038
 8935W        W25783   8.412   0.345   1.765  0.0195  0.0085  0.0526
 8936W        W25784  13.199   1.676   4.412  0.4056 -0.1400 -0.1238
 8937W        W25785   7.152  13.293  11.627 -0.0543  0.1416 -0.1569
 8938W        W25786   2.015  14.659   4.948 -0.0581  0.1216  0.0515
 8939W        W25787   5.223   1.837  15.744 -0.2286  0.0669 -0.2505
 8940W        W25788  13.073   1.031  15.655  0.0694 -0.0265 -0.2510
 8941W        W25789   7.455  10.838   2.417  0.3013 -0.2073  0.1361
 8942W        W25790  17.626  13.010   4.752 -0.2803 -0.1000 -0.3630
 8943W        W25791   0.992  16.884  11.505 -0.4346  0.2834 -0.0977
 8944W        W25792   0.378  17.061   2.542 -0.1809 -0.1741  0.0060
 8945W        W25793   6.224   6.809  11.856  0.0795 -0.0999  0.2049
 8946W        W25794   2.204   6.804   1.875  0.0031  0.0375  0.2798
 8947W        W25795   9.821   2.014  14.122 -0.1798 -0.0012  0.3565
 8948W        W25796  15.405  17.303   3.274  0.4391 -0.1208  0.1371
 8949W        W25797   9.320   7.429   4.914  0.1012  0.1707 -0.0909
 8950W        W25798   5.942   3.082  12.588 -0.4691 -0.1638  0.0047
 8951W        W25799  12.312  15.702   4.964 -0.1747 -0.0162 -0.0072
 8952W        W25800   1.912  17.169  16.252 -0.0252 -0.2089  0.0947
 8953W        W25801  11.215   2.809   3.264 -0.0259 -0.1638  0.0547
 8954W        W25802   1.001   0.226   4.593  0.1544  0.2976  0.2480
 8955W        W25803  11.546  16.149  15.816  0.5324  0.2701  0.0510
 8956W        W25804   2.680   7.748  15.450 -0.0113  0.0948 -0.1134
 8957W        W25805   5.284   9.039  11.230  0.1178  0.0215 -0.0512
 8958W        W25806   9.242  16.242  13.229  0.1188 -0.4367 -0.3129
 8959W        W25807   1.642   6.755   0.312 -0.1264  0.0482  0.2020
 8960W        W25808   2.997  16.669  15.308  0.1592 -0.4389  0.1981
 8961W        W25809  11.250   5.097  13.680 -0.1379  0.1010  0.4405
 8962W        W25810  16.273  16.288  13.268 -0.0369  0.4956 -0.1794
 8963W        W25811  16.010  12.984   1.514 -0.1338 -0.1077  0.1451
 8964W        W25812   8.792   0.867  12.528 -0.0429  0.0702 -0.0093
 8965W        W25813   1.034   7.742   3.569 -0.3403 -0.1541 -0.3100
 8966W        W25814   8.491   6.542   3.655  0.0001  0.2662  0.2672
 8967W        W25815   4.619   0.915   4.709 -0.0612  0.2778  0.1674
 8968W        W25816  10.444   4.854   2.402 -0.2552 -0.3709  0.2697
 8969W        W25817  17.571   7.260  12.528 -0.2398  0.1968  0.1627
 8970W        W25818  15.540   9.108   3.664  0.1679  0.0149 -0.1647
 8971W        W25819   7.909   4.452  15.732 -0.0562  0.1710 -0.3487
 8972W        W25820  15.930  15.836   2.385  0.0553  0.0130  0.0574
 8973W        W25821   2.462  15.665  16.211  0.0360 -0.2162  0.0979
 8974W        W25822  14.725   4.615   0.910  0.1680 -0.1398  0.0024
 8975W        W25823   9.925   6.938   2.724 -0.1433 -0.0177 -0.3577
 8976W        W25824   5.635   7.851  13.214 -0.3612  0.1578  0.0176
 8977W        W25825   5.152  15.883  11.627  0.2258 -0.0705  0.0723
 8978W        W25826   2.360  12.339  13.661 -0.1445  0.0367  0.0821
 8979W        W25827  13.435  15.352   3.756 -0.2525  0.0459 -0.2090
 8980W        W25828  17.081  12.216   3.803  0.1654  0.3310 -0.3132
 8981W        W25829   7.926   0.837   1.140  0.1106  0.1157 -0.0724
 8982W        W25830   2.517  11.194   5.374  0.1889 -0.0041 -0.1443
 8983W        W25831   8.146   0.171  12.590  0.1002  0.0875  0.0407
 8984W        W25832  16.900   7.836  14.634 -0.1104  0.1506  0.1283
 8985W        W25833   5.556   5.241  16.485  0.3279 -0.1128 -0.2401
 8986W        W25834   2.476  17.198   1.251  0.0450 -0.0038  0.1383
 8987W        W25835   0.349   2.246  14.307  0.0826  0.0578  0.1382
 8988W        W25836   5.338  13.363   5.103 -0.0684 -0.0463 -0.2371
 8989W        W25837  12.255   7.842  14.845 -0.1822  0.1559  0.1570
 8990W        W25838  11.267   0.672  12.451  0.0135  0.2891 -0.0899
 8991W        W25839  16.345   5.122  15.326  0.4046 -0.0493  0.0585
 8992W        W25840  13.090   6.717  13.633 -0.2957  0.1237 -0.1601
 8993W        W25841   6.306   2.791  15.002 -0.0036  0.0764  0.0133
 8994W        W25842   0.361   6.290  16.650 -0.2060  0.1939 -0.3332
 8995W        W25843   3.061  14.630  14.323  0.1415  0.4014 -0.1332
 8996W        W25844  10.388   7.244  16.113 -0.1668  0.1046 -0.0444
 8997W        W25845  13.471  12.018   0.509  0.0283  0.2137 -0.0177
 8998W        W25846   3.185   4.568   5.465  0.1406  0.0932 -0.0389
 8999W        W25847   0.337   0.428  15.053  0.1679  0.2196  0.2577
 9000W        W25848   1.395   8.314   3.929  0.0129 -0.1881  0.0871
 9001W        W25849  13.158   5.838   4.511 -0.0599  0.1635  0.2018
 9002W        W25850   0.569  17.551   5.703  0.2107  0.0186 -0.0341
 9003W        W25851  17.483  17.378   0.670  0.2675  0.3189 -0.0236
 9004W        W25852   3.744   6.554   0.415 -0.2987  0.1056 -0.1724
 9005W        W25853  13.465  15.831   2.125  0.3501 -0.0552  0.0652
 9006W        W25854   9.065   4.592   1.337  0.2903 -0.0767 -0.2833
 9007W        W25855  11.665   6.037  12.458  0.0130 -0.2140  0.1423
 9008W        W25856  14.647   0.502  13.372  0.0154 -0.0986 -0.0144
 9009W        W25857  11.457  12.879   1.909 -0.1418  0.1489  0.0634
 9010W        W25858  13.807   8.153   1.196  0.0086 -0.0170  0.0577
 9011W        W25859   6.025   3.786   1.060  0.0721 -0.0933  0.2298
 9012W        W25860   8.873   6.977  11.907  0.3500  0.0474  0.0831
 9013W        W25861   5.935   8.393   2.937 -0.1042 -0.2273 -0.2826
 9014W        W25862  13.114   3.197  14.318  0.2181  0.1703 -0.0002
 9015W        W25863   0.506  17.113   1.709 -0.0937  0.0704 -0.1463
 9016W        W25864   1.655   4.348   1.463  0.0528  0.0089  0.1306
 9017W        W25865   8.799  15.964  14.406 -0.1171  0.0011 -0.0396
 9018W        W25866   4.998  11.125   1.253 -0.0397 -0.1599 -0.0839
 9019W        W25867   6.501  16.569  11.107  0.1128 -0.0569 -0.1430
 9020W        W25868  11.915   5.308   1.165 -0.1850  0.1862  0.0365
 9021W        W25869  14.949  17.338  13.848  0.0206  0.0090  0.2018
 9022W        W25870  11.414  14.105  11.770 -0.2230  0.0420  0.1100
 9023W        W25871  17.300   4.404   1.610  0.3330  0.0462  0.0867
 9024W        W25872   8.316  17.019  12.596 -0.0035 -0.0194  0.1283
 9025W        W25873  10.141  11.206   6.324 -0.1069  0.0180  0.1015
 9026W        W25874   4.278  17.399  15.302  0.0648 -0.2082 -0.0714
 9027W        W25875   3.453  10.286   2.926 -0.2332  0.0230  0.0510
 9028W        W25876   0.916   7.256   5.536 -0.0437 -0.0392  0.2526
 9029W        W25877  15.792   5.755   2.770 -0.1185 -0.0815  0.0687
 9030W        W25878   6.850   6.155   1.530  0.1932 -0.0888  0.1366
 9031W        W25879   0.565  17.245   4.142 -0.0591  0.0836  0.0377
 9032W        W25880  13.440   7.696  13.153  0.0418 -0.1108  0.0064
 9033W        W25881   1.526   9.404  12.222  0.0195 -0.0325  0.0218
 9034W        W25882   4.821   0.255   4.350  0.0592 -0.0347  0.0103
 9035W        W25883  16.249  13.647   0.577 -0.2503  0.1321 -0.1142
 9036W        W25884   9.946  12.174  11.108 -0.1909  0.0836  0.1270
 9037W        W25885   8.049   0.008   4.556  0.2736  0.0407 -0.0925
 9038W        W25886   2.156   3.123   3.446 -0.0097 -0.1499  0.4029
 9039W        W25887   8.883  13.630   4.516  0.0019 -0.0800  0.1712
 9040W        W25888  17.461  13.414   2.893 -0.0960 -0.0637 -0.0484
 9041W        W25889  13.660  13.599  12.482  0.1186 -0.3915 -0.2862
 9042W        W25890   4.835  12.954  13.396  0.1385 -0.2122 -0.0724
 9043W        W25891  15.491   1.117  13.341  0.1094 -0.1784 -0.0500
 9044W        W25892   4.161   0.750  12.319  0.1655  0.1615 -0.2267
 9045W        W25893   4.646   0.688  16.223 -0.3577  0.0151 -0.0085
 9046W        W25894  12.764  16.976  14.734 -0.1092  0.4567  0.0093
 9047W        W25895   0.556   6.198   3.207  0.1610  0.1642 -0.0791
 9048W        W25896   0.274   6.097   1.315  0.1656 -0.2061  0.0913
 9049W        W25897   9.434   1.840   1.873 -0.0078 -0.0841 -0.0648
 9050W        W25898   2.535  10.456  16.261 -0.2054 -0.2478  0.0626
 9051W        W25899   1.693  15.157   0.736 -0.0935  0.0859 -0.0393
 9052W        W25900   0.742   0.972  12.627  0.1291  0.1165 -0.3486
 9053W        W25901   6.011  17.121  15.154  0.0289  0.0196 -0.0954
 9054W        W25902   2.989  14.633  13.017  0.1308 -0.1989 -0.1007
 9055W        W25903  10.864   5.960   5.283 -0.0654 -0.1641 -0.2632
 9056W        W25904   4.121   0.191  13.988 -0.0929 -0.0375  0.0595
 9057W        W25905   2.710   7.344  11.858  0.0016 -0.1269 -0.0746
 9058W        W25906  17.174  10.863   3.565  0.0400 -0.0699  0.0699
 9059W        W25907   5.918   2.830  13.437 -0.1410  0.0392  0.2508
 9060W        W25908   8.784  11.114  11.564 -0.1370  0.2379 -0.1075
 9061W        W25909   4.256  14.003  15.604  0.2649 -0.1134 -0.2679
 9062W        W25910  12.770   0.310   0.111 -0.1492 -0.4398  0.0617
 9063W        W25911  10.360   5.147  14.726 -0.3499 -0.1194  0.2768
 9064W        W25912   5.055   1.224  14.058 -0.0178 -0.0505 -0.2184
 9065W        W25913   8.020   6.483  12.096  0.1152  0.1098 -0.2396
 9066W        W25914  10.320  14.020  15.076 -0.0230 -0.0530  0.0020
 9067W        W25915  17.406   0.184   5.826 -0.1224  0.3670 -0.1142
 9068W        W25916   0.893   2.872  12.149  0.2200 -0.0614  0.2688
 9069W        W25917   8.724   6.361  13.909 -0.2027 -0.1614 -0.0746
 9070W        W25918  16.791   1.242   3.173 -0.2763  0.0383 -0.4543
 9071W        W25919  11.248   7.803   4.792  0.1297  0.3065  0.0360
 9072W        W25920  12.710   1.002   2.231 -0.4623 -0.3123 -0.1498
 9073W        W25921  12.281   7.155  10.283  0.0771  0.1534  0.0987
 9074W        W25922  13.323  14.629   1.290 -0.1882  0.0600  0.0231
 9075W        W25923   5.714   2.683   0.282  0.0226  0.1181  0.1607
 9076W        W25924  14.716  13.462  16.373  0.1046 -0.0069  0.1222
 9077W        W25925  14.594   9.123   3.880 -0.1543  0.0532  0.0938
 9078W        W25926   8.826  14.167  16.368  0.2688 -0.2643 -0.1366
 9079W        W25927   8.898  13.576   1.531 -0.2119  0.0954  0.2063
 9080W        W25928   5.872  15.636  12.706  0.0515 -0.0265 -0.1832
 9081W        W25929  16.783   5.769   4.276 -0.1924  0.1064  0.1902
 9082W        W25930  17.582   5.079   1.238  0.3587 -0.1951 -0.0243
 9083W        W25931   6.610   9.492  15.784 -0.2905  0.0409 -0.0741
 9084W        W25932  16.375   1.408   0.268 -0.3488  0.0094  0.1190
 9085W        W25933   1.519   6.349   0.619  0.0623  0.3151 -0.0363
 9086W        W25934  12.465  13.956   3.322 -0.0548 -0.3169 -0.1234
 9087W        W25935   5.625  17.200  13.244  0.0941  0.2373 -0.2045
 9088W        W25936   1.040   3.422  15.586  0.0015  0.0640 -0.3034
 9089W        W25937   5.143  16.621  16.564 -0.0871 -0.0530 -0.3355
 9090W        W25938   8.930  12.233  14.020 -0.0728 -0.2372 -0.2456
 9091W        W25939   1.772   7.226   0.375 -0.1476  0.0352 -0.1854
 9092W        W25940  15.850  17.647   0.818  0.2133  0.0892 -0.2110
 9093W        W25941   3.410   7.131  13.886 -0.0799 -0.0156 -0.1227
 9094W        W25942   2.410   4.468   1.601 -0.2508  0.4108  0.3860
 9095W        W25943  17.006  10.464   4.497 -0.0497 -0.1694 -0.2119
 9096W        W25944   3.756  14.700  16.068  0.0235  0.3040 -0.0364
 9097W        W25945   5.900  16.882   5.025  0.1044 -0.1637 -0.3641
 9098W        W25946   0.897   5.384  14.884  0.0917 -0.1161  0.0412
 9099W        W25947   8.577   4.321   1.324 -0.0982  0.0663 -0.0023
 9100W        W25948   1.236  17.165   0.707 -0.1777  0.0969  0.0623
 9101W        W25949  11.532   9.900  11.858  0.2469 -0.0072  0.0856
 9102W        W25950   4.672   2.101  11.699  0.0113 -0.1786 -0.1255
 9103W        W25951   1.516   0.114  14.164 -0.1435  0.1740  0.0428
 9104W        W25952   8.327   4.015  12.348  0.0199 -0.1616 -0.0030
 9105W        W25953   5.577   9.425   2.035 -0.1586  0.1264  0.0565
 9106W        W25954   6.043  13.511  12.986  0.0721  0.0582 -0.0383
 9107W        W25955   8.590  16.968  16.042  0.0986  0.3157 -0.4015
 9108W        W25956   5.233  12.453  13.498 -0.3189 -0.1410  0.1018
 9109W        W25957  14.494   9.144   1.348 -0.1255 -0.1040 -0.2947
 9110W        W25958   6.410  16.161   5.696  0.2968  0.0894 -0.5050
 9111W        W25959   2.367   7.577  14.316  0.1374  0.1366 -0.1188
 9112W        W25960  13.656  11.405  12.908  0.1195 -0.0717  0.1203
 9113W        W25961  13.075  11.386  16.102  0.0393 -0.3499 -0.1255
 9114W        W25962   8.704   6.082   1.448 -0.1098 -0.0200  0.2097
 9115W        W25963   5.672   3.086  12.150 -0.0889 -0.1168  0.1766
 9116W        W25964  14.636   5.894   4.935 -0.0494 -0.2371  0.1000
 9117W        W25965   0.429   2.908   4.271  0.0018  0.0711  0.1112
 9118W        W25966  12.013  10.709  15.754  0.1174  0.0055  0.2782
 9119W        W25967   0.433   4.456   6.290  0.2615  0.1042 -0.0450
 9120W        W25968   4.643   3.097   1.930  0.1321 -0.0281  0.1082
 9121W        W25969  13.240  15.878  13.841 -0.1290  0.2345  0.3247
 9122W        W25970  12.903   0.785   1.213  0.0949  0.4348  0.2044
 9123W        W25971  13.104  11.077  10.800  0.1550  0.3056 -0.2100
 9124W        W25972  11.750  11.932   4.384 -0.1273  0.2140 -0.0918
 9125W        W25973  13.236  13.808  12.519 -0.0837 -0.2436  0.3368
 9126W        W25974   7.171  15.407   2.922  0.1979 -0.0372  0.0901
 9127W        W25975   8.414   0.486   3.177 -0.0852 -0.2252 -0.2923
 9128W        W25976   5.562  16.566   1.943 -0.0953  0.2426 -0.0584
 9129W        W25977   7.504  16.841  12.158 -0.1501 -0.0185  0.3533
 9130W        W25978  13.134  17.042   4.318  0.2181 -0.1135  0.0879
 9131W        W25979  16.621   6.614  14.923 -0.1785  0.2637 -0.0048
 9132W        W25980  17.189  16.455  16.602  0.1812 -0.0377 -0.2246
 9133W        W25981   1.972  13.588   2.363 -0.0925  0.0457  0.1466
 9134W        W25982   2.214  10.729   1.463 -0.1486  0.2999 -0.0458
 9135W        W25983  14.848   3.924   4.731 -0.2310  0.0727 -0.0134
 9136W        W25984   2.852  16.927  13.279 -0.1514 -0.1221 -0.1118
 9137W        W25985  14.691   1.832  14.996  0.0707 -0.0463  0.0947
 9138W        W25986  14.024  12.385  12.330 -0.0475 -0.0056 -0.0660
 9139W        W25987  14.966   8.935   4.812  0.0977 -0.2108 -0.0648
 9140W        W25988   3.233  11.911   4.576  0.0083 -0.0199 -0.1816
 9141W        W25989  15.980   4.886   3.689 -0.1173 -0.0321 -0.0793
 9142W        W25990   2.984  14.145   3.179  0.1849 -0.2130  0.0923
 9143W        W25991  14.855  17.010  15.823  0.0572 -0.3810  0.2049
 9144W        W25992   6.673   8.783  15.825  0.0520  0.2847 -0.3586
 9145W        W25993  15.014   0.123   2.728 -0.1732  0.2553  0.2325
 9146W        W25994  13.791  14.686   3.109 -0.0940  0.0820 -0.0383
 9147W        W25995   3.410  10.908   1.963 -0.1753  0.0276  0.0808
 9148W        W25996   7.955   8.926  15.329 -0.3639 -0.1474  0.0008
 9149W        W25997  10.913  10.695  12.242 -0.0499  0.2608 -0.1111
 9150W        W25998   8.490  10.138   3.432  0.0989 -0.1072  0.2357
 9151W        W25999   6.015   1.280  15.377  0.1068 -0.1706 -0.2613
 9152W        W26000  13.981   3.337   5.468  0.0532 -0.0632 -0.4536
 9153W        W26001   3.484   0.044   0.643  0.3305 -0.0143  0.3367
 9154W        W26002  12.516   8.711   4.808 -0.1819  0.1496  0.1646
 9155W        W26003  16.273   4.326   0.678  0.0222 -0.0052 -0.3392
 9156W        W26004   8.872  13.876  14.623 -0.2841  0.1111  0.5454
 9157W        W26005  12.595   9.117  15.878 -0.0127  0.1212 -0.1373
 9158W        W26006   6.247  14.033   0.565 -0.1436  0.0156  0.0455
 9159W        W26007  11.388  10.867  13.526  0.1509  0.2259 -0.1693
 9160W        W26008  10.397  10.193   0.234 -0.0359  0.2778 -0.2001
 9161W        W26009  10.290   3.397  12.741  0.2294  0.2846 -0.1540
 9162W        W26010  14.855  15.116  12.924  0.1455 -0.0109 -0.0334
 9163W        W26011  10.183   3.025   2.890 -0.1173  0.0383  0.0512
 9164W        W26012  13.015  13.365  12.387 -0.1307  0.1086 -0.1768
 9165W        W26013   1.939   8.543   0.485 -0.1245 -0.0712  0.2285
 9166W        W26014  12.526  15.953  13.322  0.2667  0.1848 -0.1952
 9167W        W26015   5.993   6.374  16.097  0.0981  0.0269 -0.0127
 9168W        W26016  12.525  13.809   1.424 -0.1291 -0.1878  0.3140
 9169W        W26017   3.774   0.641  13.130  0.1467 -0.2099 -0.0770
 9170W        W26018   4.972  16.899  12.614 -0.2194 -0.0534 -0.1678
 9171W        W26019   1.506   9.860   3.812  0.0756  0.1396  0.0801
 9172W        W26020   8.132   7.109   0.423 -0.0592 -0.2801 -0.1787
 9173W        W26021   4.066   9.820  13.599  0.1397  0.1708 -0.1151
 9174W        W26022  16.125  14.028   4.449 -0.1146 -0.4412  0.2968
 9175W        W26023  16.903   2.741  14.383 -0.3197  0.2914 -0.1343
 9176W        W26024  13.336  13.890  12.974  0.0507 -0.0157 -0.2128
 9177W        W26025   0.987  17.483  11.617  0.0661  0.0965  0.0869
 9178W        W26026   6.656   4.774   1.618  0.0611 -0.0180  0.0425
 9179W        W26027  14.976   4.803   2.731  0.1156 -0.1972 -0.1022
 9180W        W26028   9.432   7.860  15.179 -0.1079 -0.0515  0.0333
 9181W        W26029   5.701  10.686   0.851 -0.3548 -0.0892 -0.2023
 9182W        W26030  13.825   9.020  14.326  0.0286  0.0528  0.1012
 9183W        W26031  10.524   5.775  11.071 -0.0326 -0.0840  0.1571
 9184W        W26032   3.343   1.053  14.345  0.0844  0.0512  0.1569
 9185W        W26033  13.159   7.240  11.794 -0.0849 -0.0578  0.1928
 9186W        W26034   2.540   6.689   4.258 -0.1338  0.0165  0.3593
 9187W        W26035   3.529   9.505  15.801 -0.0122 -0.1326 -0.3065
 9188W        W26036   5.639   9.693  15.985 -0.1770  0.0382 -0.0005
 9189W        W26037   1.224  16.993  14.924 -0.2051  0.1815 -0.3481
 9190W        W26038   1.315  15.172  15.525  0.0929 -0.0010  0.0663
 9191W        W26039  16.109   8.580   4.173  0.1232 -0.0184  0.1400
 9192W        W26040   7.114  16.361   0.146  0.0693 -0.0208 -0.1767
 9193W        W26041   3.129   4.033   2.690  0.0133 -0.1481  0.0325
 9194W        W26042  15.169  13.490  14.822 -0.1290  0.1411  0.0411
 9195W        W26043   3.952   0.976   0.308  0.2873 -0.0151  0.2126
 9196W        W26044  14.767  16.000  12.707  0.0875  0.2633  0.1899
 9197W        W26045  13.007   2.868   3.300  0.0602  0.0120 -0.1994
 9198W        W26046   1.508   8.917  13.583  0.1198 -0.0331  0.0899
 9199W        W26047   2.478   2.124  12.959  0.2300 -0.1409 -0.1197
 9200W        W26048   4.726   7.747  11.182  0.3061 -0.1959 -0.0448
 9201W        W26049  14.225  15.631   4.806  0.2842  0.2188 -0.3440
 9202W        W26050   0.174  10.357  13.336  0.3325 -0.1114 -0.2745
 9203W        W26051  15.594  16.548  13.755 -0.0190  0.2552 -0.4896
 9204W        W26052   0.628  10.172  12.615 -0.0097  0.1201  0.0869
 9205W        W26053  17.200   4.136   2.179 -0.0437  0.1118 -0.2833
 9206W        W26054   6.118   3.057   4.472 -0.1185 -0.2128  0.1609
 9207W        W26055  13.952   5.686   2.693 -0.2146  0.2095 -0.0602
 9208W        W26056  11.711   8.350   0.618 -0.0308 -0.0662 -0.3333
 9209W        W26057  11.388   9.951  15.870 -0.4441  0.0710  0.0594
 9210W        W26058   4.818  14.916  11.812 -0.1210  0.5120 -0.2855
 9211W        W26059  16.876   0.532  16.453  0.0213  0.0130 -0.2857
 9212W        W26060   0.482   4.393   3.950  0.0383 -0.2291 -0.2076
 9213W        W26061  16.250   4.899  12.745  0.1759 -0.1237  0.0235
 9214W        W26062   0.672  12.146   0.926  0.0537  0.1091 -0.2248
 9215W        W26063   4.100   3.108   4.079 -0.1437  0.0824 -0.1742
 9216W        W26064   6.416  11.643  14.660  0.1021 -0.1207 -0.0489
 9217W        W26065  14.151   1.314  12.594  0.0120  0.0482  0.0930
 9218W        W26066   7.446   9.575   3.986 -0.0681 -0.0985 -0.2336
 9219W        W26067  10.294   5.818  12.686 -0.0305 -0.0439 -0.1214
 9220W        W26068   5.116   7.427  13.853  0.0806 -0.0819 -0.0427
 9221W        W26069   5.467   7.895  12.454 -0.0859  0.1555  0.0402
 9222W        W26070  16.419  10.977  14.287 -0.2551 -0.0602 -0.0643
 9223W        W26071  14.204   8.350   1.401 -0.1122  0.2180  0.0317
 9224W        W26072  16.592   7.836  15.994 -0.0714 -0.3875  0.0919
 9225W        W26073  15.864   5.660   1.153  0.1179  0.1558  0.0440
 9226W        W26074  17.444   3.594  12.017 -0.1248 -0.1534 -0.2006
 9227W        W26075  12.099   4.602  12.936 -0.0102 -0.1936 -0.3547
 9228W        W26076  16.476   4.575   3.835 -0.2220  0.3081 -0.2026
 9229W        W26077   0.920   2.262  12.211  0.0052 -0.0701 -0.0493
 9230W        W26078   4.126  12.795  16.177  0.0510  0.1376  0.0512
 9231W        W26079   3.030  15.538  15.460 -0.2061 -0.1235  0.1690
 9232W        W26080   0.672   1.919  15.671  0.0702 -0.0795 -0.1436
 9233W        W26081   6.767  17.522  13.590  0.1056 -0.0012 -0.3694
 9234W        W26082  14.395   2.312   0.524 -0.4997 -0.0936 -0.1562
 9235W        W26083   1.533   9.677   4.432  0.2591 -0.0870 -0.1907
 9236W        W26084  17.582  11.677   2.457 -0.1871 -0.2832 -0.0525
 9237W        W26085  12.782  17.258  13.839 -0.0288 -0.2228 -0.2652
 9238W        W26086  12.723   8.789  14.787  0.0058 -0.1244  0.1215
 9239W        W26087   9.822  12.653  15.815 -0.0976  0.0027 -0.1278
 9240W        W26088   3.388   3.694   3.442  0.0053  0.0148 -0.1113
 9241W        W26089  10.225   6.153  14.464  0.2947 -0.0855  0.0703
 9242W        W26090   7.800  14.872   6.888 -0.0035 -0.0363  0.0524
 9243W        W26091   7.689  15.996   4.588 -0.2302 -0.2545 -0.2955
 9244W        W26092  14.045  13.403   5.231  0.0862 -0.3834 -0.0355
 9245W        W26093  15.715  11.058  12.193  0.0086  0.1834 -0.3725
 9246W        W26094  14.812   2.891   3.825 -0.1564  0.1505  0.0809
 9247W        W26095   4.038  16.426   0.535 -0.0647 -0.0884 -0.0644
 9248W        W26096   1.855  13.401  13.703  0.1690  0.0364  0.2460
 9249W        W26097   7.244  12.626  16.524  0.2311 -0.2402  0.2821
 9250W        W26098  13.426  13.672   4.571 -0.0541  0.1985  0.1845
 9251W        W26099  15.053  14.637   3.481  0.0418  0.0404 -0.5410
 9252W        W26100   0.923  16.505  11.910  0.0458 -0.0168 -0.0188
 9253W        W26101   1.548   3.727  12.178 -0.1763 -0.0404 -0.1021
 9254W        W26102   3.470  11.325  11.245 -0.0401  0.0430 -0.0110
 9255W        W26103  13.789   6.553  12.511  0.1312 -0.1956 -0.2609
 9256W        W26104  11.015   2.894  13.267  0.0457  0.0609 -0.2470
 9257W        W26105   5.127  13.492  10.704  0.1239  0.1410 -0.0019
 9258W        W26106   5.792   7.331   4.181  0.3787  0.4088 -0.0311
 9259W        W26107   1.592  14.395   4.881  0.1317 -0.0343  0.2576
 9260W        W26108   1.864   8.482   4.354  0.1986  0.2116 -0.0099
 9261W        W26109   7.118  12.269   2.173  0.0046  0.0775  0.1384
 9262W        W26110   4.646   6.094  13.203  0.2310 -0.0225 -0.1160
 9263W        W26111  14.824   6.098  12.249 -0.2558 -0.0781  0.1631
 9264W        W26112  15.943  12.700   3.281 -0.1575 -0.1045  0.0003
 9265W        W26113  15.556   5.892  14.281  0.1740  0.2432  0.0669
 9266W        W26114  13.890   5.955  16.336 -0.0959  0.1704 -0.2926
 9267W        W26115  16.687  14.207   3.862 -0.3406  0.3513  0.2926
 9268W        W26116  12.216  13.001   5.218 -0.0359 -0.2563  0.0551
 9269W        W26117  15.562  11.635  13.669 -0.3193 -0.0386  0.1777
 9270W        W26118  16.799  12.685   1.898  0.1383  0.1123  0.1340
 9271W        W26119   4.710   6.403  11.432  0.0322 -0.0002  0.0783
 9272W        W26120   8.586  14.598  16.375  0.0538 -0.0214  0.0107
 9273W        W26121   3.356   9.437  12.338  0.2365 -0.0018  0.3262
 9274W        W26122   3.069  12.774   4.562 -0.3227 -0.1388 -0.0914
 9275W        W26123   0.812  12.699  16.390 -0.1849  0.0677 -0.0968
 9276W        W26124   8.876  12.489  13.186  0.2018 -0.0930  0.1770
 9277W        W26125  13.476   3.834   4.984  0.2347  0.3360  0.2033
 9278W        W26126   8.614  12.750   1.031 -0.1434  0.2503 -0.0291
 9279W        W26127  16.341  10.984   0.146 -0.1172  0.1168 -0.1810
 9280W        W26128   5.626  12.260  13.724 -0.3193 -0.0315  0.3418
 9281W        W26129  12.570   0.455   0.568 -0.3931 -0.2647 -0.2455
 9282W        W26130   4.414   2.709  13.450  0.2727 -0.0830  0.1934
 9283W        W26131  12.976   2.554   5.183  0.2478 -0.2448  0.0881
 9284W        W26132   1.871  12.107  16.135 -0.0842 -0.1180 -0.0743
 9285W        W26133  12.412  16.984   3.998 -0.2531  0.1087 -0.0800
 9286W        W26134   7.934  10.899  14.588  0.1066  0.0970 -0.1892
 9287W        W26135   4.337  12.362   2.479 -0.0945 -0.1094  0.1109
 9288W        W26136  13.247  12.607   2.288  0.1804  0.0189 -0.2862
 9289W        W26137   7.218  16.642  14.677  0.1769 -0.1097 -0.3528
 9290W        W26138  12.748   5.803   0.018 -0.1493  0.0874 -0.1560
 9291W        W26139  10.603  13.739   0.117 -0.1776 -0.0562 -0.3086
 9292W        W26140   3.903   0.569  14.941 -0.1487  0.0532  0.0592
 9293W        W26141   3.034   8.071   3.992  0.0147 -0.1475  0.0351
 9294W        W26142   1.003   5.758   0.083 -0.1589 -0.1210 -0.0006
 9295W        W26143   8.025  15.627   2.811 -0.0473 -0.1644  0.0412
 9296W        W26144   5.688   4.744  11.461 -0.0707  0.0404  0.0015
 9297W        W26145   8.219  16.470   0.654  0.1640  0.2160 -0.2223
 9298W        W26146   0.477   7.198   1.441 -0.1191 -0.1685 -0.2015
 9299W        W26147   0.208   7.916   5.418  0.2730 -0.0692 -0.0831
 9300W        W26148   3.711   4.938   4.248 -0.1628 -0.1057  0.1195
 9301W        W26149   5.712   6.014   3.743 -0.2025  0.0848  0.1759
 9302W        W26150   9.652  14.442  16.094  0.0465  0.0717 -0.2046
 9303W        W26151   8.520   9.887  12.404  0.1426  0.3850 -0.2197
 9304W        W26152   9.768  16.949   2.576  0.2731 -0.1926  0.0457
 9305W        W26153   9.989  14.575   1.582  0.1839  0.0447 -0.1482
 9306W        W26154   3.021  15.479   0.952 -0.1218 -0.1221 -0.2276
 9307W        W26155   8.595  11.156   3.677 -0.1994 -0.4112 -0.1670
 9308W        W26156   2.070  14.979   1.787  0.1046 -0.2180  0.0884
 9309W        W26157  10.804  16.158  15.503  0.0487  0.0917 -0.1508
 9310W        W26158   6.237  10.556  13.599 -0.2166  0.4313 -0.0027
 9311W        W26159  16.612   7.025  15.525 -0.2144  0.1751 -0.0096
 9312W        W26160   5.553   0.225  14.683  0.4094 -0.3388  0.0863
 9313W        W26161  12.781  16.527  15.654 -0.1833 -0.2024 -0.1526
 9314W        W26162  16.742  16.492  16.414 -0.0613 -0.2781 -0.0164
 9315W        W26163   0.308  14.455   1.799 -0.0412  0.3239  0.2291
 9316W        W26164  15.155  16.652   2.028 -0.0031  0.1406  0.1713
 9317W        W26165  16.278   1.901   1.747  0.0663  0.0414  0.0624
 9318W        W26166  13.306   1.251  16.626 -0.3415 -0.1035 -0.2231
 9319W        W26167   9.780   8.699  11.669 -0.1875  0.0274 -0.2419
 9320W        W26168  12.750   2.166   2.976  0.0455 -0.0470 -0.0033
 9321W        W26169  14.758   6.199   0.610  0.1468  0.1831 -0.0940
 9322W        W26170   2.818  11.751   0.949 -0.1210 -0.0642  0.2616
 9323W        W26171   3.046   3.863   0.053  0.3740 -0.0095  0.0597
 9324W        W26172   8.236  14.014  14.665  0.1994 -0.0882 -0.2240
 9325W        W26173   1.369   0.231   5.517 -0.0743  0.3594  0.0160
 9326W        W26174   6.956   7.820   4.120 -0.0536 -0.1424 -0.1010
 9327W        W26175  13.982   1.111   1.538 -0.0349 -0.1151 -0.0918
 9328W        W26176  12.667   1.558   4.209 -0.1949 -0.1525 -0.2190
 9329W        W26177  14.026   7.996  15.815 -0.1947 -0.1156  0.0122
 9330W        W26178   1.986   9.795   6.324  0.0583 -0.1156 -0.2430
 9331W        W26179   6.581   8.662   2.346 -0.1197  0.0182  0.2475
 9332W        W26180   3.780   5.200  14.942  0.0302  0.0705  0.2274
 9333W        W26181  17.657   5.703   4.863  0.0843  0.0419  0.0059
 9334W        W26182  14.861  11.119   1.130 -0.0777  0.2072  0.1501
 9335W        W26183  10.297  12.144   1.841  0.1192 -0.0315 -0.0536
 9336W        W26184   2.381  10.555   0.570  0.1647 -0.1549 -0.2714
 9337W        W26185   9.372   2.247  15.603 -0.1140  0.1714 -0.0091
 9338W        W26186   1.746   6.000   5.119  0.1711 -0.0215  0.0716
 9339W        W26187   9.294  15.703   5.786  0.0016 -0.0745  0.0609
 9340W        W26188  15.261  14.577   4.833  0.0472 -0.1732  0.0446
 9341W        W26189  12.381   7.733   5.377  0.0623  0.1229  0.1782
 9342W        W26190  13.724   2.788  13.514 -0.0538  0.2851  0.1093
 9343W        W26191   2.849   4.125   6.641 -0.0004  0.1691  0.0995
 9344W        W26192   4.494   1.734   2.473 -0.0508 -0.0692  0.4711
 9345W        W26193  13.696  12.889   0.980  0.3911  0.0674 -0.0335
 9346W        W26194  10.403   5.345  11.997 -0.1129 -0.2435 -0.0076
 9347W        W26195  15.743   2.257   0.070  0.1810  0.0353  0.0141
 9348W        W26196  10.962   8.168   0.028 -0.0109  0.1582 -0.1327
 9349W        W26197   3.263   8.410   5.205 -0.0727 -0.1913 -0.0718
 9350W        W26198   2.330   2.930   0.702  0.0001 -0.0940 -0.1843
 9351W        W26199   4.606  11.016   3.665 -0.1976  0.0349  0.1190
 9352W        W26200   0.035   1.324  16.496 -0.1573  0.0932 -0.1030
 9353W        W26201   7.963  12.195  14.581 -0.1120 -0.1493  0.4141
 9354W        W26202   9.280   5.987  15.092  0.1509  0.4422  0.0615
 9355W        W26203   6.211  12.750   2.682 -0.0582 -0.1826  0.2119
 9356W        W26204  10.511   9.115   0.145  0.2276 -0.0624  0.0080
 9357W        W26205  17.240  15.241   1.382  0.1100  0.2687  0.2861
 9358W        W26206  14.074   7.879   2.660  0.1903  0.0643  0.0716
 9359W        W26207   6.849   4.106  15.960  0.4027 -0.0262 -0.0525
 9360W        W26208   5.000  10.801  12.544  0.0276  0.2236  0.1744
 9361W        W26209   3.923  17.019  15.300  0.3692  0.5385  0.0243
 9362W        W26210  10.734   4.967  13.681  0.2050 -0.0216 -0.0814
 9363W        W26211   5.121   8.980  16.441  0.2758  0.0827  0.1939
 9364W        W26212   5.637  17.286   4.912 -0.2859 -0.3245 -0.0345
 9365W        W26213  10.542   0.514   4.181 -0.0610 -0.0817 -0.1920
 9366W        W26214   6.019   6.700  15.638  0.1773 -0.0023  0.0489
 9367W        W26215   7.148  12.280  15.550 -0.0575  0.2551 -0.1048
 9368W        W26216   3.267  10.629  13.842  0.1749  0.2504  0.3309
 9369W        W26217   0.730  15.723  15.531 -0.1427 -0.1531 -0.3290
 9370W        W26218   4.997  11.319   6.277  0.1919 -0.1173 -0.0314
 9371W        W26219  17.230  13.721  14.466  0.0317  0.1401  0.1462
 9372W        W26220   8.511   5.935  12.748  0.2426 -0.0312 -0.3411
 9373W        W26221  17.333   9.044  16.148 -0.2576 -0.2886  0.1319
 9374W        W26222  15.962   5.581   5.654 -0.2307 -0.1093 -0.0462
 9375W        W26223  16.008   0.444  13.287  0.1280 -0.0956 -0.2046
 9376W        W26224   9.900   9.229  12.527 -0.0280 -0.1510  0.2195
 9377W        W26225   1.568   2.779  15.552 -0.1225  0.0996  0.0349
 9378W        W26226  10.116   0.340   1.882  0.2103 -0.1742  0.3064
 9379W        W26227  14.695   4.388   2.602 -0.0255 -0.2291  0.0732
 9380W        W26228  10.728  17.373   1.047  0.1734  0.0559  0.1061
 9381W        W26229  10.417   0.362  14.254 -0.1996  0.0578  0.2444
 9382W        W26230   7.769  10.691   3.811  0.3081  0.2238 -0.1041
 9383W        W26231   2.828   9.298  12.544 -0.0315 -0.3105 -0.2615
 9384W        W26232   5.219   5.171  10.620  0.1920  0.2652 -0.2009
 9385W        W26233   8.497  12.305   0.308 -0.0627  0.1490 -0.3459
 9386W        W26234   6.805  11.491   5.699  0.1526 -0.0463 -0.0048
 9387W        W26235   0.663   0.243  13.686 -0.0979  0.1000  0.3067
 9388W        W26236   0.996   8.958  16.638 -0.1513  0.1095  0.0782
 9389W        W26237   9.047  16.527  14.506 -0.1924  0.0012 -0.1807
 9390W        W26238   9.627   6.822  15.287 -0.4202  0.0969  0.0452
 9391W        W26239   8.932  14.700  11.632 -0.1946 -0.0048  0.3440
 9392W        W26240   7.739   6.374   3.994  0.3298  0.2821 -0.1366
 9393W        W26241  12.687   5.464   3.614  0.3722 -0.0881  0.1063
 9394W        W26242  15.534   4.968   1.907  0.1826 -0.0882  0.1170
 9395W        W26243   9.243   9.522  12.044 -0.0713 -0.1294  0.2635
 9396W        W26244   9.881   1.350  14.792  0.1208  0.1334  0.2894
 9397W        W26245  12.299  11.477  15.416  0.2827  0.0739  0.2098
 9398W        W26246  11.290   6.849  15.908  0.0105  0.1419 -0.1378
 9399W        W26247   8.758  16.930  11.979  0.2338  0.1086  0.0254
 9400W        W26248   1.162   8.551  14.695 -0.0358 -0.0735 -0.0078
 9401W        W26249  16.704   7.064  15.038 -0.0246 -0.2949  0.2241
 9402W        W26250  11.520   1.793  14.311 -0.2324  0.1384  0.1634
 9403W        W26251   3.568   3.820   2.913 -0.1450 -0.0129  0.1432
 9404W        W26252   0.598  10.748   5.044 -0.0228 -0.2221 -0.0769
 9405W        W26253  11.089   5.460   4.582  0.2978 -0.2854  0.0540
 9406W        W26254  10.128  17.671   4.207  0.0011  0.3769  0.1053
 9407W        W26255   5.284   6.995   2.918 -0.0224 -0.0942 -0.0604
 9408W        W26256  12.517  17.428  14.705 -0.3334 -0.1114  0.2853
 9409W        W26257  17.585   7.986   4.491  0.2008 -0.4885 -0.0453
 9410W        W26258   3.847  15.357   0.400 -0.2115 -0.0024  0.1748
 9411W        W26259   0.192   5.683  16.308 -0.0991  0.0491 -0.0349
 9412W        W26260  15.102   6.346  14.219 -0.3445 -0.0568 -0.2397
 9413W        W26261   1.457   6.091  12.117  0.1965 -0.0740 -0.0516
 9414W        W26262   0.022   6.008   5.345  0.2599  0.1215 -0.0162
 9415W        W26263  15.080  13.462  15.986  0.4147  0.0856 -0.1519
 9416W        W26264   2.941  12.213   2.972  0.2038 -0.0387 -0.4838
 9417W        W26265  16.511   8.100   1.799 -0.0003 -0.1971 -0.4252
 9418W        W26266   5.811   2.950   2.027  0.2142  0.2565 -0.1847
 9419W        W26267   5.439  17.108  15.641  0.2125 -0.0953  0.0126
 9420W        W26268   9.919   1.867  16.352  0.0228 -0.1107  0.1528
 9421W        W26269  14.890  10.927  11.162  0.0619 -0.0438 -0.0341
 9422W        W26270  12.365  10.543   1.780  0.1696  0.0626  0.0866
 9423W        W26271  17.544  15.922  13.034 -0.4355  0.1233 -0.0857
 9424W        W26272   1.623  11.948  13.495 -0.1812  0.1142 -0.1562
 9425W        W26273   3.059   1.035  15.220 -0.0097 -0.4323 -0.1652
 9426W        W26274   9.750   4.914   0.661  0.1230  0.2003  0.1617
 9427W        W26275   5.282   6.654  12.635  0.1628  0.1314 -0.1670
 9428W        W26276  16.329   7.304   1.252  0.0366  0.0078  0.0124
 9429W        W26277   8.918   4.310   2.169 -0.2122  0.1167 -0.2916
 9430W        W26278  16.924   0.104  16.067  0.2960 -0.0529  0.5027
 9431W        W26279  11.021  10.499  14.793  0.2912  0.0462 -0.0106
 9432W        W26280   5.471  12.347  15.138  0.2188  0.1934 -0.0770
 9433W        W26281   6.904   0.955   2.607  0.0057  0.0897 -0.1438
 9434W        W26282  15.630  17.191   4.044  0.2440 -0.1326 -0.0933
 9435W        W26283   3.205   1.152  10.779  0.3124 -0.3400 -0.2772
 9436W        W26284   3.195   6.540  15.270 -0.2002  0.0024  0.0498
 9437W        W26285  13.126  17.617  16.287  0.2737 -0.0423 -0.0290
 9438W        W26286   7.913  10.437   3.246 -0.2507  0.0444 -0.1948
 9439W        W26287   7.151   5.253   3.366 -0.1457  0.3712 -0.0844
 9440W        W26288  14.403  12.922   1.157 -0.0992  0.0810  0.1137
 9441W        W26289  17.137   0.523  15.984  0.1471 -0.1195  0.1591
 9442W        W26290  16.475  16.842   0.106  0.3264  0.2385 -0.0559
 9443W        W26291   4.619   1.180   0.828  0.0903  0.1010 -0.1852
 9444W        W26292  14.102  10.993  15.852 -0.0612 -0.1303 -0.0138
 9445W        W26293   7.422   9.407  15.929  0.1258  0.1859 -0.1426
 9446W        W26294   9.496  12.598   4.200 -0.1421  0.2353 -0.3208
 9447W        W26295  15.492   2.834  14.552  0.0622 -0.0352  0.0979
 9448W        W26296  10.809   6.488  15.765  0.0796 -0.3072  0.0392
 9449W        W26297  17.613  12.274  16.043 -0.2075  0.0166 -0.0572
 9450W        W26298  15.977   8.774   0.715 -0.1786  0.2967  0.0012
 9451W        W26299   4.218   8.420  12.312 -0.0010  0.0877 -0.2449
 9452W        W26300   8.877  11.297  11.117 -0.2685 -0.0399 -0.0500
 9453W        W26301  11.427   4.375   4.612  0.1366  0.0740 -0.2444
 9454W        W26302  11.268  14.782   4.195 -0.0491 -0.0434  0.0258
 9455W        W26303  10.812  14.212  11.833 -0.0543 -0.2115  0.2856
 9456W        W26304   1.457  11.433   1.145  0.1231 -0.1624  0.0456
 9457W        W26305   7.965  12.274  15.519  0.0685  0.0059 -0.0191
 9458W        W26306  14.014   2.612  12.557 -0.1393 -0.2534 -0.1618
 9459W        W26307  11.115   0.871  15.113 -0.0367 -0.2283 -0.1058
 9460W        W26308  16.897  17.111  10.588  0.0861  0.2130  0.1034
 9461W        W26309   7.532   0.029   4.555 -0.0137  0.2643  0.3647
 9462W        W26310   3.992  10.430   2.953 -0.0060 -0.0566 -0.1629
 9463W        W26311  11.984  12.026   6.091  0.1026  0.1624 -0.1257
 9464W        W26312   6.637   5.531   4.564 -0.0063 -0.0135 -0.0399
 9465W        W26313   2.930   6.275   4.298  0.2607  0.0908 -0.0559
 9466W        W26314   7.887   5.381  12.136 -0.1347  0.1165 -0.2948
 9467W        W26315  10.286   2.054  13.917 -0.2143  0.3132 -0.2910
 9468W        W26316   1.598  11.351  14.030  0.0122  0.1149  0.3071
 9469W        W26317   9.731  16.735   3.769 -0.2930  0.0012  0.0225
 9470W        W26318  14.172   7.802   0.124  0.1135  0.0744 -0.0574
 9471W        W26319   8.856   9.358  15.818  0.2609  0.1603 -0.0372
 9472W        W26320   1.978   4.237  15.214  0.0601  0.0324  0.0410
 9473W        W26321  14.911   7.431   3.908  0.2030 -0.4886  0.1211
 9474W        W26322   5.198   5.222  16.164  0.2541  0.5256 -0.3097
 9475W        W26323   5.773  12.916  15.185 -0.0799  0.1376  0.0620
 9476W        W26324  13.930   3.093   3.516  0.0450  0.0818  0.2114
 9477W        W26325  12.257   8.241   2.185  0.0181 -0.0249  0.2635
 9478W        W26326  14.150  11.284   0.886  0.0500  0.0879 -0.0446
 9479W        W26327   3.650  15.024   1.421  0.2007 -0.1431  0.0732
 9480W        W26328   9.400  11.035  15.078  0.2161 -0.0558  0.2255
 9481W        W26329   1.789   7.467   5.328  0.0651 -0.1091 -0.1972
 9482W        W26330  15.519   8.501   0.405  0.0736  0.0495 -0.0120
 9483W        W26331  11.679   1.299   3.717 -0.1357  0.0626 -0.0728
 9484W        W26332  13.445  12.417  12.604 -0.1445 -0.2753 -0.0413
 9485W        W26333   9.138  11.097  16.249  0.1271 -0.0895  0.0030
 9486W        W26334  15.904  14.661   3.483  0.0514 -0.1798  0.0128
 9487W        W26335  14.780   2.364   4.905 -0.0620 -0.0217 -0.0031
 9488W        W26336  10.877   6.714  14.318 -0.0986 -0.0523  0.3429
 9489W        W26337  10.319   5.535   4.022 -0.1044  0.1454  0.2958
 9490W        W26338  12.773  17.332   2.605 -0.2055  0.2331 -0.0343
 9491W        W26339   5.788  14.597  14.553  0.0960 -0.2927 -0.1713
 9492W        W26340   8.954  15.325  12.850  0.1791  0.1045  0.1417
 9493W        W26341  16.563   7.083   4.769  0.0859  0.0747  0.1568
 9494W        W26342   3.527   8.461  11.548 -0.0638  0.2128  0.1655
 9495W        W26343  16.540   8.845  14.222  0.0406 -0.1042  0.0484
 9496W        W26344   3.884  13.609   0.985 -0.1261  0.2340  0.4754
 9497W        W26345  12.831   1.673  13.768 -0.3101 -0.3089 -0.0090
 9498W        W26346   8.450  12.687   5.628 -0.0514 -0.0582 -0.0752
 9499W        W26347   4.240  16.182  13.532  0.0362  0.0672  0.0227
 9500W        W26348   8.155   6.692   3.992 -0.0973  0.1469 -0.0208
 9501W        W26349  14.687  10.357   3.377 -0.1501  0.0586 -0.0305
 9502W        W26350   6.807  13.154   0.744 -0.0883  0.1119  0.1948
 9503W        W26351   9.703   6.296   4.191 -0.0373 -0.1287  0.1973
 9504W        W26352  15.826   1.254  15.641  0.2928 -0.3832 -0.0474
 9505W        W26353   7.764   4.240  11.537  0.1286  0.0744  0.1771
 9506W        W26354  15.736   4.375  15.019  0.2025  0.1265 -0.0690
 9507W        W26355  12.385   4.537   0.737  0.1680 -0.0646 -0.4322
 9508W        W26356   5.681   9.077  12.611 -0.3492 -0.2079 -0.0506
 9509W        W26357   6.135   3.469   5.198 -0.0603  0.3375 -0.0310
 9510W        W26358   8.753   6.335   2.851 -0.0008 -0.4985 -0.1943
 9511W        W26359  15.825  13.185  11.494 -0.1386  0.2760 -0.3385
 9512W        W26360   8.902  15.727   1.505 -0.0988  0.1424 -0.3047
 9513W        W26361  12.273   8.153   6.315 -0.0495  0.3561  0.1235
 9514W        W26362  15.184  10.638  16.530  0.1497  0.0884 -0.2812
 9515W        W26363   8.511  15.841   3.572  0.1604  0.1076 -0.1114
 9516W        W26364   2.488   6.091  13.280  0.2927 -0.2014  0.0001
 9517W        W26365   6.238  16.590  12.707 -0.1271  0.1466 -0.1140
 9518W        W26366   1.134   5.937   2.446  0.1368 -0.1770  0.1464
 9519W        W26367   3.437  13.732  16.467 -0.3132 -0.0380  0.0600
 9520W        W26368  15.843   4.279  13.546 -0.2326  0.2126  0.0236
 9521W        W26369   2.908   9.021  15.369  0.1301 -0.0104 -0.0373
 9522W        W26370   5.867   4.224  16.180  0.3780  0.1221  0.2313
 9523W        W26371  13.133   5.113  12.508  0.1875 -0.1804 -0.0748
 9524W        W26372   8.442   9.626  14.247 -0.0250 -0.1918  0.4065
 9525W        W26373   6.918   3.114  12.314  0.2496 -0.1507 -0.0587
 9526W        W26374  12.289  16.685   5.354  0.2131  0.1610  0.0393
 9527W        W26375  11.761   9.431   2.294  0.0907  0.0659  0.2902
 9528W        W26376   1.254   2.048   2.755 -0.1479 -0.2205  0.2051
 9529W        W26377  10.537   7.697  15.974 -0.0063  0.2526  0.2762
 9530W        W26378   8.753  10.967   2.169  0.1278 -0.0001  0.3884
 9531W        W26379   2.395   7.265  13.836  0.0803  0.0763 -0.0615
 9532W        W26380   5.924  14.411  12.865  0.0781 -0.1697 -0.1681
 9533W        W26381  12.675   1.238  12.362  0.0190 -0.2428 -0.0297
 9534W        W26382   0.122  12.944   1.242  0.0972  0.2097  0.2995
 9535W        W26383  17.110   2.862  13.902 -0.0722 -0.3273 -0.0960
 9536W        W26384  15.891  16.733   0.976  0.0840  0.3389 -0.2170
 9537W        W26385   7.813   8.072  15.779  0.1618 -0.1915  0.1686
 9538W        W26386  15.785  12.771   0.537  0.0754 -0.0652 -0.3472
 9539W        W26387  15.737   6.463  16.654  0.1981  0.0294 -0.2855
 9540W        W26388  14.524  10.215  10.146  0.3244 -0.1205  0.0968
 9541W        W26389  13.453   5.001   2.667 -0.0523  0.1163  0.0964
 9542W        W26390   7.047   4.495   2.024  0.3559  0.0946  0.1099
 9543W        W26391  13.886   1.051   1.020  0.0478  0.2288  0.1529
 9544W        W26392  12.503  14.498   2.617  0.0164 -0.0995  0.1461
 9545W        W26393   5.469   5.884   0.672 -0.3097  0.0479  0.2356
 9546W        W26394   6.115   4.949   1.915  0.3473  0.2546 -0.0740
 9547W        W26395   8.164  13.364  14.813 -0.0338  0.0201 -0.0082
 9548W        W26396   7.531   4.379   0.840 -0.0575  0.2314 -0.2545
 9549W        W26397  17.546   7.515   4.116 -0.0457 -0.0456  0.1223
 9550W        W26398   5.857   1.454  12.262 -0.0470 -0.0328  0.1126
 9551W        W26399   5.487   7.757  13.723  0.3479 -0.1984 -0.0900
 9552W        W26400   7.081   9.725  13.468 -0.2655  0.1807 -0.1036
 9553W        W26401   5.924  10.578   3.333 -0.2123 -0.2903  0.1525
 9554W        W26402  16.077  16.453  15.650 -0.1155  0.0186 -0.1118
 9555W        W26403  10.379   4.399  14.285 -0.2698  0.1015 -0.2384
 9556W        W26404  10.763  14.382  13.444  0.1201 -0.0234 -0.2682
 9557W        W26405   5.805   0.212   2.476  0.0880  0.0774 -0.0072
 9558W        W26406   7.563  10.841   3.327 -0.3141  0.1646 -0.2935
 9559W        W26407   3.174   4.923   3.007  0.0437  0.1690 -0.0784
 9560W        W26408  12.296  16.312  14.168  0.0913 -0.0214  0.0386
 9561W        W26409   5.491   9.817   4.458 -0.0140  0.1229 -0.2436
 9562W        W26410  10.533  12.056   0.853  0.1176  0.3939  0.0964
 9563W        W26411   6.408   9.522  13.681  0.1699 -0.3635  0.0409
 9564W        W26412   4.493  12.879   3.880  0.1614 -0.2143  0.0167
 9565W        W26413  12.971  14.837   4.896  0.3179 -0.0295  0.2149
 9566W        W26414   1.817   6.339  14.634  0.0654 -0.0930  0.0858
 9567W        W26415  11.676  17.277  14.660 -0.1384 -0.1070  0.0340
 9568W        W26416  12.119  12.478  13.482  0.1343  0.0319 -0.1718
 9569W        W26417   6.749   7.970   3.185 -0.2193  0.0073  0.0388
 9570W        W26418  16.002  12.461  11.985 -0.2488 -0.0684  0.0047
 9571W        W26419  12.447   3.071   5.950 -0.2882 -0.0914 -0.0784
 9572W        W26420   4.178   1.834  11.797  0.0330 -0.1680 -0.3123
 9573W        W26421   7.572  15.752   2.592  0.3683 -0.1560 -0.2858
 9574W        W26422   9.687   3.478  15.052  0.4065 -0.0446  0.4666
 9575W        W26423  15.736  12.274  13.548  0.2045  0.2217 -0.1041
 9576W        W26424   2.571  15.446   2.927  0.1042  0.1301 -0.2314
 9577W        W26425  17.445   3.908   0.954  0.1204  0.2844 -0.2674
 9578W        W26426  13.165  14.114  14.745 -0.1472 -0.2817 -0.1416
 9579W        W26427  16.808   8.869   1.738 -0.2091 -0.0860  0.1678
 9580W        W26428  12.368   8.497   2.929 -0.1914 -0.1024 -0.1368
 9581W        W26429   2.490   0.623   3.805  0.1394 -0.0067  0.0763
 9582W        W26430   6.848   1.967   2.758 -0.5037  0.0702  0.1898
 9583W        W26431   0.372   8.880   3.183  0.0299 -0.0282  0.1380
 9584W        W26432   6.702   9.841  16.204 -0.0210 -0.1268  0.1614
 9585W        W26433  14.084   9.050   0.219 -0.1428  0.0387  0.0093
 9586W        W26434   3.134  11.581  13.894  0.0657  0.0307 -0.3067
 9587W        W26435   5.536   8.111  14.132  0.0646  0.0469  0.0301
 9588W        W26436  14.387  14.484  11.775 -0.0275 -0.0600 -0.0124
 9589W        W26437  16.299  14.289   5.571 -0.3057 -0.1549  0.3328
 9590W        W26438  11.019   1.488  14.382 -0.1097 -0.0064 -0.3190
 9591W        W26439  12.710   8.327   1.270  0.3039  0.1378  0.0685
 9592W        W26440  15.198   9.239   0.105 -0.2052 -0.0521 -0.0172
 9593W        W26441  15.853  10.710  13.697  0.0248 -0.1209 -0.1408
 9594W        W26442  10.664   9.857  14.257 -0.0983 -0.3150  0.3631
 9595W        W26443   7.734   5.035  14.512  0.1612  0.0229 -0.1801
 9596W        W26444   3.804  13.202  16.295 -0.1050 -0.1439 -0.1095
 9597W        W26445   5.725   6.452  15.333  0.0777 -0.2968 -0.1007
 9598W        W26446   9.649   4.008  15.139 -0.1041  0.1919 -0.1998
 9599W        W26447   8.903  14.476  14.914 -0.1656  0.0106  0.1931
 9600W        W26448  10.756  14.863   0.510  0.0018  0.1587  0.2155
 9601W        W26449   3.403  16.633  15.967  0.4035  0.0146  0.0041
 9602W        W26450   7.234   3.120  15.557 -0.0378  0.1766  0.0635
 9603W        W26451  16.032  14.564   2.655  0.0089 -0.1753 -0.1618
 9604W        W26452  12.047   6.291  16.182  0.0563 -0.1701 -0.0543
 9605W        W26453   9.495  10.037  12.014 -0.4444  0.1140  0.1876
 9606W        W26454  10.018   6.482   5.221  0.2371 -0.0371 -0.1420
 9607W        W26455  10.313   9.364   2.759 -0.0301 -0.1805  0.2278
 9608W        W26456  13.749  12.818   1.534 -0.0244  0.1497 -0.0174
 9609W        W26457  17.104  13.738   4.650  0.2964 -0.0150 -0.2231
 9610W        W26458   0.403   6.032   4.375  0.2304  0.1362  0.0390
 9611W        W26459   3.562   7.561   5.270  0.0761 -0.4562 -0.0064
 9612W        W26460   3.762   7.584  15.326 -0.0473  0.3760  0.0975
 9613W        W26461   9.132   7.973   1.354 -0.1697 -0.0340  0.0769
 9614W        W26462   5.905  12.573   4.017  0.0084  0.0321  0.2172
 9615W        W26463   3.015   4.233   2.193 -0.2632  0.0009  0.1134
 9616W        W26464  13.995  12.809  16.479 -0.2495 -0.0968 -0.0262
 9617W        W26465   0.920  10.698  13.496  0.0877 -0.0509  0.1505
 9618W        W26466   3.670  14.421  12.489  0.1394 -0.0614  0.0204
 9619W        W26467  12.359   7.596   0.809 -0.1876 -0.1838 -0.1387
 9620W        W26468   7.505  16.736   4.965 -0.1247 -0.1382  0.1703
 9621W        W26469  12.800  16.839   2.731 -0.0951  0.2170 -0.0515
 9622W        W26470  11.604   0.858   3.346  0.0290  0.0371  0.1940
 9623W        W26471   7.431  11.664  16.309  0.3132  0.2448 -0.0292
 9624W        W26472  14.050  14.588   3.968  0.0178 -0.1033  0.0405
 9625W        W26473   8.729  14.491   3.090  0.1807  0.0790 -0.2715
 9626W        W26474  15.775  16.048   6.024  0.0485 -0.2853  0.0348
 9627W        W26475   2.032  15.184  14.152 -0.0588  0.1162 -0.0572
 9628W        W26476   1.806   7.436   2.499 -0.1198  0.2032 -0.1625
 9629W        W26477  16.544   7.076  13.090  0.1809  0.2031 -0.1409
 9630W        W26478   4.747   7.440  14.301  0.2773  0.0122 -0.1881
 9631W        W26479   6.948   8.574  13.099  0.0492 -0.0305  0.0022
 9632W        W26480   8.147  13.265   2.507  0.0005 -0.1855  0.0057
 9633W        W26481  15.017  14.898   5.646  0.1014 -0.0508  0.0918
 9634W        W26482   9.401  17.453   4.111 -0.2144  0.0672  0.1627
 9635W        W26483   6.396   9.186   3.763  0.2081  0.0016 -0.1009
 9636W        W26484  11.164   3.243   5.449  0.1128  0.0201 -0.0586
 9637W        W26485  13.150  12.917  12.058 -0.1490 -0.2666 -0.1678
 9638W        W26486  11.245   3.702  15.077  0.3253  0.0005 -0.0628
 9639W        W26487   6.220   5.241  11.769  0.1352 -0.0074 -0.1542
 9640W        W26488   4.570  11.649  14.872  0.2865 -0.1417 -0.2155
 9641W        W26489  13.538   7.501  12.090  0.0458 -0.0962 -0.0853
 9642W        W26490  12.279   3.722   3.136  0.0832 -0.1443 -0.1295
 9643W        W26491   0.998   8.702  11.625 -0.0088 -0.3142 -0.0446
 9644W        W26492  13.262   2.995   4.996  0.0244  0.1305 -0.1596
 9645W        W26493   5.549  11.766  13.886 -0.1339  0.0691  0.0264
 9646W        W26494  10.399   4.111   4.327 -0.0827  0.0369 -0.1192
 9647W        W26495   0.818   8.075   4.043  0.1178  0.2046  0.1141
 9648W        W26496  10.765  12.424  13.354  0.1347 -0.2460  0.2080
 9649W        W26497  11.524  15.148   4.004 -0.2444  0.0571  0.1098
 9650W        W26498  16.374  12.283  11.047 -0.0067  0.2825 -0.2577
 9651W        W26499  13.485  11.378   1.130  0.2140 -0.0602 -0.0109
 9652W        W26500   7.735  15.741  15.158  0.2031  0.1425 -0.0629
 9653W        W26501  11.270   6.829  13.313  0.1138 -0.5827 -0.1102
 9654W        W26502   5.638  14.662   4.138  0.1008 -0.0267  0.1756
 9655W        W26503  11.932  16.633   2.982 -0.2501  0.2990 -0.0446
 9656W        W26504  11.901   3.116  13.714 -0.2638 -0.1590 -0.1374
 9657W        W26505  10.006   7.673   4.856 -0.2907 -0.0073  0.0546
 9658W        W26506  17.377  10.326   0.549  0.2414 -0.1800 -0.0775
 9659W        W26507  13.844  11.362   3.121 -0.3086  0.2293  0.0125
 9660W        W26508  14.142   5.118  14.322 -0.1430 -0.0093  0.0631
 9661W        W26509   1.555  11.933   5.368 -0.0902 -0.1130 -0.3671
 9662W        W26510  17.631  13.312  13.208 -0.1694  0.2886  0.2491
 9663W        W26511   1.219   9.125   3.613 -0.0574  0.2084 -0.0650
 9664W        W26512  16.499  12.612  13.806 -0.0334  0.0488 -0.0095
 9665W        W26513  13.983   2.932  13.902 -0.1806 -0.0406  0.0575
 9666W        W26514   2.133   9.113   2.119  0.1091 -0.0940  0.0719
 9667W        W26515  15.088  13.092   4.618  0.2140  0.1360 -0.1478
 9668W        W26516  17.505  17.041  15.555  0.1325 -0.0194 -0.1748
 9669W        W26517   4.240   8.033   4.022 -0.0811  0.2462 -0.3330
 9670W        W26518  17.459   5.486   5.293  0.2408 -0.1534  0.4346
 9671W        W26519   6.915  15.541  11.004  0.0200  0.1615 -0.0614
 9672W        W26520   3.995  11.746   4.356 -0.2601 -0.3614 -0.0050
 9673W        W26521  16.266  17.011   1.531 -0.0741 -0.1798 -0.3538
 9674W        W26522  16.357   9.002  13.713  0.1483 -0.0499  0.1677
 9675W        W26523  11.526  13.777   1.817 -0.0082  0.1897 -0.2475
 9676W        W26524   0.629   9.328  16.590  0.1512 -0.0458 -0.2432
 9677W        W26525  11.090   2.765  11.937 -0.2422 -0.1686  0.1105
 9678W        W26526   3.986   2.722  11.656 -0.1979 -0.0155 -0.0196
 9679W        W26527   3.864   8.019   0.365 -0.4081  0.0957  0.2256
 9680W        W26528  13.808  15.189  15.285  0.0665  0.0041  0.2748
 9681W        W26529   9.403   4.083   1.232 -0.1164 -0.0454  0.0606
 9682W        W26530  11.957   3.941   5.746  0.3303 -0.2754 -0.0522
 9683W        W26531  12.331   9.005   2.833 -0.0706  0.2505  0.3259
 9684W        W26532   6.675   8.556   4.706 -0.0017 -0.2830 -0.0429
 9685W        W26533  13.722   0.931   4.055  0.0519  0.2180  0.0361
 9686W        W26534  17.615   9.305  13.827  0.3040 -0.4058  0.1263
 9687W        W26535  17.393   9.108  11.884  0.1722  0.2253 -0.3312
 9688W        W26536  16.992  11.285   3.524 -0.2529  0.0068  0.1568
 9689W        W26537  13.117   3.438  13.764 -0.1073  0.2883  0.1284
 9690W        W26538   3.762   6.226  14.268  0.1808  0.2553  0.1736
 9691W        W26539   8.741   3.721   5.551 -0.0649 -0.3740  0.2560
 9692W        W26540   8.888   9.896  14.069  0.1161 -0.1755  0.1174
 9693W        W26541  16.110   9.947   0.133 -0.0923 -0.3359  0.0711
 9694W        W26542   4.866   5.573   3.234  0.1926 -0.0427  0.0100
 9695W        W26543   9.697   3.599  11.098 -0.0630  0.0777 -0.0586
 9696W        W26544   0.801  16.688  16.135 -0.0796 -0.0725  0.0250
 9697W        W26545   8.559   9.658   4.273 -0.0375 -0.1442 -0.0764
 9698W        W26546  17.609   1.085  13.793 -0.0367 -0.3554  0.1800
 9699W        W26547   5.994  10.718   5.033  0.1810  0.1385  0.1566
 9700W        W26548   1.128   7.319  12.492  0.1684  0.2708 -0.0712
 9701W        W26549  10.702   4.786  15.156 -0.3534 -0.0248 -0.2694
 9702W        W26550   0.731  14.386  14.060 -0.0718 -0.1982 -0.3845
 9703W        W26551   4.991   6.033  14.561  0.1520  0.1422  0.1801
 9704W        W26552  12.866   2.200   2.469  0.1022 -0.0902  0.0179
 9705W        W26553  12.222   4.551   0.289  0.1565 -0.1082  0.0143
 9706W        W26554   2.361   0.195  12.822  0.1842 -0.1268  0.1008
 9707W        W26555   3.446  17.157   2.789 -0.1496  0.1133  0.0441
 9708W        W26556   7.227  10.627   2.027 -0.0918  0.1121 -0.0606
 9709W        W26557   0.488   7.153  14.567 -0.0865 -0.0876  0.0452
 9710W        W26558   7.898   7.945   4.188 -0.0405 -0.0490  0.4730
 9711W        W26559  14.777   6.775   3.623  0.0440  0.2247 -0.1114
 9712W        W26560   4.234   8.279  12.828 -0.2047  0.0156  0.0220
 9713W        W26561   5.003  16.331   6.598 -0.0393 -0.0645  0.2580
 9714W        W26562  13.065   1.585  11.449  0.0423  0.1962 -0.2032
 9715W        W26563  17.533   3.890  16.610 -0.1414 -0.0168  0.2802
 9716W        W26564   1.690   3.654   2.999  0.1261 -0.1087  0.1839
 9717W        W26565  14.208   4.261  13.834  0.2870  0.0113  0.0797
 9718W        W26566  10.322   9.561   4.156 -0.1478 -0.0032 -0.1338
 9719W        W26567  15.568  13.492  16.444  0.0263  0.1056  0.1361
 9720W        W26568  17.683   2.967   2.156 -0.1107 -0.0689  0.0035
 9721W        W26569   1.971   9.057   1.607 -0.0368  0.2144  0.1271
 9722W        W26570   9.941   6.206   3.354  0.1063 -0.1129  0.0627
 9723W        W26571   3.351   2.462   1.561 -0.0559  0.1147  0.0061
 9724W        W26572   0.855   6.685   1.979 -0.2075  0.0049  0.0819
 9725W        W26573  10.439  11.347  14.913  0.1886  0.1652 -0.2972
 9726W        W26574   3.393  14.608  12.056  0.1054 -0.1605 -0.2559
 9727W        W26575  16.022   7.837   3.970  0.2113  0.0865  0.1327
 9728W        W26576   9.223   9.359   3.286 -0.1939  0.0182  0.0634
 9729W        W26577   2.839   1.118   5.220 -0.1175  0.0196  0.1114
 9730W        W26578   8.274   1.714   3.388 -0.0278 -0.2316  0.1074
 9731W        W26579  17.040  12.638  15.812 -0.0470  0.0935 -0.0066
 9732W        W26580   8.741  15.670   1.025 -0.1525  0.0933  0.2409
 9733W        W26581  17.249   6.342  12.620 -0.1775 -0.2898  0.0649
 9734W        W26582   9.926   0.358   3.203  0.3484  0.2209 -0.0235
 9735W        W26583  13.136   9.338   1.159  0.0953 -0.3080 -0.0490
 9736W        W26584  12.944  15.602  15.437 -0.1464  0.2260 -0.0707
 9737W        W26585  11.548   6.750  13.753  0.2359  0.4561 -0.0271
 9738W        W26586  11.706  14.373   2.343 -0.1355 -0.1938  0.0428
 9739W        W26587  13.781  15.325   0.392 -0.3878  0.1954 -0.1778
 9740W        W26588  16.902  10.814   0.307 -0.1786  0.2863  0.3236
 9741W        W26589   8.411   7.769   5.292 -0.0294 -0.0659 -0.0743
 9742W        W26590   6.813   0.665   5.190 -0.2646 -0.3952 -0.0295
 9743W        W26591   7.764   7.878  16.252 -0.0631  0.0634  0.1540
 9744W        W26592   7.767   5.923   3.246 -0.0798 -0.1014  0.1829
 9745W        W26593   3.418   3.287  15.625 -0.0573 -0.1928  0.2111
 9746W        W26594  16.422   6.341  11.576 -0.1278  0.1635 -0.1191
 9747W        W26595   5.299   1.643  14.810  0.0987  0.1470 -0.2370
 9748W        W26596  13.723  15.815  15.466  0.2351  0.0766  0.1603
 9749W        W26597   7.087   7.855  11.425  0.0671  0.0056 -0.0387
 9750W        W26598   6.973  13.488  13.932 -0.3395  0.2079 -0.1673
 9751W        W26599   6.359   0.004  14.726 -0.2850 -0.0557  0.2452
 9752W        W26600   8.718   0.850   3.371  0.0114  0.0582  0.1114
 9753W        W26601  14.055  13.726   4.824 -0.2707  0.2628  0.2093
 9754W        W26602   5.276   3.805   3.652 -0.0995 -0.0650  0.2512
 9755W        W26603   7.778  13.843  13.678 -0.0373  0.0477 -0.1034
 9756W        W26604   0.335  17.123  14.899 -0.2927  0.4557  0.1316
 9757W        W26605   3.202   3.116   1.941  0.1464 -0.1174  0.0983
 9758W        W26606   7.969  10.547   4.761 -0.1119 -0.0598  0.0511
 9759W        W26607  12.916  16.386   0.788  0.0828  0.3001 -0.2460
 9760W        W26608   8.181  13.813   4.000 -0.0352 -0.2338 -0.1886
 9761W        W26609   5.269   8.926   3.976 -0.3098 -0.0787 -0.0582
 9762W        W26610   1.407   4.440  15.760 -0.2298 -0.3928 -0.1306
 9763W        W26611   8.185   8.071  13.986 -0.1209  0.1318 -0.0741
 9764W        W26612  17.469   2.520   5.209 -0.2329 -0.1858  0.3305
 9765W        W26613  13.579  14.028  12.161  0.1512 -0.0990 -0.0411
 9766W        W26614   3.279   8.608   0.068  0.0597  0.2632  0.0237
 9767W        W26615   1.434   3.625  12.981 -0.0260 -0.2382 -0.1238
 9768W        W26616   0.387   8.954  14.989  0.1399  0.1520 -0.1229
 9769W        W26617  17.359   4.953   5.980  0.1530 -0.3099  0.1108
 9770W        W26618   7.959   5.757  15.072 -0.1435  0.4096  0.5530
 9771W        W26619   9.396  15.872  11.501  0.0343  0.1212  0.1547
 9772W        W26620  11.773   8.875  14.664 -0.0474 -0.0114  0.0927
 9773W        W26621  13.358   5.764   4.984  0.4052  0.0815 -0.0389
 9774W        W26622  12.936  14.504  14.581  0.1799  0.0398  0.1319
 9775W        W26623   9.085   4.638  14.960 -0.0756  0.0004  0.0835
 9776W        W26624   9.491  11.273  16.522 -0.0775 -0.3347 -0.1151
 9777W        W26625   1.015  13.202  15.700  0.0321  0.1053  0.0094
 9778W        W26626   3.722   0.597  12.642 -0.1233  0.0157 -0.1011
 9779W        W26627  12.338  10.026  11.379  0.4311 -0.0915 -0.1334
 9780W        W26628  14.110   8.594  16.592  0.2550 -0.0710  0.1614
 9781W        W26629  14.619  16.897  12.087  0.1532  0.1623  0.1910
 9782W        W26630   2.066   0.722  16.089 -0.0496 -0.0291  0.3168
 9783W        W26631   4.393   6.209  12.220 -0.0319  0.2051 -0.0163
 9784W        W26632  10.268   8.814   1.094  0.0802  0.0449  0.1809
 9785W        W26633  16.072   7.342  14.655 -0.0105  0.0870  0.0769
 9786W        W26634   8.978   1.045   0.468  0.3530  0.0355 -0.1561
 9787W        W26635   3.162  16.635  13.047 -0.0718  0.2795 -0.0788
 9788W        W26636   4.953  14.880   2.684 -0.1427  0.0490 -0.1830
 9789W        W26637  11.551   8.494  13.511 -0.3774 -0.0451 -0.2716
 9790W        W26638   3.520  16.006  12.738 -0.1297 -0.2132  0.1011
 9791W        W26639  15.872   3.955   4.026  0.0237  0.1287  0.2262
 9792W        W26640  15.578   5.594   3.759 -0.4121  0.0966 -0.1059
 9793W        W26641   7.845   9.160  12.428  0.2773 -0.2386  0.1656
 9794W        W26642  14.066  10.443  15.085 -0.1710 -0.2444  0.0070
 9795W        W26643   0.590  11.692   2.741  0.0359 -0.2143 -0.2522
 9796W        W26644  16.392   5.222  12.295  0.0026 -0.2209  0.0462
 9797W        W26645   7.698  13.182  13.187  0.2001  0.0182  0.1858
 9798W        W26646   9.788  13.057   3.320  0.1745 -0.0432 -0.1039
 9799W        W26647   4.932   8.694   4.370 -0.3828 -0.0008 -0.1731
 9800W        W26648  12.347  14.099  11.383 -0.1780 -0.0414 -0.1172
 9801W        W26649  15.297  15.076   4.626 -0.2672  0.3161 -0.1620
 9802W        W26650   1.152  15.740   4.763  0.2915 -0.3020 -0.0309
 9803W        W26651   7.284  10.116  12.693  0.0017  0.2708  0.0439
 9804W        W26652  10.336   1.859   1.117 -0.0550 -0.0957  0.2129
 9805W        W26653   9.198  11.838   2.464  0.0461 -0.0414 -0.0099
 9806W        W26654  11.967  17.666   1.294 -0.0202 -0.3962  0.1231
 9807W        W26655   5.605  16.249  16.095  0.2093  0.0211  0.1909
 9808W        W26656  16.212   7.984   4.800 -0.0522 -0.0333 -0.1803
 9809W        W26657   5.701  14.087  14.896  0.1682  0.2498 -0.3133
 9810W        W26658   8.691  12.039   5.078  0.1471 -0.0802 -0.1618
 9811W        W26659  17.528  16.015   3.670 -0.0247 -0.0121 -0.2249
 9812W        W26660  14.645   8.345  16.454  0.3799  0.1961 -0.1769
 9813W        W26661   9.794  17.441   0.974  0.1398  0.0253  0.0887
 9814W        W26662   0.106   8.126  13.820  0.0329 -0.3475  0.2135
 9815W        W26663  10.354  15.850  16.089  0.0220 -0.1026  0.0012
 9816W        W26664   1.897   8.548   3.826 -0.2151 -0.0774  0.0518
 9817W        W26665   5.692  13.536   3.757 -0.0015  0.0923 -0.2328
 9818W        W26666  16.243  14.752  12.848  0.1450  0.1763  0.0930
 9819W        W26667  12.383  11.187   2.130 -0.0249 -0.0994 -0.1218
 9820W        W26668  16.157   2.333  14.413 -0.1628  0.2160 -0.1104
 9821W        W26669  12.182  15.489   0.775  0.1496 -0.0648  0.1951
 9822W        W26670   4.056   9.259  11.896 -0.0862  0.0084  0.1460
 9823W        W26671  15.361   4.937  11.388 -0.1752 -0.0766 -0.1039
 9824W        W26672  14.335  10.426  14.598  0.1076 -0.2562  0.1080
 9825W        W26673  12.124   0.399   1.478  0.0496  0.1596  0.1940
 9826W        W26674  14.186  16.494   5.880  0.2960 -0.0271 -0.1051
 9827W        W26675  16.938   9.117  11.671 -0.1114 -0.1169 -0.1636
 9828W        W26676   2.707  10.410  10.598  0.2994  0.0575 -0.1212
 9829W        W26677  14.133   5.450  16.157 -0.2161 -0.2610 -0.1308
 9830W        W26678  12.985   1.899  16.249  0.0502  0.2116  0.0313
 9831W        W26679   5.098  17.349   0.627 -0.0511  0.2376  0.3966
 9832W        W26680  10.105   3.453  13.176  0.0242  0.2359 -0.1694
 9833W        W26681   2.023  16.690   3.126 -0.0372 -0.0786  0.2304
 9834W        W26682   9.025   5.570   0.383  0.3279  0.1288  0.1339
 9835W        W26683  13.017   6.870  15.801 -0.1991 -0.0997 -0.0545
 9836W        W26684   5.435   1.233  13.730  0.1850 -0.1002 -0.2193
 9837W        W26685   9.876   2.013  13.192  0.0005  0.0807  0.2777
 9838W        W26686  10.404  15.961  13.351 -0.1525  0.2570  0.0643
 9839W        W26687  11.757   0.979  16.302  0.0880 -0.0976 -0.2378
 9840W        W26688   5.986  11.217   0.227 -0.0285  0.3494  0.0446
 9841W        W26689  15.959   9.818   4.028 -0.0089  0.0263  0.0899
 9842W        W26690  11.102   3.937   0.312 -0.2855  0.0929  0.1997
 9843W        W26691   2.942   5.933  16.350  0.1435  0.1887  0.2723
 9844W        W26692   2.763   6.372   5.251 -0.1068  0.1295  0.1089
 9845W        W26693   8.613   3.920   2.824 -0.0927 -0.0118 -0.1963
 9846W        W26694  17.661   3.894   2.826 -0.1308  0.3302  0.0600
 9847W        W26695  13.559   5.396  11.464  0.1535 -0.0943  0.0625
 9848W        W26696  13.295   4.478  15.423 -0.0496  0.1211  0.0167
 9849W        W26697  16.292  14.897  15.262  0.0983  0.0505  0.2362
 9850W        W26698  13.366   9.000   1.466  0.3825  0.1095  0.3065
 9851W        W26699  12.096   9.662   3.073 -0.1013 -0.0900  0.0892
 9852W        W26700  12.632  11.064   4.921  0.0206 -0.3225 -0.2386
 9853W        W26701   4.927   0.282  13.941 -0.2430 -0.1450 -0.2040
 9854W        W26702   0.927   8.689  15.705 -0.0389 -0.0480  0.1494
 9855W        W26703  16.888   1.839  15.942  0.2953  0.0044 -0.3223
 9856W        W26704   7.743   3.001  11.172  0.0704 -0.1483  0.0984
 9857W        W26705   8.260  16.659   2.952  0.1148  0.0991  0.0450
 9858W        W26706   8.536   5.174  12.509 -0.0593  0.1705  0.0070
 9859W        W26707  11.061   4.201   4.978 -0.1473  0.0629 -0.2390
 9860W        W26708  14.378   7.978   1.662 -0.0049 -0.0943 -0.0747
 9861W        W26709  12.980   6.205  16.146  0.0915 -0.1799  0.0854
 9862W        W26710   1.056  10.579   3.048 -0.1658 -0.0505  0.2411
 9863W        W26711   6.242   0.655  11.594 -0.0361  0.2248 -0.0378
 9864W        W26712  13.883  14.589   1.329  0.1085 -0.0225 -0.1507
 9865W        W26713   3.334  11.462  13.400 -0.1469 -0.0383 -0.2922
 9866W        W26714  12.007   6.992  12.711  0.0987  0.0400  0.1198
 9867W        W26715   1.989  16.284   2.142 -0.1106 -0.0665  0.0323
 9868W        W26716  11.078  16.149  14.597  0.2156 -0.3377  0.0300
 9869W        W26717  13.872   5.321   1.309 -0.0459 -0.0158 -0.0939
 9870W        W26718   7.640   0.992   3.315  0.0288 -0.0729  0.2411
 9871W        W26719  12.834  12.223   5.024  0.1359 -0.0837  0.0767
 9872W        W26720  13.404  13.214  16.108 -0.1029  0.1259 -0.0143
 9873W        W26721  11.566   0.227  12.854  0.2198  0.0916 -0.2588
 9874W        W26722  11.043   9.994  14.670  0.0216  0.0822  0.2520
 9875W        W26723  13.116   8.805   3.296  0.2070  0.0657 -0.0031
 9876W        W26724   3.790  14.458   4.378 -0.1178 -0.1313  0.1421
 9877W        W26725  12.175  10.960  12.401  0.1707  0.0903  0.0934
 9878W        W26726  12.999   4.274   3.275 -0.2225 -0.0125 -0.0197
 9879W        W26727  17.210  14.297   3.928 -0.0583  0.2161 -0.2265
 9880W        W26728  10.629  10.523  15.440  0.0552  0.0407 -0.0524
 9881W        W26729   2.628   0.727   4.307 -0.1138 -0.1140  0.0003
 9882W        W26730  17.646   8.959   2.806  0.1299 -0.0974  0.0746
 9883W        W26731   7.664  12.908   0.006 -0.1348  0.0033  0.0427
 9884W        W26732   0.117   5.130   5.328  0.2141 -0.1318  0.0848
 9885W        W26733   0.826  13.872  13.895 -0.1763  0.2021  0.2456
 9886W        W26734   7.594  15.091  13.954  0.0826  0.0719  0.0745
 9887W        W26735   0.242   4.272  13.103  0.1283 -0.2932  0.1453
 9888W        W26736   2.675  11.609   1.637  0.0356 -0.3794 -0.0601
 9889W        W26737  10.347   9.848  16.143 -0.1801 -0.1094 -0.1887
 9890W        W26738  11.529  14.520  15.339 -0.0896  0.2215 -0.1034
 9891W        W26739  13.515   8.379   0.862 -0.1884  0.2131  0.3475
 9892W        W26740   3.752  10.787   6.233 -0.1664 -0.0606 -0.0355
 9893W        W26741  13.539   5.019  15.973 -0.0472 -0.0533  0.0167
 9894W        W26742   6.692  11.717   0.574  0.0454 -0.0347  0.2201
 9895W        W26743  15.084   3.065   0.728  0.1548  0.0568 -0.0992
 9896W        W26744  12.024  15.578  12.200 -0.1800 -0.2875  0.2167
 9897W        W26745  12.401   1.394   2.345  0.1564  0.0277 -0.1232
 9898W        W26746  15.511  17.071   1.017 -0.0401  0.3473  0.0432
 9899W        W26747   5.254  17.134   5.354  0.1075 -0.3575 -0.0004
 9900W        W26748   4.613   1.540  11.649  0.1953 -0.1332  0.1426
 9901W        W26749  16.809  15.553   3.905  0.0074  0.0492  0.0839
 9902W        W26750  16.388   4.165  13.155 -0.4505 -0.3217  0.3064
 9903W        W26751  12.568  15.395   1.163  0.0434 -0.1161  0.0355
 9904W        W26752  17.648  13.807   3.085  0.0367 -0.0732 -0.2333
 9905W        W26753  12.264   7.005  13.436  0.2784  0.0017 -0.2163
 9906W        W26754   6.889   1.647  15.231  0.0236 -0.0229 -0.0510
 9907W        W26755   7.083   2.568   2.197 -0.0345  0.1370 -0.0390
 9908W        W26756  16.706   5.735  14.902 -0.0023  0.1046 -0.2264
 9909W        W26757  16.090   0.929  15.341  0.1025  0.2143  0.1818
 9910W        W26758  17.187   5.207   0.296  0.1161 -0.0158 -0.0537
 9911W        W26759   2.813  10.809  10.852  0.0475 -0.0622 -0.1471
 9912W        W26760   1.720  16.284  13.398 -0.0106 -0.0327  0.0760
 9913W        W26761  14.929   8.897   2.646 -0.1239  0.0487 -0.0764
 9914W        W26762  17.518   2.766   1.362  0.0963  0.3055  0.1078
 9915W        W26763  10.979   2.833  16.131  0.0005 -0.2571  0.4086
 9916W        W26764   0.311   8.249  16.244  0.1631 -0.0668  0.1834
 9917W        W26765   9.750   8.228  14.718 -0.1986  0.0039  0.0139
 9918W        W26766   0.788  16.359  12.906 -0.1048  0.0876 -0.0106
 9919W        W26767  17.345   0.686  13.833  0.0363  0.3318  0.1959
 9920W        W26768   0.594   3.936   1.476 -0.2011  0.1113 -0.1520
 9921W        W26769  16.925   6.233  14.866 -0.1023 -0.1344  0.3644
 9922W        W26770   3.539   1.394   3.225 -0.0997 -0.4175  0.1307
 9923W        W26771   8.250  13.620   1.716 -0.1312  0.2806  0.2617
 9924W        W26772   1.440  13.465  11.720  0.0430 -0.1441  0.2196
 9925W        W26773   5.984   9.125   0.843  0.0925  0.0892  0.2175
 9926W        W26774   0.225  10.789  11.051 -0.0872 -0.1944  0.1397
 9927W        W26775  13.433   6.300   2.366  0.1059  0.2186  0.1303
 9928W        W26776   1.091  13.520   4.374 -0.0163  0.2075  0.0402
 9929W        W26777  14.778   7.974   2.814  0.0205 -0.2710  0.0171
 9930W        W26778  11.305   3.645  16.484 -0.0611  0.1085 -0.0868
 9931W        W26779   2.783  11.579  16.215 -0.1021 -0.2672  0.2745
 9932W        W26780  17.371   5.425   3.354 -0.0999 -0.0388  0.0976
 9933W        W26781  10.528  10.801   3.401 -0.0859 -0.1616 -0.0209
 9934W        W26782  14.330   6.036   3.246 -0.3620 -0.3810 -0.0524
 9935W        W26783  13.772   0.253   5.073 -0.1567 -0.4659 -0.0627
 9936W        W26784  12.692   9.781  13.014  0.0119 -0.2221 -0.1634
 9937W        W26785  11.419  15.131   1.147  0.5182 -0.0008 -0.0424
 9938W        W26786  10.366  13.228   5.593 -0.0321  0.1677 -0.0939
 9939W        W26787  12.137   3.872   2.054 -0.2155 -0.1647 -0.0223
 9940W        W26788   2.653  15.427  11.333  0.2546  0.2391 -0.1400
 9941W        W26789   9.161   2.842  11.408 -0.2652 -0.0793 -0.0496
 9942W        W26790  16.658   6.281  12.505 -0.0727  0.0199 -0.0391
 9943W        W26791   7.589  11.210   2.843  0.0569 -0.2184 -0.0763
 9944W        W26792  13.596  13.901   0.676 -0.1490  0.1896 -0.0832
 9945W        W26793   9.719   8.718   1.840  0.0624  0.0505  0.1117
 9946W        W26794  13.463   6.443  15.314  0.0499 -0.3596  0.2103
 9947W        W26795   3.580   1.832   3.074 -0.4209  0.0124  0.4514
 9948W        W26796   1.997  12.840  11.292  0.0590  0.0091  0.0332
 9949W        W26797   4.310   5.383  10.711  0.3021 -0.0555 -0.2853
 9950W        W26798   1.853   3.678  11.818  0.1837  0.0499 -0.0730
 9951W        W26799  10.083  11.388   4.867 -0.0406 -0.2856  0.1557
 9952W        W26800  16.594   3.921   4.691 -0.2040 -0.1459  0.0350
 9953W        W26801  14.307   6.424   3.492 -0.0824  0.3532 -0.0676
 9954W        W26802  11.108   4.138  13.028 -0.4605 -0.1511  0.1476
 9955W        W26803   3.842  16.945   1.388 -0.1444 -0.2263 -0.0550
 9956W        W26804  10.779   5.900   4.707 -0.0349  0.3855 -0.2382
 9957W        W26805   3.599   6.603  13.902 -0.1151 -0.1871  0.1728
 9958W        W26806   0.380   4.371   2.164  0.2760  0.2458 -0.1422
 9959W        W26807  13.555  14.350  15.559 -0.4038  0.0263 -0.0653
 9960W        W26808  11.032   0.914   1.312 -0.1610  0.1903 -0.0425
 9961W        W26809  15.823  13.962  16.548  0.0628  0.0615  0.2295
 9962W        W26810   5.812   3.566   0.131 -0.0360 -0.3116  0.0893
 9963W        W26811  16.281   0.920   0.434 -0.3888  0.0407  0.0301
 9964W        W26812  16.086  11.959  14.306  0.0160 -0.1449 -0.0721
 9965W        W26813  10.253  12.930  15.135 -0.0007  0.1650 -0.2670
 9966W        W26814  10.699   9.311   4.325  0.0137  0.1377  0.1155
 9967W        W26815   3.525   9.055  11.959  0.0819 -0.1114 -0.0225
 9968W        W26816   4.085  12.827  13.250  0.0908 -0.2223  0.2643
 9969W        W26817   7.832  17.248   4.340  0.4318 -0.1032  0.1415
 9970W        W26818  17.156  11.576   3.146  0.2570  0.1876 -0.1326
 9971W        W26819   7.479   4.841  16.618  0.1034  0.2143 -0.0839
 9972W        W26820  15.837   6.740  15.751  0.3289 -0.0327 -0.1288
 9973W        W26821   0.731   2.053   2.946  0.0984  0.1100  0.0277
 9974W        W26822   3.326  15.022   3.092 -0.0523 -0.1026  0.2363
 9975W        W26823  12.721  11.263   2.521  0.0205  0.1159  0.0940
 9976W        W26824   3.404   9.534  14.795  0.0432 -0.0469  0.2624
 9977W        W26825   9.725  16.846   0.203  0.1141 -0.1233 -0.1664
 9978W        W26826   4.509   5.420  15.160  0.1724 -0.0414 -0.3405
 9979W        W26827  12.449   5.944  14.036 -0.0500 -0.1349  0.0772
 9980W        W26828   9.558   8.022  11.352  0.1052 -0.1549  0.2934
 9981W        W26829  11.765   9.248   0.872  0.0212 -0.4066  0.0258
 9982W        W26830  17.371  11.258   1.141 -0.0237  0.1943  0.1242
 9983W        W26831   4.760  11.578   1.930  0.0489 -0.0984  0.1063
 9984W        W26832  16.986   6.431   2.026 -0.1851 -0.0245  0.3830
 9985W        W26833  15.368   1.034  14.270  0.3268  0.2287 -0.1197
 9986W        W26834   7.631  15.565   3.071  0.1286  0.2122 -0.3311
 9987W        W26835  11.636  13.864  14.779 -0.2182  0.0078 -0.0007
 9988W        W26836   6.399   9.120  11.351 -0.3221  0.3863  0.0804
 9989W        W26837  10.356  12.399   5.059  0.2290  0.3140 -0.1382
 9990W        W26838   9.027   8.673   4.346  0.0739 -0.3143 -0.0559
 9991W        W26839   7.168  17.409  14.718 -0.1543 -0.0658 -0.0703
 9992W        W26840  11.588   9.545  13.987 -0.1108 -0.1910  0.2234
 9993W        W26841   7.118  14.215  16.395  0.1691 -0.1929 -0.0610
 9994W        W26842   1.222  14.087   0.765 -0.0655  0.0899  0.2132
 9995W        W26843  17.615   8.651   4.723 -0.2112 -0.1925 -0.1142
 9996W        W26844   1.232   9.413  15.414  0.0795  0.1100  0.1114
 9997W        W26845  11.648  15.985   2.446  0.1245  0.1702 -0.0340
 9998W        W26846  11.077  17.620  15.389  0.2182  0.1532 -0.1535
 9999W        W26847  16.068   4.914  13.745  0.1736  0.3061  0.0454
10000W        W26848  13.475  11.741  12.485  0.0109 -0.0568  0.0920
10001W        W26849   1.859   8.755  13.180  0.0307 -0.3199  0.1993
10002W        W26850  13.990   7.666  11.727 -0.2643 -0.2446  0.1685
10003W        W26851  16.523  17.380  14.631 -0.0364  0.1026  0.0284
10004W        W26852   6.627  11.161   2.552  0.0504  0.2208  0.0260
10005W        W26853   8.275  14.149   2.694  0.1420  0.0650  0.0422
10006W        W26854  13.824  15.735  11.706 -0.2029 -0.0074  0.1038
10007W        W26855  11.690  17.388  14.123 -0.1359 -0.1793 -0.0668
10008W        W26856  12.100   9.324   0.522 -0.0595 -0.1785 -0.0242
10009W        W26857  15.747   7.410   0.233 -0.2560  0.0312  0.4602
10010W        W26858  15.333   6.903   4.420  0.1340  0.1819  0.1645
10011W        W26859  12.924  11.459  14.698 -0.1437 -0.1859  0.0909
10012W        W26860   1.956   9.669  14.904  0.0768  0.2805  0.0391
10013W        W26861   0.396  10.468   4.665  0.0020 -0.0246 -0.0648
10014W        W26862   9.019  12.004   0.418 -0.1130 -0.2904  0.3576
10015W        W26863  15.026   2.248  15.467 -0.0840  0.1023  0.1281
10016W        W26864  16.108   5.959  15.677  0.1600  0.1778 -0.1755
10017W        W26865   0.862   2.183   2.267  0.2502 -0.0856 -0.3698
10018W        W26866   0.149  10.934  11.829 -0.1362 -0.3788  0.0930
10019W        W26867   0.839  10.652  14.578 -0.1536 -0.0694  0.0927
10020W        W26868  17.455  10.122  14.549  0.1824  0.0466 -0.2426
10021W        W26869   1.559  12.938   3.578 -0.3368  0.1261 -0.2136
10022W        W26870   0.400   4.899   3.802 -0.1141 -0.1387  0.0535
10023W        W26871  10.928  15.302   2.909  0.1610 -0.0766  0.3810
10024W        W26872   7.994  15.136  13.112 -0.0346 -0.0002 -0.0990
10025W        W26873  17.295  15.634   1.099  0.1450 -0.0665 -0.0057
10026W        W26874   5.691   7.173  14.470 -0.1649  0.1689 -0.1151
10027W        W26875   3.889   7.284   1.746  0.0430 -0.0460  0.2134
10028W        W26876  12.682   0.719   4.420  0.0344  0.4387  0.1660
10029W        W26877   8.635   3.159   5.460  0.0876 -0.1919 -0.3367
10030W        W26878   6.518   3.327  13.312 -0.4438 -0.1288  0.0862
10031W        W26879  15.461  17.647  14.298 -0.1100  0.1111 -0.0758
10032W        W26880  17.326   5.867   0.691  0.0387  0.0670 -0.0709
10033W        W26881  14.678  11.815  15.850 -0.0469 -0.1933  0.1624
10034W        W26882  15.463   8.221  12.910  0.2680  0.0203  0.1045
10035W        W26883  10.852   8.383   3.358 -0.4290 -0.0354 -0.1462
10036W        W26884   6.584   4.502  13.608  0.0342 -0.0880 -0.1272
10037W        W26885   2.011  17.483   0.311  0.0778  0.1757 -0.0388
10038W        W26886  14.894   8.972  16.439 -0.0193 -0.3365  0.0398
10039W        W26887   3.703  11.753  14.857 -0.1955  0.0850  0.0951
10040W        W26888  13.497  16.687   2.033  0.1338 -0.0368 -0.1537
10041W        W26889   9.568   5.321   3.136  0.0880 -0.1598  0.1909
10042W        W26890   2.452  12.429  14.991  0.2761  0.0179 -0.1093
10043W        W26891  13.748   7.779  13.732 -0.1341  0.1704 -0.2210
10044W        W26892  13.370   0.583   0.288 -0.0622 -0.1217 -0.0408
10045W        W26893  17.187   5.103   1.676 -0.1124 -0.0588  0.0712
10046W        W26894   0.642   5.868   4.770 -0.0927 -0.1896  0.0301
10047W        W26895   5.089   6.480   1.276 -0.1676 -0.0169  0.4503
10048W        W26896  12.667  14.103  14.408  0.0368  0.1257 -0.2705
10049W        W26897   3.173  13.273  14.814 -0.1074  0.0720 -0.0054
10050W        W26898  13.929   9.563  13.108 -0.0755 -0.0603  0.0215
10051W        W26899   3.791   9.697  15.084  0.2291  0.1140 -0.0280
10052W        W26900   9.409   9.058  15.179 -0.0678 -0.1479  0.1992
10053W        W26901   7.459   5.095   3.789 -0.0173  0.3635 -0.0202
10054W        W26902   5.335  11.778   3.141 -0.0964 -0.0084  0.0018
10055W        W26903  12.997   0.719   4.798  0.0974 -0.2278 -0.1417
10056W        W26904   0.364   4.414  13.605 -0.0608 -0.1585 -0.0767
10057W        W26905  16.064  12.294  15.858  0.1443  0.0220  0.1955
10058W        W26906  16.011  15.913   3.813  0.1253 -0.0767  0.3139
10059W        W26907  11.431  10.213   4.679  0.0535 -0.1568 -0.1448
10060W        W26908  10.073   5.965   4.190 -0.0610  0.0483  0.0948
10061W        W26909   1.937   6.502   4.966 -0.0344  0.2493  0.1264
10062W        W26910  15.311  14.867  12.782 -0.0240  0.1798 -0.2467
10063W        W26911   3.904   4.505   1.996  0.3404  0.1082 -0.2004
10064W        W26912   8.012   2.655  15.713 -0.0667  0.1141 -0.5595
10065W        W26913   6.693  16.995   2.249 -0.2366 -0.2940  0.1427
10066W        W26914   0.580   4.529   0.151  0.0797 -0.3858 -0.0014
10067W        W26915   3.249   7.174   0.255  0.1547 -0.0304 -0.0219
10068W        W26916  10.725  16.058   1.477 -0.1613  0.1192 -0.0030
10069W        W26917   3.120   5.159  12.302  0.0630  0.0264  0.1915
10070W        W26918  15.657  13.770   4.259 -0.0346  0.2588  0.0520
10071W        W26919  14.792   4.251   5.245  0.2227 -0.2531  0.3962
10072W        W26920  12.699   5.047  14.629 -0.0789 -0.0608  0.1157
10073W        W26921  12.502   7.720   3.692 -0.1612  0.0688 -0.2264
10074W        W26922   5.734   4.929   0.185 -0.1586  0.0734  0.2058
10075W        W26923   7.670   9.727  16.622 -0.1713 -0.1586  0.1264
10076W        W26924   6.377  14.023   1.187 -0.0753  0.1046  0.2631
10077W        W26925   5.507   5.413   4.392  0.3176 -0.0186  0.2761
10078W        W26926  10.911   2.051  15.572 -0.4097 -0.3106 -0.1025
10079W        W26927   6.354   0.091  16.257  0.1957  0.0309  0.1544
10080W        W26928   2.580  12.557  11.182 -0.1111  0.0755 -0.2513
10081W        W26929   5.606   1.594   5.518 -0.1540  0.0835 -0.0050
10082W        W26930   2.660   0.414   2.121  0.0132  0.0877  0.2650
10083W        W26931  15.245   0.677   0.403  0.0509 -0.4464 -0.1358
10084W        W26932  15.183  12.964   0.096 -0.2617  0.1257 -0.1183
10085W        W26933  13.652   1.639   1.912  0.3829 -0.0923  0.1573
10086W        W26934  10.572   7.337  15.295  0.0535  0.0354  0.1003
10087W        W26935  13.744  15.212   0.921  0.1683 -0.3275  0.0595
10088W        W26936   5.996   7.842  12.381 -0.0807 -0.0296 -0.0549
10089W        W26937   1.169  14.304  13.719 -0.1081  0.0369  0.0077
10090W        W26938  11.523  13.671  12.592  0.3464 -0.0924 -0.0481
10091W        W26939   1.567   0.445  13.167  0.2880 -0.1506 -0.3068
10092W        W26940   0.186  13.003  10.390 -0.1617  0.0315  0.0007
10093W        W26941   3.143  16.190   3.985  0.0820 -0.1308 -0.1613
10094W        W26942   7.795   3.270  11.782  0.0885  0.2575 -0.0394
10095W        W26943   4.491   6.944   4.481 -0.1357  0.0943 -0.2703
10096W        W26944  10.918   6.843   2.757  0.2413 -0.0145  0.1506
10097W        W26945  14.846   7.775   4.954 -0.0828 -0.0434  0.2213
10098W        W26946  12.237   9.248   2.133  0.0011  0.1064 -0.0345
10099W        W26947  15.303  17.677   0.347  0.0961  0.2649 -0.0728
10100W        W26948  12.171  14.319  16.038  0.0024 -0.2236 -0.2781
10101W        W26949   4.464  15.259   1.066 -0.2033  0.2749 -0.2962
10102W        W26950   3.988  12.177   1.584 -0.0776  0.2737  0.0859
10103W        W26951   9.065  10.532  12.812  0.1585 -0.0824 -0.1315
10104W        W26952   6.042   0.813   4.828 -0.0465 -0.2150  0.1704
10105W        W26953   2.343  11.104  14.754  0.0144  0.2077 -0.3804
10106W        W26954   5.848  16.373  11.936  0.1639 -0.1910  0.0048
10107W        W26955   1.568   5.591  12.536  0.0951  0.2021  0.0779
10108W        W26956   2.565   1.597  12.787  0.1488 -0.1961 -0.1166
10109W        W26957  12.885  10.647   3.821 -0.0732  0.0832  0.0441
10110W        W26958   9.039  11.130   3.074 -0.4735 -0.0578 -0.0706
10111W        W26959  12.019  11.934  13.105  0.0290  0.2867  0.2693
10112W        W26960  15.289  15.107   5.156 -0.0112  0.0654 -0.0047
10113W        W26961   2.145   5.340  15.791 -0.1352  0.1187  0.1677
10114W        W26962   6.105   3.331   0.920 -0.0646 -0.0942  0.1201
10115W        W26963   9.491   0.835  12.026 -0.5149 -0.1525  0.1598
10116W        W26964   3.302  13.652   0.313 -0.4146 -0.0311 -0.0498
10117W        W26965  15.202  11.472   0.361 -0.2007  0.0285 -0.1817
10118W        W26966   9.032  12.924  15.767 -0.0821  0.1219  0.2704
10119W        W26967   3.809  14.607  13.375 -0.0787 -0.2324  0.0881
10120W        W26968   2.978   7.387  12.814  0.0488  0.2479 -0.1979
10121W        W26969   3.777  13.307  13.174 -0.0892 -0.4000  0.1057
10122W        W26970  16.994   3.280  12.045 -0.2074 -0.2809 -0.1039
10123W        W26971   5.995   9.949  11.532 -0.1884  0.0907  0.0599
10124W        W26972  11.293  16.622  13.973  0.2516 -0.0747 -0.2741
10125W        W26973   2.086   1.401  12.418  0.0047 -0.1016  0.0523
10126W        W26974  17.406  11.070   3.152 -0.0160  0.1788  0.0756
10127W        W26975  13.114   1.427   3.444  0.0142  0.0677 -0.2248
10128W        W26976  17.364   5.046  15.551  0.0793 -0.1056 -0.4517
10129W        W26977   0.827  12.477  11.901 -0.0181  0.1396 -0.0105
10130W        W26978  17.286   4.924   3.328 -0.1658 -0.0589  0.0744
10131W        W26979  12.726   5.817   1.281 -0.2699  0.3317  0.0138
10132W        W26980   7.764   8.644  11.729 -0.0861  0.0176  0.2846
10133W        W26981  17.609   8.894  15.688 -0.2088 -0.1426 -0.0425
10134W        W26982   3.288  17.548  12.615 -0.0076 -0.0424  0.4305
10135W        W26983   7.330   5.391  11.951  0.1441  0.2828  0.0625
10136W        W26984   9.474   6.586  14.042  0.2704 -0.1356  0.1659
10137W        W26985  14.342   3.075   1.222  0.1540  0.2027 -0.0106
10138W        W26986   8.814   0.597  11.227  0.0043 -0.0008  0.0891
10139W        W26987   4.370  16.639   5.154  0.1837 -0.0151 -0.0728
10140W        W26988   2.184   6.396   0.881  0.0264 -0.3276  0.1392
10141W        W26989  13.501   7.125  14.301 -0.0931  0.1892  0.0983
10142W        W26990  16.246   2.059   5.479 -0.1732  0.2595 -0.1768
10143W        W26991   9.881  13.439   2.965  0.0546 -0.0182  0.1332
10144W        W26992  14.228   9.051  12.318  0.0199  0.1504 -0.1701
10145W        W26993  16.520  14.644  12.398  0.0861  0.0354  0.1164
10146W        W26994  10.454   2.743   0.915  0.0959 -0.1720 -0.3115
10147W        W26995  12.737  14.838   4.326 -0.0581  0.1147 -0.0329
10148W        W26996   2.424   8.639   3.915 -0.1758  0.1653  0.1743
10149W        W26997  13.330   6.665   0.581  0.0387  0.1428  0.0777
10150W        W26998  16.169  13.689   3.251  0.0466  0.1524 -0.1141
10151W        W26999   2.972   6.709   0.857  0.4881 -0.0441  0.1257
10152W        W27000   5.501   2.584   4.103 -0.1034 -0.0552 -0.1364
10153W        W27001  17.025  11.801  12.494  0.2578 -0.0779 -0.2426
10154W        W27002  11.999  14.592   1.293 -0.2896 -0.2161 -0.0745
10155W        W27003   1.315   4.640   1.242  0.0927  0.1694  0.0592
10156W        W27004   8.317  17.238   2.971 -0.2742 -0.1522 -0.0175
10157W        W27005   0.016   1.180   6.410 -0.2469 -0.1360 -0.2383
10158W        W27006   6.235   2.661   1.614  0.1097  0.2105  0.2633
10159W        W27007  14.937  12.067   0.609 -0.1565  0.0098 -0.2415
10160W        W27008  17.540   6.368   3.838 -0.1113 -0.0890 -0.2530
10161W        W27009  15.643  13.095   0.167 -0.2791  0.0944  0.0729
10162W        W27010   9.606   4.861   0.141 -0.1511  0.0366  0.0968
10163W        W27011  17.376   7.436   1.142 -0.0899  0.1263 -0.0057
10164W        W27012  16.255  11.763   5.040 -0.0306  0.1521 -0.0778
10165W        W27013   6.247  17.554  12.537 -0.1352 -0.1358 -0.3376
10166W        W27014  13.523  16.471   4.987  0.0501  0.1738 -0.0132
10167W        W27015  11.249   0.880  10.669 -0.0085 -0.0918 -0.0793
10168W        W27016   9.316   4.194  14.045  0.1818  0.0041 -0.1955
10169W        W27017   7.075   1.896   0.636 -0.1799  0.1183 -0.0450
10170W        W27018  12.253  12.005  12.645  0.1496 -0.1466 -0.0603
10171W        W27019   4.707   1.654  16.594  0.0021 -0.2170 -0.1673
10172W        W27020   1.123   4.413  12.738  0.0555 -0.1628  0.3152
10173W        W27021   3.007  11.146  13.688  0.3230 -0.2608 -0.1804
10174W        W27022   0.668  12.124  13.583 -0.1151 -0.1584 -0.2941
10175W        W27023   4.045  16.606   2.395 -0.0143 -0.2646 -0.3213
10176W        W27024   2.427  14.795  12.773  0.4364 -0.0102  0.0139
10177W        W27025   4.694  15.163   4.963 -0.1118 -0.4912 -0.0238
10178W        W27026  17.410  13.023   0.390  0.0044 -0.1217 -0.0318
10179W        W27027   8.277  10.765   1.319  0.1676  0.3917 -0.0669
10180W        W27028  14.099   4.971   3.045  0.2445 -0.0177  0.0384
10181W        W27029   7.915   2.606   0.207  0.1012 -0.1738  0.0541
10182W        W27030   0.417   9.546  14.168 -0.0126  0.1884 -0.0059
10183W        W27031  17.313  12.623   4.993 -0.2253  0.0038  0.1662
10184W        W27032   7.679   5.372   3.449 -0.3427  0.1151  0.0878
10185W        W27033   0.877  11.953   1.902  0.1025 -0.0271 -0.1120
10186W        W27034  14.740   9.411   5.193  0.1337 -0.0439  0.0892
10187W        W27035   1.844   7.229   4.436  0.1500  0.1978 -0.2088
10188W        W27036  15.576   4.897  12.181  0.3733 -0.0031  0.1478
10189W        W27037   3.866  16.113   4.568  0.0856  0.0138  0.2327
10190W        W27038   7.479   3.628  14.444  0.3243 -0.0386 -0.0299
10191W        W27039   0.493   5.697   3.050  0.0191 -0.3834  0.0253
10192W        W27040  16.656   1.428  13.478 -0.1376  0.2022  0.0098
10193W        W27041  10.739   8.639   5.228 -0.0044 -0.0031  0.1183
10194W        W27042  11.726   8.567   4.297 -0.0669 -0.0815  0.0912
10195W        W27043   5.407   3.010   2.929 -0.0413  0.3038 -0.0834
10196W        W27044   6.171   8.869   0.337  0.0025 -0.2203 -0.1650
10197W        W27045   0.644   5.204   1.692 -0.0575 -0.0526  0.1984
10198W        W27046  10.868  10.376  16.537 -0.2292  0.1164  0.3192
10199W        W27047  16.955   0.904  15.621  0.2272 -0.2115 -0.0516
10200W        W27048   7.394  14.077  15.119  0.2174 -0.0978  0.0799
10201W        W27049  14.217   7.761  13.639 -0.1024 -0.0744 -0.1731
10202W        W27050  16.821   8.482   3.589 -0.1493 -0.1846 -0.0313
10203W        W27051   2.016   2.292  13.326 -0.1548 -0.1593 -0.0325
10204W        W27052   9.554   3.219   0.017  0.0255  0.1815 -0.0325
10205W        W27053  16.648   6.162  10.741  0.0878 -0.3767  0.1941
10206W        W27054  15.864  10.993  15.294  0.1398  0.0803 -0.0132
10207W        W27055   5.980   1.442   1.121  0.3124 -0.0060 -0.0810
10208W        W27056  15.598   4.615  13.840 -0.0046  0.2363  0.0406
10209W        W27057   4.679   2.742   2.682 -0.0123  0.0362  0.0784
10210W        W27058   4.336  17.399   3.180 -0.1939 -0.0007 -0.1636
10211W        W27059  12.117  11.939   4.014  0.1652  0.0303  0.0058
10212W        W27060   4.778  11.155   1.684  0.1746 -0.2224  0.1581
10213W        W27061   3.775   9.890   3.018 -0.1691  0.0709 -0.0733
10214W        W27062  17.212  13.039  13.245  0.3064 -0.4670  0.0002
10215W        W27063   7.200  16.534   5.377  0.0469 -0.1303  0.0638
10216W        W27064   2.050   1.741  12.008 -0.0532  0.2270 -0.1472
10217W        W27065   0.279   7.556  14.236 -0.0570  0.0421  0.1519
10218W        W27066   1.773   9.457  10.815  0.1419  0.0305 -0.1070
10219W        W27067  16.955   3.813  14.581  0.0928  0.3186  0.1678
10220W        W27068  13.378   3.929  14.869 -0.3069 -0.0612 -0.0502
10221W        W27069   7.759  12.407  16.295  0.2283  0.1838 -0.2429
10222W        W27070  17.049   5.559  16.039 -0.1401 -0.0328  0.1203
10223W        W27071  16.971   1.037  14.243  0.0581  0.0974 -0.0043
10224W        W27072   5.983   6.199   1.181  0.0168 -0.0954  0.2350
10225W        W27073   1.180   1.530   4.730 -0.0901 -0.0075  0.3297
10226W        W27074   2.616  14.557   2.941 -0.0433 -0.1442  0.2929
10227W        W27075  17.280   3.682  14.165 -0.1306  0.0143 -0.2427
10228W        W27076  13.659   8.819   3.281  0.1011 -0.0724 -0.2077
10229W        W27077   9.647   1.473  16.107  0.0840  0.3617 -0.0734
10230W        W27078  14.326   8.378   4.095 -0.1595 -0.1940 -0.0116
10231W        W27079   3.640   8.685   4.569  0.2456 -0.0517  0.0645
10232W        W27080   4.879  17.617   3.358 -0.0354 -0.2478  0.3601
10233W        W27081   5.867   9.855   1.316  0.1882  0.0969 -0.0846
10234W        W27082  12.609   3.837   1.805  0.4007  0.0928  0.0621
10235W        W27083   5.065  15.269  12.093  0.1375  0.1336 -0.1941
10236W        W27084  15.113   3.451   2.972 -0.1836 -0.3086  0.0990
10237W        W27085   3.590   1.658   4.250  0.2124  0.0807 -0.2118
10238W        W27086   8.191   8.095  13.379 -0.0163 -0.0119  0.0406
10239W        W27087  15.070   9.776   5.147  0.2512  0.0556  0.1103
10240W        W27088  15.107   6.862   0.608 -0.1992  0.1716  0.0916
10241W        W27089   5.468  11.644  10.911  0.1123 -0.0489  0.0836
10242W        W27090   6.854  16.793   5.019 -0.4309  0.2655  0.0286
10243W        W27091  12.043   3.591   4.282 -0.1414 -0.0125  0.0718
10244W        W27092  14.280   4.361   0.830  0.1297  0.1172  0.2839
10245W        W27093   0.711   3.630  11.761 -0.2256  0.0290 -0.4680
10246W        W27094   6.973  17.552   3.292 -0.0763 -0.2065  0.0158
10247W        W27095   1.910  12.976   3.156  0.0346 -0.0324  0.1602
10248W        W27096   4.285  12.185  14.140  0.3594 -0.1370  0.1612
10249W        W27097  14.463   3.558  11.205  0.0187  0.0623 -0.0938
10250W        W27098   9.187   5.362   1.421 -0.2142  0.0790 -0.1619
10251W        W27099   3.304   8.584   1.752 -0.3062 -0.2153  0.3555
10252W        W27100   9.607  15.407  13.047 -0.2621  0.1169  0.0619
10253W        W27101   1.389  10.736  13.762  0.0466 -0.0422  0.2240
10254W        W27102   8.197  12.865   4.143 -0.2337  0.0228  0.1328
10255W        W27103  11.779   1.006   4.675 -0.0088 -0.0957 -0.0251
10256W        W27104   1.727  13.979   3.797 -0.0060  0.0110  0.2160
10257W        W27105  11.544   3.637  14.125 -0.3516  0.0484 -0.0520
10258W        W27106   2.548   0.252  13.330  0.1606  0.1003  0.2591
10259W        W27107   3.997   4.108   1.639 -0.0455 -0.1302  0.0246
10260W        W27108  16.760  14.248   4.422  0.0481  0.3082 -0.0551
10261W        W27109  15.632   5.495   1.620  0.1029 -0.1021  0.2034
10262W        W27110  11.986  17.130   3.761 -0.0562  0.3029  0.0735
10263W        W27111  10.888   9.537   1.846 -0.1386  0.0556 -0.0782
10264W        W27112   0.535  11.202   0.789 -0.1776 -0.1131 -0.0809
10265W        W27113   5.033   2.266   5.099  0.1889  0.1031 -0.2860
10266W        W27114  10.669   1.686   4.604 -0.2199  0.0704  0.1787
10267W        W27115  12.655  11.319   5.757 -0.0085  0.4433  0.1132
10268W        W27116  14.104   3.470  16.109  0.0402  0.1269 -0.1127
10269W        W27117   3.950  11.404  16.625  0.0554 -0.0169 -0.0953
10270W        W27118  17.337   7.591  12.143 -0.0956  0.0832  0.1930
10271W        W27119   2.543   4.286  15.207  0.1501  0.0827  0.2654
10272W        W27120   1.047   9.804   2.952 -0.0434  0.4202  0.0252
10273W        W27121  12.916   7.664  11.599 -0.0214  0.0915  0.0632
10274W        W27122   5.588  13.803  13.036  0.2731  0.2328  0.0869
10275W        W27123   3.166   2.387  12.352  0.1868 -0.1700  0.4133
10276W        W27124   8.249  13.891  13.823 -0.1595 -0.0817  0.2063
10277W        W27125   6.677   9.024   3.323 -0.3442  0.1071 -0.0804
10278W        W27126   1.973  16.574   2.567  0.2489 -0.4714  0.1629
10279W        W27127   5.272  17.578  15.497 -0.3384  0.2443  0.0428
10280W        W27128   8.051  11.208   3.555 -0.0537  0.1343  0.0236
10281W        W27129   7.698   2.384  15.504  0.2718 -0.2221  0.2336
10282W        W27130   0.876   8.443   1.532  0.0472  0.0319 -0.2745
10283W        W27131   4.280  14.492  15.682  0.1894 -0.0281  0.0529
10284W        W27132  11.322   3.639  11.841 -0.0321 -0.2646 -0.1109
10285W        W27133   7.295   9.867  13.985  0.0465  0.1124  0.0690
10286W        W27134   8.405   3.052  14.423 -0.0537  0.2210  0.2472
10287W        W27135   6.471  12.489   1.102 -0.2563  0.2263 -0.0358
10288W        W27136  14.133  15.059   3.036 -0.0000 -0.0414 -0.1130
10289W        W27137  15.569   0.985   0.193 -0.0322  0.0725  0.0576
10290W        W27138   6.484  12.830  15.953 -0.0296  0.0584 -0.2794
10291W        W27139   8.107   0.826  11.808 -0.1839  0.0549  0.0645
10292W        W27140  14.528   4.480  16.635  0.5636  0.1954 -0.2770
10293W        W27141  10.179   9.775  14.469 -0.2601  0.0487  0.0183
10294W        W27142   7.769  15.038  15.777  0.1417  0.1466  0.0646
10295W        W27143   6.192   0.199   4.949  0.1800  0.0040  0.0693
10296W        W27144  14.704   9.279   0.081  0.4442  0.0760 -0.1078
10297W        W27145  10.533  16.470   1.764 -0.1431  0.0201  0.0398
10298W        W27146   9.325  17.294  14.159 -0.1628 -0.1117  0.2917
10299W        W27147   0.429   6.757   4.952 -0.0148  0.2502 -0.0710
10300W        W27148   8.169  13.756   2.257  0.1632 -0.0267  0.1566
10301W        W27149   6.309  16.602   5.106  0.0687  0.2140  0.0747
10302W        W27150   4.843   0.839   2.164  0.1442 -0.1090  0.3002
10303W        W27151   2.545   3.928  15.983 -0.0257  0.0060  0.3267
10304W        W27152   2.004   0.231   4.380 -0.0196  0.0614  0.1909
10305W        W27153   7.464  16.468  12.778 -0.0301  0.2021 -0.0447
10306W        W27154   0.771   9.279  13.926 -0.0314 -0.1474  0.0215
10307W        W27155   2.723  16.950   0.122 -0.0001  0.0532  0.3191
10308W        W27156   3.323  10.838  14.449  0.2516 -0.0770  0.0543
10309W        W27157  16.568   7.303  11.834  0.2106 -0.0777 -0.0065
10310W        W27158   7.948   2.350   1.227  0.1386  0.2722 -0.3363
10311W        W27159   2.910  10.465   0.566 -0.2388  0.2364 -0.1910
10312W        W27160  15.420   5.868   0.700  0.0468  0.0124 -0.2683
10313W        W27161  10.741   2.400   0.622  0.0318 -0.0104  0.2298
10314W        W27162  11.122  17.289  14.461  0.1652  0.1988  0.0849
10315W        W27163   5.439   8.539   5.247 -0.1125 -0.1212 -0.2380
10316W        W27164   7.160   9.178   4.263 -0.0829 -0.3817 -0.0321
10317W        W27165   3.487   1.047  16.469 -0.0700  0.0263 -0.0628
10318W        W27166  11.353  15.421   2.095  0.1058  0.1266  0.0876
10319W        W27167  13.300   5.545  15.892 -0.2667 -0.2521 -0.0876
10320W        W27168   8.561   3.097   1.908 -0.2059  0.0975 -0.1610
10321W        W27169   7.921   8.414  14.209 -0.3284  0.2879 -0.2360
10322W        W27170   8.494  13.212   3.348 -0.0826  0.0157  0.1060
10323W        W27171  14.693  11.228   1.644  0.0785  0.1334 -0.0030
10324W        W27172  11.320  13.086  14.357  0.1777 -0.1545 -0.0718
10325W        W27173   4.206   7.110  10.889  0.0396 -0.2742  0.1478
10326W        W27174  16.386  15.347   2.539  0.0898 -0.2246 -0.0389
10327W        W27175   6.042   4.102  15.256 -0.4615 -0.1114  0.3419
10328W        W27176   1.617   9.043  14.593  0.0494  0.1015  0.2255
10329W        W27177  17.470  15.845  12.401 -0.0763 -0.1147  0.0682
10330W        W27178  15.084   8.176  11.442  0.4109 -0.4485 -0.1263
10331W        W27179  13.725  10.205   3.550  0.3332 -0.1279  0.0355
10332W        W27180   3.835   9.724   4.411 -0.1015 -0.3799 -0.1505
10333W        W27181   3.860   3.620   3.282 -0.1429  0.1678  0.0003
10334W        W27182   9.088   3.916   0.151 -0.1887  0.2606  0.0139
10335W        W27183  15.250   5.170   1.463  0.2533 -0.1706  0.0454
10336W        W27184  14.106   8.335   0.796  0.0011 -0.2334 -0.1179
10337W        W27185  11.895  17.080   3.176  0.0100 -0.1002  0.0169
10338W        W27186   3.722   6.907   4.813  0.1501  0.1265 -0.0778
10339W        W27187  11.494   4.148  16.634 -0.2179 -0.0766  0.0198
10340W        W27188   5.475  13.945   6.102 -0.0036  0.0518  0.0704
10341W        W27189   9.507   5.439   4.543 -0.0853  0.0422  0.0813
10342W        W27190   1.635   8.759  15.015 -0.0624  0.0109 -0.2674
10343W        W27191  15.658   4.451   1.843 -0.0980 -0.1070 -0.0761
10344W        W27192  17.498   5.311  15.041  0.3397  0.2512 -0.0939
10345W        W27193   9.940   0.621   0.867 -0.0790 -0.0094 -0.0954
10346W        W27194   4.974  13.463   0.509 -0.1160  0.2521 -0.1503
10347W        W27195   4.016   1.042  13.354  0.0859  0.2279  0.1032
10348W        W27196  10.859   5.711  14.632  0.3363 -0.1571  0.0655
10349W        W27197   0.151   5.802  15.731  0.2725  0.0969 -0.0571
10350W        W27198   2.050   4.494   1.216 -0.1768  0.0825  0.0655
10351W        W27199   8.847   0.610  13.997 -0.2018  0.0742 -0.2213
10352W        W27200   3.170  16.552   1.130  0.3716  0.0691  0.1096
10353W        W27201   7.448   8.370  13.022  0.0842  0.1693  0.2969
10354W        W27202  13.781  13.209  16.437 -0.2905  0.1878  0.0288
10355W        W27203  11.823   6.601   1.612 -0.2793 -0.2255  0.1562
10356W        W27204   5.186   9.444  12.312 -0.0436 -0.1424  0.1190
10357W        W27205   6.639  17.333  15.970 -0.0665 -0.0235  0.0802
10358W        W27206  13.162   6.922  15.331 -0.1808  0.2734 -0.2263
10359W        W27207   6.012   4.043  14.225  0.3671 -0.0469 -0.0694
10360W        W27208   0.689   1.237   1.131 -0.4880 -0.1970  0.0618
10361W        W27209  16.743  17.159  14.219 -0.1613 -0.0684 -0.2124
10362W        W27210   8.351  10.591   1.933 -0.1305  0.1342 -0.2901
10363W        W27211  17.154  15.102  16.535 -0.3488  0.0396 -0.1461
10364W        W27212   6.630  16.446   4.746 -0.0423  0.3852 -0.1684
10365W        W27213  14.215  10.898  14.795  0.0201  0.0287  0.0389
10366W        W27214  12.777  15.717  14.928  0.0885 -0.2226  0.0175
10367W        W27215   7.606  16.103   6.510 -0.3953  0.2232 -0.0873
10368W        W27216  13.415  16.565  12.627 -0.4355  0.2415  0.2509
10369W        W27217  14.514   6.199   1.487 -0.4346 -0.4423 -0.1830
10370W        W27218   6.289  12.204  11.673 -0.0405  0.4766 -0.4210
10371W        W27219   2.105  14.829   4.345  0.2126  0.0093  0.1322
10372W        W27220   0.008   3.956  10.750 -0.2285  0.3345 -0.0795
10373W        W27221   5.732  15.799  13.235 -0.0478 -0.0269  0.0221
10374W        W27222  13.530  17.211  14.694 -0.1749 -0.0405 -0.0311
10375W        W27223  12.674   8.058  11.415  0.2781 -0.0228 -0.1617
10376W        W27224   5.589   8.049   3.897  0.0980  0.2513  0.1780
10377W        W27225  15.262   0.903  13.758  0.0893  0.0469 -0.1553
10378W        W27226   9.142  12.540  14.654  0.0716 -0.1072  0.2057
10379W        W27227   1.874  11.546  13.362 -0.1086  0.2286  0.1474
10380W        W27228   8.945   4.667   4.069  0.0183  0.1305  0.1724
10381W        W27229  15.068  11.030  13.352 -0.1105  0.2440  0.1753
10382W        W27230   1.586  16.377   4.416  0.0246 -0.0804 -0.0037
10383W        W27231   2.467   8.779  16.509 -0.0238  0.0827  0.1479
10384W        W27232   0.050   2.902   0.963 -0.1093  0.2652  0.3052
10385W        W27233   4.317   9.591  14.089  0.0336  0.0453 -0.1807
10386W        W27234  13.647   4.404  13.650  0.0075  0.1193 -0.2739
10387W        W27235  11.151  14.073  13.350 -0.0499 -0.1519  0.1114
10388W        W27236   6.402  16.592  13.238 -0.0355  0.0176 -0.0471
10389W        W27237   7.574   4.570   1.311 -0.1445  0.0854  0.1292
10390W        W27238   5.857   9.801   4.811  0.1790 -0.3454  0.0742
10391W        W27239   1.328  10.720   1.298 -0.1283  0.1252 -0.2020
10392W        W27240  11.190   1.999   2.336  0.0938  0.0435  0.1513
10393W        W27241  11.905   8.835  12.204 -0.1939  0.1461 -0.0159
10394W        W27242   2.962  10.180  12.217  0.4463 -0.1368 -0.1007
10395W        W27243  15.965   5.585  14.364  0.0661 -0.0213 -0.2206
10396W        W27244  10.647   7.117  14.181  0.1616 -0.1514 -0.1460
10397W        W27245   7.606   3.046   0.338  0.2541 -0.1348 -0.1434
10398W        W27246   1.419   6.717   2.007 -0.1193  0.0861  0.1268
10399W        W27247   0.001   5.108  12.320  0.0764  0.3316  0.2124
10400W        W27248  13.947   5.585  14.373  0.1459  0.1188 -0.1196
10401W        W27249  15.341  15.425  15.318 -0.1147  0.2998  0.0113
10402W        W27250   0.689  10.728  15.047  0.3487 -0.0619  0.1867
10403W        W27251   0.045   3.577  14.358  0.3662 -0.0149  0.2252
10404W        W27252   5.558  12.439  11.711 -0.3053 -0.2611  0.0524
10405W        W27253   1.492   2.284  12.599 -0.1656 -0.0171  0.0188
10406W        W27254   7.489   0.575  14.831  0.0764  0.0044 -0.1309
10407W        W27255  12.290   8.007  16.643  0.0144 -0.0201  0.0201
10408W        W27256   2.823   1.538  13.702 -0.0209 -0.2328  0.1018
10409W        W27257   0.590  13.165  16.491  0.0564 -0.2272  0.2171
10410W        W27258   2.877  12.465  16.314  0.0307 -0.0226 -0.3180
10411W        W27259   5.032   3.246   0.726 -0.1663 -0.1307 -0.0686
10412W        W27260  17.324   1.014  13.406 -0.0303  0.2906 -0.0687
10413W        W27261  13.542   7.225   5.029 -0.1111 -0.0195  0.1116
10414W        W27262   0.284   7.091   3.280 -0.2632 -0.1927  0.3468
10415W        W27263  11.811   3.336  11.850 -0.0794 -0.2404  0.1164
10416W        W27264  10.537   8.947  11.515 -0.0935  0.1160  0.0843
10417W        W27265   3.621   1.311   2.259 -0.0611 -0.0365 -0.0221
10418W        W27266  16.287  16.360   4.907 -0.1470  0.0742 -0.2509
10419W        W27267   9.925  12.029  15.256  0.1906 -0.2859  0.2562
10420W        W27268  12.919   0.791   0.205  0.0838  0.0630  0.1055
10421W        W27269   9.293  12.533  15.965 -0.0237 -0.0350  0.0058
10422W        W27270   6.204  14.855   1.805 -0.2106  0.0314 -0.0404
10423W        W27271  17.668  14.702   0.678 -0.3068  0.0061 -0.1246
10424W        W27272  12.759  15.041   6.102 -0.0457  0.1940  0.0702
10425W        W27273   2.092  14.287  13.277  0.1146  0.1521  0.0665
10426W        W27274   1.724   8.925   2.928 -0.3147 -0.2051 -0.1308
10427W        W27275   0.505  11.785  11.047  0.1064 -0.1052  0.0397
10428W        W27276   6.737   8.263  13.448 -0.0701 -0.0253 -0.0414
10429W        W27277   1.410   9.623   1.786 -0.1119 -0.0239 -0.0844
10430W        W27278  10.314  12.814  16.551  0.0375  0.2166 -0.1194
10431W        W27279   1.904   0.069  13.249 -0.3699  0.1334 -0.1409
10432W        W27280  11.935   0.455   1.911  0.0074 -0.1004 -0.2085
10433W        W27281   9.475   7.837  11.825  0.0756 -0.0721 -0.2545
10434W        W27282  13.265   8.042  15.354 -0.0923 -0.0416  0.0442
10435W        W27283   9.960  15.068  13.392  0.2282  0.1156  0.0761
10436W        W27284   1.426   6.329   2.369 -0.0766  0.0770 -0.0196
10437W        W27285   4.928   0.222  14.863  0.1277  0.1532 -0.6198
10438W        W27286   3.924   5.369  12.789  0.0042 -0.0677 -0.0353
10439W        W27287  14.800   6.805   2.672 -0.1429  0.2813  0.2251
10440W        W27288   4.162   3.668  11.543 -0.0817  0.0806 -0.0466
10441W        W27289   2.790   6.580  11.610 -0.1167  0.0812 -0.1184
10442W        W27290   5.874  17.175   0.225 -0.0479 -0.1812  0.0410
10443W        W27291   6.033   3.435   2.690 -0.2752  0.1696 -0.1064
10444W        W27292  11.472   8.426   3.231  0.0337 -0.1405  0.2393
10445W        W27293   7.904   8.521  13.202  0.2246  0.0917 -0.1101
10446W        W27294   2.303  14.593   0.397 -0.0008  0.1683 -0.2005
10447W        W27295   2.205  17.532   4.528  0.1651  0.1539  0.1383
10448W        W27296   8.301   6.044   2.909 -0.1280 -0.0822 -0.0420
10449W        W27297  10.693  17.378  15.624 -0.0199  0.1993 -0.3019
10450W        W27298   0.953   7.705   0.264  0.1084  0.0869  0.1071
10451W        W27299  16.391   6.813   1.175  0.3714 -0.0031  0.0223
10452W        W27300  15.660   1.575  11.972 -0.0168  0.0187  0.0939
10453W        W27301  11.064   8.089   0.564 -0.3398  0.1287  0.1741
10454W        W27302  11.495  10.711  14.935  0.0211 -0.0936 -0.1239
10455W        W27303   6.062  10.482   2.884  0.2152 -0.0881  0.2821
10456W        W27304   6.212   6.120   3.793 -0.3753 -0.2459  0.1989
10457W        W27305   8.518   3.191  12.817 -0.1278 -0.0225  0.0465
10458W        W27306  15.798  14.952  13.122  0.2799 -0.0104  0.0218
10459W        W27307   5.837  13.573  13.950  0.1313 -0.1129 -0.0576
10460W        W27308  11.621  15.216  13.839 -0.1719 -0.0605  0.4605
10461W        W27309   2.408   7.712  14.844  0.2017 -0.0348 -0.0721
10462W        W27310   8.916  13.666  10.567 -0.1939  0.0070 -0.1099
10463W        W27311  15.992  11.366  13.319  0.4988 -0.2285 -0.1029
10464W        W27312   0.225   7.785   0.495  0.0669  0.4667 -0.0748
10465W        W27313   3.970  10.796   3.803  0.0182  0.1626 -0.1247
10466W        W27314   0.367   4.938   1.348 -0.0116  0.0936  0.1756
10467W        W27315  13.754   6.468  14.283 -0.1402  0.1220  0.1604
10468W        W27316  11.094  16.253   1.897  0.0496  0.0741  0.1119
10469W        W27317   3.894  14.155  15.169  0.0002 -0.0771 -0.0302
10470W        W27318   1.020  14.357   3.662 -0.1418 -0.1066  0.1277
10471W        W27319  14.304   1.175   0.634  0.1543 -0.3421 -0.0577
10472W        W27320   1.974  11.120  15.301  0.0103  0.0848 -0.2295
10473W        W27321  15.802   0.208  13.651 -0.3281 -0.0425 -0.1926
10474W        W27322   8.466  17.580  15.455 -0.2088  0.2366 -0.1848
10475W        W27323   2.850  11.165  14.856  0.0572  0.1981 -0.0445
10476W        W27324   5.047   6.659  13.675  0.2805 -0.2233 -0.0464
10477W        W27325  14.061   1.581   1.604  0.0794  0.0153 -0.3661
10478W        W27326  13.803  15.816  15.001  0.0595 -0.1932  0.2958
10479W        W27327   4.235   0.386  12.688 -0.0889  0.2689  0.1324
10480W        W27328   5.756  14.450   3.395 -0.0633 -0.1406 -0.1679
10481W        W27329   1.083  12.693   1.610 -0.1736 -0.3012  0.2592
10482W        W27330  14.482   7.961   1.160 -0.0956  0.1369  0.0125
10483W        W27331  10.218   2.114  14.469 -0.0099 -0.1029 -0.0735
10484W        W27332   5.628   5.703   2.444  0.0960  0.1709  0.0338
10485W        W27333   9.234  10.675   3.344 -0.2244 -0.0119 -0.0936
10486W        W27334  17.224   1.287   2.932  0.1899 -0.0281 -0.1413
10487W        W27335   8.915   8.056   1.766 -0.1343  0.1905  0.0821
10488W        W27336  10.748  12.458   3.069  0.0383  0.1365 -0.0268
10489W        W27337  12.972  15.234   3.607  0.4109  0.3211 -0.0463
10490W        W27338  13.057  14.576   2.348 -0.2478  0.3173  0.0713
10491W        W27339  13.698  14.818  16.416 -0.1431 -0.0671  0.2647
10492W        W27340  17.304   9.702  13.754  0.3521  0.1475 -0.1628
10493W        W27341   0.419   0.850   4.160  0.1193 -0.3433  0.0228
10494W        W27342   9.307  12.315   2.281  0.1618  0.2141 -0.1118
10495W        W27343   8.704  17.255   4.033  0.0438 -0.2813  0.0856
10496W        W27344  17.358  16.221   4.968 -0.2175  0.0692 -0.2753
10497W        W27345   5.010  10.077   2.328  0.1060  0.0561  0.1105
10498W        W27346  16.689   6.176   2.449  0.0966  0.0649  0.2602
10499W        W27347   1.652  12.081   3.723 -0.2894  0.1770 -0.0204
10500W        W27348  17.226  11.644  13.004  0.1350  0.0290  0.0412
10501W        W27349  10.622   3.151   2.755  0.0174 -0.1111  0.0385
10502W        W27350  11.424  11.962  11.280  0.1292  0.2783  0.2244
10503W        W27351  15.138   7.982   2.435  0.0112  0.1868  0.2720
10504W        W27352  12.007   4.268   1.045 -0.0123  0.0673 -0.2542
10505W        W27353   0.693  15.543   4.865 -0.2433  0.3196  0.1355
10506W        W27354   4.071   9.665   2.330  0.1704 -0.1060  0.1681
10507W        W27355   2.933  15.424  14.483  0.0777  0.2645 -0.4905
10508W        W27356  11.423  14.298  15.788  0.0064  0.1448  0.1616
10509W        W27357  12.429   9.859  11.880 -0.0723  0.1808 -0.2223
10510W        W27358   0.467   1.387   0.712 -0.0233 -0.1714 -0.0712
10511W        W27359   0.498   0.507   2.290 -0.3952 -0.3071 -0.3687
10512W        W27360   5.805  15.612   1.239  0.1119  0.1118 -0.1944
10513W        W27361  10.557  16.820   3.099  0.0193  0.1156  0.1279
10514W        W27362  11.294   2.906   0.858  0.1478 -0.1977 -0.0766
10515W        W27363   2.590   6.566  13.067 -0.1560 -0.2201 -0.1380
10516W        W27364   3.526   8.397   0.503  0.0891 -0.0144  0.2082
10517W        W27365  10.340   5.020  16.220 -0.1724 -0.0376 -0.1534
10518W        W27366   8.939   2.820   1.597  0.0696 -0.0911 -0.1302
10519W        W27367   0.796  17.114  16.537 -0.0270 -0.0874 -0.0154
10520W        W27368  14.839   8.642  16.048 -0.3305  0.0592  0.1505
10521W        W27369   3.260  15.109  14.194  0.1486  0.2273 -0.0302
10522W        W27370   6.685  14.552   3.876 -0.2000  0.1150 -0.0534
10523W        W27371  14.158   1.549   3.430  0.1970  0.3080  0.3263
10524W        W27372  13.735  14.397   2.730  0.1086  0.0638  0.1038
10525W        W27373   7.746  14.141  16.185 -0.2106  0.3232  0.2184
10526W        W27374   3.320   2.030   5.427 -0.1035  0.2450  0.1919
10527W        W27375  11.983   6.435  13.868 -0.1632  0.1993  0.4325
10528W        W27376  16.439   8.890  12.272  0.0795 -0.1689  0.0048
10529W        W27377   5.826   9.802  15.369  0.0350 -0.1749 -0.2009
10530W        W27378  10.453   4.599   4.061 -0.0837  0.3784  0.0902
10531W        W27379  15.532  17.693   6.609 -0.1727  0.1486 -0.0220
10532W        W27380  12.100  16.054  13.669 -0.2016 -0.0709 -0.0472
10533W        W27381   3.922   3.967   5.100  0.0197 -0.3004  0.0296
10534W        W27382  16.986  14.126   3.420 -0.2539  0.1198  0.1616
10535W        W27383   9.850  12.758  11.883  0.1674 -0.2548 -0.0798
10536W        W27384  16.876   2.951  13.472 -0.2137 -0.0814 -0.0167
10537W        W27385  12.793  10.410   4.310 -0.0304 -0.2755 -0.0875
10538W        W27386  10.079   7.422   1.283  0.0857 -0.1021  0.1694
10539W        W27387   1.325   3.105  14.422 -0.1949 -0.0591 -0.4081
10540W        W27388   8.665  10.613   0.462 -0.3528 -0.1685 -0.2188
10541W        W27389  12.817  11.048  16.461 -0.1573  0.0843 -0.3048
10542W        W27390   6.459   6.911   4.510 -0.0049 -0.0303 -0.0817
10543W        W27391  13.546   4.506  16.362  0.0495 -0.2794 -0.2145
10544W        W27392   1.388  10.882   0.820 -0.0913 -0.1407  0.1110
10545W        W27393   2.092   7.379   1.052 -0.4900  0.1965  0.2275
10546W        W27394  12.298  10.502  12.633 -0.2152 -0.0690 -0.1327
10547W        W27395   5.779  14.663   1.593 -0.1573 -0.0312  0.3472
10548W        W27396   5.582   4.048   0.303  0.1916  0.1029  0.1840
10549W        W27397   4.370   5.062  13.487 -0.2019 -0.2288 -0.0248
10550W        W27398  10.352   6.327  13.872  0.1934  0.1175  0.0197
10551W        W27399  13.906   3.712   4.749  0.0844 -0.0085 -0.2822
10552W        W27400   1.295   2.672   4.119  0.1034 -0.2950  0.3746
10553W        W27401   9.874  17.021  16.436  0.0091  0.4121 -0.1425
10554W        W27402   0.511   5.874  12.843 -0.1993 -0.0321  0.1438
10555W        W27403   8.452  14.459   5.306 -0.0422  0.3287 -0.1404
10556W        W27404   8.604  16.675   2.151 -0.1468 -0.0596  0.0328
10557W        W27405  16.890   8.878   3.875  0.0985 -0.1855 -0.0011
10558W        W27406   8.379  16.891  14.733 -0.1186 -0.0191 -0.1482
10559W        W27407   7.877   0.796  15.547  0.1833 -0.0056 -0.0043
10560W        W27408   1.501  17.618   0.821 -0.4100 -0.1512 -0.1226
10561W        W27409   7.075   2.372   0.588  0.2148  0.2971 -0.2491
10562W        W27410   8.438   1.890   3.825 -0.0940  0.0535 -0.1922
10563W        W27411  14.736   9.799  10.458 -0.0555  0.0278  0.3180
10564W        W27412   4.099   1.890   1.279 -0.2736 -0.2089  0.5186
10565W        W27413  15.222  14.276   4.428  0.0700 -0.0524  0.1745
10566W        W27414  16.680   7.121   2.678 -0.0038  0.2370 -0.2054
10567W        W27415  15.682  12.948  15.138  0.4419  0.0949  0.0372
10568W        W27416  17.506   1.493  14.585  0.0119  0.3601 -0.0685
10569W        W27417  13.144   5.516   0.102 -0.1007 -0.1297  0.0909
10570W        W27418   7.856  12.984   2.228  0.1463  0.1674 -0.0795
10571W        W27419  14.374  17.600   4.332 -0.1064 -0.0948  0.1443
10572W        W27420  12.676  11.249  13.112 -0.3541 -0.1366  0.0549
10573W        W27421  12.500   7.488  13.392  0.4120  0.0690  0.1077
10574W        W27422   9.616   3.084  10.683 -0.0628  0.1188  0.0762
10575W        W27423  17.020   7.411  13.779 -0.1583 -0.0768 -0.3403
10576W        W27424   0.463   3.586  14.772 -0.1022 -0.4184 -0.1742
10577W        W27425   0.404   2.862   1.940  0.3514  0.1606 -0.0737
10578W        W27426  13.054  13.989   5.645 -0.1059 -0.1917  0.1269
10579W        W27427   8.752  17.155  11.548 -0.1700  0.2866  0.0384
10580W        W27428   1.722  10.292  12.474 -0.0828 -0.2407  0.1411
10581W        W27429   2.182   7.437   4.833 -0.1150  0.2513 -0.2668
10582W        W27430   5.320  11.162   2.355 -0.1789  0.1187 -0.0874
10583W        W27431   4.749  16.398   5.352 -0.1131  0.1714 -0.1696
10584W        W27432   8.054  15.013   2.220  0.1887 -0.0792 -0.0638
10585W        W27433   4.281   3.896   3.098 -0.0177 -0.0915 -0.2154
10586W        W27434   9.229  14.364  12.400  0.1758  0.0812 -0.0548
10587W        W27435  15.015   0.853   4.640  0.2148  0.1931  0.1106
10588W        W27436  16.379   8.745  16.084 -0.0700  0.0943 -0.1701
10589W        W27437  15.717  10.069  13.032  0.1474  0.1762 -0.0973
10590W        W27438  11.048  14.062  16.590 -0.2374 -0.2290 -0.0381
10591W        W27439   2.727   1.697   1.205  0.0701  0.1831  0.0683
10592W        W27440   6.814  11.698  14.335  0.0451 -0.0455  0.1279
10593W        W27441  14.756  14.762   2.271  0.0048  0.2046  0.0591
10594W        W27442   1.479  16.201   1.327 -0.0054 -0.1323 -0.1569
10595W        W27443   7.760   2.876   3.807 -0.0706 -0.1269  0.1339
10596W        W27444   7.139  14.366   3.135 -0.0555 -0.0214  0.2273
10597W        W27445   6.699   0.748   0.767  0.0444 -0.1544  0.0721
10598W        W27446   8.710   0.428  13.471 -0.0380 -0.0268  0.1586
10599W        W27447   6.598   5.378  12.634  0.1491  0.3305 -0.2597
10600W        W27448  14.818   9.531  15.706  0.2011 -0.1132  0.0255
10601W        W27449  13.704  10.975   4.927 -0.0196 -0.0396 -0.1846
10602W        W27450   6.126  10.070   3.428 -0.0899  0.1015 -0.2451
10603W        W27451   0.797   1.563  10.699 -0.0472 -0.0548  0.0832
10604W        W27452  15.031  16.147  13.177 -0.3730 -0.0911  0.0312
10605W        W27453  17.292  10.396  12.679  0.2846  0.1854  0.1569
10606W        W27454  13.545   9.336  10.669  0.2520 -0.1926 -0.0045
10607W        W27455   9.366  12.623   5.304  0.0524  0.1753  0.1450
10608W        W27456   3.436  12.474  13.691  0.1915  0.0293 -0.3587
10609W        W27457   6.115   6.531   4.650  0.2164 -0.3014  0.0854
10610W        W27458   3.906   4.144   1.155  0.0777 -0.1438 -0.1795
10611W        W27459  12.428   0.592  12.688 -0.1098 -0.0616  0.0436
10612W        W27460  15.120  13.729   3.049  0.2092 -0.2790 -0.0193
10613W        W27461   5.929   2.926   2.773 -0.1136  0.3424  0.2201
10614W        W27462  12.890  13.657  16.019 -0.2374 -0.0844  0.0406
10615W        W27463   5.901   1.892   3.673 -0.0652 -0.1468 -0.0449
10616W        W27464  12.823  10.435   2.014  0.0975  0.4051  0.3978
10617W        W27465   7.211  12.883   0.316  0.0519  0.1817 -0.0561
10618W        W27466   6.333  10.900   0.165  0.1142  0.3409  0.0496
10619W        W27467  15.122   5.200  11.066 -0.0197 -0.1910 -0.1754
10620W        W27468   4.343  15.845  12.893  0.1017  0.0545  0.1441
10621W        W27469  10.228   9.779   5.001  0.0863  0.3587 -0.1030
10622W        W27470   3.713   1.292  11.712  0.1637 -0.0721 -0.0895
10623W        W27471  11.615  13.234  13.437 -0.0148  0.0961  0.1903
10624W        W27472  11.123  13.160  16.356  0.1495 -0.0774 -0.0204
10625W        W27473   2.864   8.719  11.938  0.3995  0.0002  0.1432
10626W        W27474  11.701   4.050  15.028 -0.0327  0.0425  0.2412
10627W        W27475  15.617  12.814  13.478 -0.2116  0.0915 -0.0067
10628W        W27476   3.258   5.655  12.302 -0.0190  0.0134 -0.3089
10629W        W27477   6.466  11.774  12.396 -0.1612  0.2287  0.0733
10630W        W27478  14.660  12.495  13.129  0.1177  0.2627 -0.0775
10631W        W27479  16.091   7.441   5.499 -0.2722 -0.3012 -0.1600
10632W        W27480  10.320  12.664  11.924 -0.1309  0.2704 -0.2087
10633W        W27481  14.376   3.637   0.324 -0.0753  0.2328  0.0560
10634W        W27482   6.982  12.486   5.187 -0.4135 -0.3271 -0.0904
10635W        W27483   0.706  10.797   4.348  0.0836  0.1867 -0.0194
10636W        W27484  10.363  10.857   2.386  0.0597 -0.4624 -0.1682
10637W        W27485  12.684   5.237   5.620 -0.1016 -0.1194 -0.0025
10638W        W27486   0.336   2.401  11.505  0.1393 -0.0128  0.0970
10639W        W27487  11.765   1.830   4.462 -0.0687 -0.1171 -0.3188
10640W        W27488  15.448  15.860  15.179 -0.0579  0.5140 -0.1732
10641W        W27489   3.056  15.149  11.547 -0.0781 -0.0921 -0.0341
10642W        W27490   5.655   3.729  15.957 -0.0342 -0.0278  0.0539
10643W        W27491   4.865   6.319  14.996  0.1751 -0.0798 -0.0093
10644W        W27492  16.775  13.115   2.184 -0.0681 -0.3512  0.0957
10645W        W27493   9.882   9.199  10.926 -0.0829 -0.1734  0.2489
10646W        W27494   3.776  11.329  13.602  0.1304 -0.3482 -0.0712
10647W        W27495   9.319   9.603  14.702  0.0578  0.1713 -0.4499
10648W        W27496   6.295  15.404   1.113  0.1149  0.1331  0.1243
10649W        W27497   6.108  12.970   3.106  0.0861  0.1014 -0.0183
10650W        W27498   3.795   1.699  16.172  0.0605 -0.2400 -0.3336
10651W        W27499   3.748   0.670   4.891 -0.0609 -0.1548 -0.0949
10652W        W27500   3.391  14.098  12.250 -0.5488  0.0353 -0.2704
10653W        W27501   8.600   4.844   0.067  0.0451 -0.6901  0.1940
10654W        W27502   0.510  17.492  11.772 -0.0898  0.3306  0.1966
10655W        W27503   3.639  17.101   1.793 -0.0754  0.1244  0.0157
10656W        W27504  10.091   8.485   2.757 -0.4435  0.0370  0.0356
10657W        W27505   9.660   5.759  13.424  0.2913 -0.0896 -0.0397
10658W        W27506   3.441   1.788   4.781 -0.0612 -0.1526 -0.0217
10659W        W27507   6.293  11.813  11.313  0.0200 -0.3613 -0.3134
10660W        W27508  13.015  10.331   1.080  0.1799 -0.1249 -0.1512
10661W        W27509   9.998   6.910  15.777  0.1084  0.0121 -0.1096
10662W        W27510  10.838   7.266   5.169  0.0379  0.2888  0.0978
10663W        W27511   9.935   2.506   4.098 -0.1439 -0.1857 -0.0743
10664W        W27512  11.388  14.420  11.423  0.0725 -0.2563 -0.0336
10665W        W27513   0.392  11.947  14.572  0.0207  0.1746  0.0189
10666W        W27514   0.754  12.258  14.438  0.0511  0.2394 -0.2274
10667W        W27515   0.473   5.316  12.112  0.1101 -0.0140 -0.3298
10668W        W27516  13.445   2.100   5.444 -0.2190  0.0845  0.1442
10669W        W27517   0.168   1.422   1.986 -0.0591  0.0981 -0.0198
10670W        W27518   3.879   0.092  16.535 -0.2038  0.0438 -0.2632
10671W        W27519  13.887  12.817  11.725 -0.2438 -0.2772  0.3628
10672W        W27520  13.699   7.146  11.771  0.3019 -0.1524 -0.2379
10673W        W27521  17.306   8.909  15.228  0.3575  0.2387 -0.0263
10674W        W27522   9.044   4.968   0.329  0.0318 -0.0331 -0.1799
10675W        W27523   7.234   0.231  14.448 -0.0176 -0.0354  0.1092
10676W        W27524  16.422  16.852  15.500  0.0152 -0.0462  0.0238
10677W        W27525  12.434   8.590   0.071  0.1854 -0.0814  0.1396
10678W        W27526   2.728   8.810  12.731 -0.0834  0.0866  0.0656
10679W        W27527  16.449   2.675  12.898 -0.5247 -0.1693 -0.1739
10680W        W27528   8.508  12.807   3.733  0.2753  0.0801 -0.2318
10681W        W27529   6.202   3.187   3.115 -0.2701  0.1008  0.1819
10682W        W27530   5.228  16.333  11.848  0.0527  0.0129 -0.0526
10683W        W27531   6.572   9.010   1.986  0.3964  0.0516 -0.0932
10684W        W27532   9.747  16.594  10.424 -0.1738 -0.1681  0.0448
10685W        W27533  11.592   3.578   5.307  0.1098  0.1810  0.1227
10686W        W27534   2.520  13.375   1.477  0.3255  0.2044 -0.0184
10687W        W27535  17.295  15.544   4.529 -0.2411 -0.1650 -0.1684
10688W        W27536  14.424  14.517   0.536  0.0206 -0.3041  0.0856
10689W        W27537   0.021  12.491   4.611  0.0622  0.0682  0.2315
10690W        W27538   3.315   3.343  13.911  0.0651  0.1128 -0.1376
10691W        W27539  12.991   4.739  16.379  0.2617 -0.0213  0.1336
10692W        W27540   6.997  16.937  14.995  0.0259  0.2205 -0.1258
10693W        W27541  14.792  13.877  11.356  0.0812  0.0053 -0.1217
10694W        W27542   9.299   1.744   0.956 -0.0762 -0.1619 -0.0631
10695W        W27543   5.712  17.122   3.824  0.0241 -0.1217  0.0579
10696W        W27544  13.271   8.315  16.328 -0.1879  0.2232 -0.0057
10697W        W27545   2.887   9.846   4.137  0.0383 -0.1270 -0.1142
10698W        W27546   4.734  12.186   0.793  0.0154  0.0942  0.1087
10699W        W27547   4.638  13.438  12.866 -0.0235  0.2073  0.1307
10700W        W27548   6.486   7.316   5.499 -0.2049  0.1034  0.0650
10701W        W27549  10.062   2.065   0.337 -0.1336 -0.0068  0.3026
10702W        W27550   4.448  12.729  15.856 -0.0648  0.4834 -0.2088
10703W        W27551  10.755   8.476  11.754 -0.4442 -0.0610  0.2335
10704W        W27552  11.327   1.162  12.212  0.2631  0.1313  0.1919
10705W        W27553   7.662  16.140  15.878 -0.0006 -0.1013  0.0712
10706W        W27554   9.828   2.321  14.775 -0.2300  0.0645 -0.1048
10707W        W27555  12.826   0.226  16.101 -0.0648  0.0859  0.0010
10708W        W27556  15.498  12.021   0.722  0.1042 -0.0329 -0.1965
10709W        W27557  12.924  10.694  11.117  0.2407 -0.1415 -0.0133
10710W        W27558   4.188  16.542   1.147 -0.0588 -0.0534 -0.3142
10711W        W27559   0.327   9.984  13.023  0.1492 -0.0827  0.3035
10712W        W27560   0.871   8.535  16.431  0.0526  0.0883 -0.1227
10713W        W27561   5.467   0.770   1.410 -0.1177 -0.1286  0.0638
10714W        W27562  16.094   5.063  11.928  0.1221  0.1344  0.0525
10715W        W27563   8.824  16.778   3.630 -0.1132  0.0061 -0.0963
10716W        W27564  15.076  12.263  14.014  0.3006 -0.2176  0.1510
10717W        W27565   4.306  15.829   4.484  0.3157  0.0608  0.0222
10718W        W27566   5.102   3.799   5.609 -0.1081 -0.1870  0.0857
10719W        W27567   4.769   4.900   2.710  0.1659 -0.1600  0.1147
10720W        W27568  16.583  12.475   2.905  0.0660 -0.2218  0.1073
10721W        W27569   2.630   3.409   3.659  0.1351 -0.2850  0.0254
10722W        W27570  12.841  16.662   0.393  0.3330  0.1788  0.3059
10723W        W27571  12.084   9.222   3.199 -0.2894  0.1427  0.2835
10724W        W27572  17.020   1.151  12.236 -0.0581 -0.1876  0.1695
10725W        W27573   3.720   0.740  14.519 -0.0804 -0.1651  0.0039
10726W        W27574  13.547   7.729  15.695 -0.0176  0.0422  0.0331
10727W        W27575   9.061   0.900  15.388 -0.1543  0.0570 -0.1611
10728W        W27576   7.775   4.328  16.630 -0.0519 -0.0580 -0.0277
10729W        W27577   3.627   9.120  12.543 -0.1845 -0.0639 -0.0847
10730W        W27578   5.905  12.160  14.158 -0.2868 -0.0836 -0.1262
10731W        W27579   0.062   4.170   3.210 -0.1417 -0.4174 -0.0182
10732W        W27580   9.571  10.787  16.633  0.3429  0.2866 -0.0229
10733W        W27581  12.408  11.192   0.777 -0.3238  0.1650 -0.0506
10734W        W27582  14.777   0.906   5.074 -0.2099  0.1853 -0.1639
10735W        W27583  10.106   8.304   3.248 -0.0279 -0.0765 -0.1701
10736W        W27584   8.982  10.788   3.745 -0.0704 -0.0577 -0.1345
10737W        W27585  17.073  11.939  13.552 -0.0478  0.2056  0.1424
10738W        W27586   3.615  17.068   6.342 -0.0713  0.1414 -0.0982
10739W        W27587   0.598   3.324   2.263  0.3353 -0.1971 -0.0385
10740W        W27588   3.618  15.551   4.687 -0.2126 -0.1168 -0.2264
10741W        W27589  12.813   8.306  14.968  0.0324 -0.2017 -0.2118
10742W        W27590   2.946   8.369  13.339  0.3109  0.2059  0.1638
10743W        W27591   1.885  16.005  13.064  0.1103  0.0135 -0.2106
10744W        W27592   2.702  16.411   1.346  0.0601  0.1530  0.1748
10745W        W27593   6.491   6.842   1.306  0.1710 -0.1981  0.1135
10746W        W27594  17.478  13.189  14.588 -0.0931  0.1134 -0.2894
10747W        W27595   1.323  16.271   3.408 -0.5035 -0.2538  0.0876
10748W        W27596   0.066   1.035   0.784  0.1222 -0.0967 -0.0753
10749W        W27597  16.149  17.126   4.211  0.2569  0.4067 -0.0681
10750W        W27598  13.135   3.513  16.100  0.0386  0.2152  0.2888
10751W        W27599  12.128   1.157  15.499  0.0112  0.1098 -0.3692
10752W        W27600   7.531   2.525  13.256 -0.0051  0.0283 -0.2367
10753W        W27601   3.690   6.793  15.962  0.1292 -0.3660 -0.4426
10754W        W27602   2.996  15.985   1.233 -0.1330 -0.3632  0.2086
10755W        W27603  10.843  16.826  14.729 -0.0646 -0.0638 -0.1318
10756W        W27604  13.584   5.294  14.224  0.4256  0.0633 -0.2404
10757W        W27605  13.067   0.316  14.301 -0.0922 -0.0997  0.0534
10758W        W27606  16.185  15.277  12.949  0.4540  0.3076 -0.1952
10759W        W27607   5.021  13.551  15.573  0.0449 -0.0134  0.0419
10760W        W27608  14.717   3.444  14.797  0.0893  0.0422  0.0768
10761W        W27609   2.139  14.198   2.004 -0.0149 -0.1439 -0.0823
10762W        W27610  14.082   5.762   0.619 -0.1121  0.1086  0.1688
10763W        W27611  11.543  10.305   5.198  0.4499  0.0779  0.1513
10764W        W27612   0.261  13.803   1.129 -0.0082  0.1922  0.2497
10765W        W27613   7.897   5.022   1.197 -0.0255  0.0414  0.0470
10766W        W27614  11.257   7.320  11.964 -0.2547 -0.1248 -0.2315
10767W        W27615  11.722  12.632   5.519 -0.0308 -0.1988 -0.0345
10768W        W27616   3.257   1.268   3.670 -0.2130 -0.3222  0.1338
10769W        W27617  16.981   6.461  13.134  0.2130  0.2713 -0.0576
10770W        W27618   9.616   3.661  15.569 -0.2425 -0.2858  0.4527
10771W        W27619  12.087   1.368   4.313  0.0030 -0.0942 -0.4251
10772W        W27620   5.659   8.223   1.621  0.0630 -0.1143 -0.0676
10773W        W27621   1.255   6.344  11.011 -0.3185  0.0559 -0.0316
10774W        W27622  12.021  12.457   5.173 -0.0277  0.0055 -0.1925
10775W        W27623   3.937   6.007  11.208 -0.3255  0.0527 -0.0777
10776W        W27624   6.961   3.636  15.792  0.0161  0.0332  0.1149
10777W        W27625   4.587   9.519   0.925  0.3735  0.2411  0.1150
10778W        W27626   6.134   8.693  14.051 -0.0842  0.4171  0.1528
10779W        W27627  15.607   6.430  12.526 -0.1037 -0.0181 -0.1735
10780W        W27628  16.138  12.225  13.856  0.0968  0.1953  0.0113
10781W        W27629  10.403  14.278  15.681  0.1153  0.0862  0.1000
10782W        W27630  17.684   8.746  16.339  0.1446  0.2412 -0.1182
10783W        W27631  13.349  15.773  15.727  0.4757 -0.0268 -0.1800
10784W        W27632  15.286   4.216   5.006  0.2142 -0.0932  0.0676
10785W        W27633   4.265   7.783  13.618 -0.0405  0.1051 -0.1854
10786W        W27634  11.258  17.271   6.097 -0.0443 -0.2007 -0.0756
10787W        W27635  11.799   7.308  14.064 -0.3494 -0.1182  0.1466
10788W        W27636   4.847   4.504  12.288 -0.0753  0.0131  0.2097
10789W        W27637   3.149   2.552   2.083 -0.0001 -0.3402  0.0778
10790W        W27638  15.657   5.298   0.338  0.0701  0.2983  0.1927
10791W        W27639   5.177  17.199   4.754 -0.0437 -0.2329 -0.1116
10792W        W27640  15.434   6.134   2.585  0.1825 -0.0579  0.0324
10793W        W27641  14.424  13.880  12.576 -0.0792  0.0019  0.0352
10794W        W27642   6.702   2.982  15.332 -0.0293 -0.2888 -0.0802
10795W        W27643  16.151  14.155   0.894 -0.0867 -0.2069 -0.2415
10796W        W27644   9.386  14.184  16.526  0.3149  0.1233 -0.0429
10797W        W27645  16.530   6.659  13.394  0.1056  0.1012  0.0653
10798W        W27646  10.951   7.320  11.582  0.2650  0.0164  0.1573
10799W        W27647   1.018   6.441   0.601 -0.0153  0.2789  0.1328
10800W        W27648   2.156   7.075   2.509 -0.0228 -0.1611  0.1480
10801W        W27649  12.862   4.803  15.837  0.3266 -0.3407 -0.1032
10802W        W27650   6.956  14.061   4.673 -0.1898 -0.2405 -0.0387
10803W        W27651   7.205  13.576  15.670  0.0819 -0.1707 -0.2674
10804W        W27652   2.911  17.498  14.094  0.0285  0.1081  0.1251
10805W        W27653   7.921  13.354   0.677 -0.2051  0.1759  0.1315
10806W        W27654  15.798   7.840   4.500 -0.2717 -0.0788 -0.0785
10807W        W27655   9.012   3.479   2.883  0.3059 -0.1246 -0.4495
10808W        W27656  15.327   3.558  15.561  0.0837 -0.1877  0.0877
10809W        W27657   8.325   8.166   5.577 -0.0777 -0.3740  0.3466
10810W        W27658  13.477   6.264   1.424 -0.1148 -0.3338  0.1798
10811W        W27659   8.326   3.496  14.547 -0.3445 -0.1428 -0.2074
10812W        W27660  14.743  12.842  13.464  0.0332  0.0855 -0.1669
10813W        W27661  12.120  10.685  11.428 -0.5488 -0.0066  0.1570
10814W        W27662   2.416  15.550   0.536  0.2769  0.2089  0.4384
10815W        W27663   7.732  15.286   2.536  0.4006 -0.0737  0.1595
10816W        W27664   7.011   3.199  16.068 -0.1763 -0.0852  0.2702
10817W        W27665  12.787   2.189  14.997  0.0518 -0.1067 -0.1466
10818W        W27666   5.882  15.378   1.833 -0.1315 -0.2083 -0.2678
10819W        W27667   5.535   2.454  15.065 -0.1692  0.3618 -0.2637
10820W        W27668  14.694   8.746   1.585  0.0747  0.1927 -0.4286
10821W        W27669  13.161   6.345  11.584  0.0573  0.1824 -0.0276
10822W        W27670  13.954   3.630  12.433  0.2306  0.0763 -0.1996
10823W        W27671  15.016   3.616  13.258  0.1902 -0.1307  0.2222
10824W        W27672   1.622  10.064   2.947 -0.1242 -0.0521  0.0011
10825W        W27673   3.523  10.308  16.354  0.0022 -0.1356  0.1550
10826W        W27674  12.354   8.920  13.062  0.1554  0.2468  0.4257
10827W        W27675  13.384  10.740   5.741 -0.1649  0.1255 -0.4239
10828W        W27676   3.904  14.636  11.841  0.1592 -0.1792  0.1735
10829W        W27677  13.581   5.472   2.414  0.1452  0.2888  0.1588
10830W        W27678   4.328  12.458  14.586 -0.1805 -0.2024  0.0781
10831W        W27679   9.386  10.530  13.671  0.0455  0.0227  0.1317
10832W        W27680   6.358   0.069  15.757 -0.1306 -0.0372 -0.1508
10833W        W27681   9.687   5.685  15.333 -0.2714  0.0835  0.0865
10834W        W27682   2.864   5.568  12.004 -0.3166 -0.3699  0.0882
10835W        W27683   7.340   4.128  10.778 -0.0594  0.1097 -0.1325
10836W        W27684   3.933  13.166   1.281 -0.2256 -0.0901  0.2985
10837W        W27685   4.436   1.759   4.170 -0.1700  0.2534 -0.1415
10838W        W27686   5.867  17.512  14.681  0.0213 -0.2583  0.1100
10839W        W27687  14.013   5.482  12.319  0.0354  0.5799  0.0582
10840W        W27688  10.797   4.785   0.855  0.1000 -0.2296 -0.1413
10841W        W27689   6.132   3.676  15.515  0.3305  0.0272  0.1202
10842W        W27690   5.675   1.043  16.138  0.2187  0.1095 -0.0955
10843W        W27691   1.675   1.934  13.173  0.0079 -0.0399  0.0379
10844W        W27692   4.927  16.020   1.548 -0.0748  0.4473 -0.1089
10845W        W27693  10.989   8.815  15.161 -0.2514 -0.0292  0.2233
10846W        W27694   7.520   7.843   0.024 -0.0970 -0.2152  0.0452
10847W        W27695  12.677  15.644  16.057  0.2505 -0.0837  0.0580
10848W        W27696   8.755   2.002  12.420  0.0188 -0.0648  0.0295
10849W        W27697   4.008   0.877   2.648 -0.2001  0.1663  0.2388
10850W        W27698   3.205  11.649  12.508  0.0714 -0.0728  0.2417
10851W        W27699   8.728   3.887  15.816 -0.0671 -0.0033  0.0163
10852W        W27700   6.706  12.752   2.113  0.0165  0.1020 -0.0455
10853W        W27701   5.485  14.538   5.594  0.2540  0.0263 -0.1078
10854W        W27702   7.690  12.337   2.892 -0.0284 -0.0022  0.1128
10855W        W27703  11.224   1.766   1.118  0.0227 -0.3504  0.1605
10856W        W27704  12.192  17.537   3.168 -0.0031 -0.0415  0.0394
10857W        W27705   9.129   7.342  12.751  0.2213  0.0354 -0.0147
10858W        W27706   3.288   0.803  14.776 -0.0904  0.0366 -0.2772
10859W        W27707   8.657  13.863  15.517  0.0251  0.0247 -0.1629
10860W        W27708  17.403   0.302   6.410  0.0635 -0.0919 -0.0935
10861W        W27709   1.300   3.299   2.770 -0.0266  0.2159  0.2055
10862W        W27710   1.340  10.913  10.839  0.0509 -0.0843 -0.1301
10863W        W27711  11.744   6.369   2.658  0.0204  0.2021 -0.0095
10864W        W27712   0.383  10.651   0.782  0.1871 -0.0590 -0.0014
10865W        W27713  15.917   8.276   0.744 -0.2306 -0.2838 -0.1121
10866W        W27714   9.247  12.603  14.098  0.0958 -0.1972 -0.0911
10867W        W27715  12.293   6.125   4.492  0.2593 -0.1457  0.0545
10868W        W27716   3.951  14.255   1.908 -0.0222  0.0661 -0.1196
10869W        W27717  16.149  16.841  15.941 -0.1659  0.1508  0.1020
10870W        W27718  15.531   7.723   4.138  0.0486 -0.1628  0.2979
10871W        W27719  14.827  11.684  12.422  0.1034  0.0213 -0.0629
10872W        W27720   2.121  13.636  13.334  0.0887  0.1040 -0.0065
10873W        W27721  13.494  10.819  14.215  0.1330  0.2822  0.0016
10874W        W27722   3.270   6.449  14.727 -0.1668  0.1329  0.2994
10875W        W27723   1.603  11.076   4.248  0.1421 -0.0466 -0.0409
10876W        W27724   4.373   0.578   4.995 -0.0386 -0.1012 -0.1037
10877W        W27725  12.921  14.977  12.778  0.1011  0.1839  0.4032
10878W        W27726   7.632  13.880   0.377  0.0060  0.0637  0.3529
10879W        W27727  17.133   7.425   0.124  0.3034 -0.0314  0.0417
10880W        W27728  12.240   4.923   4.734 -0.0331 -0.0161 -0.0057
10881W        W27729  10.858  16.627   2.141  0.1045  0.0557  0.0328
10882W        W27730  10.408  17.181   4.219 -0.0815 -0.0289 -0.1569
10883W        W27731   9.097  15.203  10.799 -0.0950  0.2029 -0.0642
10884W        W27732  15.774   2.268   3.416  0.1597  0.1515 -0.1598
10885W        W27733   6.712   0.008   2.862  0.3492  0.2979  0.0080
10886W        W27734   6.720   9.448  11.263  0.0586  0.1660  0.1367
10887W        W27735   8.676  10.322   2.272 -0.3786 -0.0207 -0.2706
10888W        W27736  14.413   1.242  15.095  0.0422  0.0044  0.2827
10889W        W27737   1.598  15.062   2.069 -0.1575  0.0929 -0.0125
10890W        W27738  16.491  16.484   3.077  0.2541  0.0754  0.0106
10891W        W27739   4.301   1.029   3.216  0.3019 -0.0345 -0.1892
10892W        W27740   7.538   2.354   2.343  0.2236 -0.3164 -0.2656
10893W        W27741   1.511   1.596  15.973 -0.0545  0.3099  0.1604
10894W        W27742  16.975   8.575  12.296 -0.3203 -0.2150  0.2731
10895W        W27743  10.865   0.122  11.746 -0.1228 -0.0239  0.0079
10896W        W27744   6.453   2.796  11.539 -0.2686 -0.1869 -0.1998
10897W        W27745  14.246  15.273   1.185  0.0062 -0.1656 -0.0660
10898W        W27746  16.933  11.474  13.463  0.2699  0.0447  0.3837
10899W        W27747   5.933  16.842   2.268 -0.1191 -0.2032  0.1113
10900W        W27748  16.211  11.282  12.369 -0.2305 -0.1347  0.1456
10901W        W27749   4.906   6.277  15.917  0.0780  0.1104 -0.2182
10902W        W27750   6.080  15.546   2.501  0.0952  0.2648 -0.0105
10903W        W27751   6.230   1.665   5.541  0.0201 -0.2242  0.0268
10904W        W27752   5.368  11.605  10.290  0.1331 -0.1715 -0.2125
10905W        W27753  14.723   3.217   0.430  0.1674 -0.0065 -0.1833
10906W        W27754   1.505  13.019  12.675  0.0198 -0.0234 -0.1545
10907W        W27755   9.942   4.922  15.510  0.0901  0.0267 -0.1737
10908W        W27756  12.940   9.390   4.343  0.0539 -0.0721 -0.1864
10909W        W27757  14.891   4.687  14.904 -0.2149 -0.2418 -0.0644
10910W        W27758  12.361   8.178   3.642 -0.1407  0.3004 -0.1623
10911W        W27759   3.281   0.755   3.436 -0.0472 -0.0562  0.1880
10912W        W27760  15.341   6.837  14.386 -0.0076 -0.1227  0.1812
10913W        W27761  12.508   8.293  14.032  0.0150 -0.2397 -0.0835
10914W        W27762  15.943   6.501  12.879  0.3189  0.0859 -0.1180
10915W        W27763  11.528  11.903  15.917  0.1799 -0.1029 -0.0827
10916W        W27764   1.252  10.763   5.141 -0.0248  0.1248  0.0777
10917W        W27765  15.465   5.389   5.396 -0.1827 -0.0256  0.1620
10918W        W27766  13.587  17.215  15.896 -0.0295  0.0564  0.0701
10919W        W27767   1.862   3.171  16.306 -0.2553  0.0249 -0.0568
10920W        W27768  15.166  11.446  15.111  0.2257  0.0748  0.0835
10921W        W27769   4.308   9.476  16.047  0.0612  0.1684 -0.3614
10922W        W27770  16.309   5.964  13.730  0.1142  0.3768  0.1139
10923W        W27771  13.364   0.723  14.346 -0.0971 -0.2790  0.0119
10924W        W27772   1.370   8.446   5.016 -0.1358  0.0008 -0.0493
10925W        W27773   8.090   5.794  12.328 -0.2320 -0.1678 -0.0048
10926W        W27774   8.163  13.533   5.187 -0.0208  0.1586 -0.0762
10927W        W27775  16.461  10.326  15.120 -0.1375 -0.0379  0.0246
10928W        W27776  15.297   2.251  12.784 -0.1378  0.1349 -0.0857
10929W        W27777   7.918   0.147  13.096  0.1778 -0.1083  0.2189
10930W        W27778  17.078   7.615   4.252  0.2992  0.0840  0.1029
10931W        W27779   3.353   9.766  13.331  0.2285 -0.5242 -0.1159
10932W        W27780  10.730   3.428  14.265  0.1358 -0.0480  0.2635
10933W        W27781   1.014  14.772  11.738 -0.2208  0.1840 -0.2573
10934W        W27782   4.487   6.644  12.942  0.2999  0.1416 -0.2206
10935W        W27783   0.789   2.745   2.238  0.1567  0.3223  0.1927
10936W        W27784  17.682  16.286  14.790 -0.0067  0.2359  0.3420
10937W        W27785   4.293   4.942  13.967  0.0188  0.0845  0.1522
10938W        W27786   3.557   6.887   6.285  0.1618 -0.0814 -0.0105
10939W        W27787   2.562   5.214  12.264 -0.1280 -0.0613 -0.0414
10940W        W27788  14.384  15.231  12.722  0.1338 -0.2693  0.0003
10941W        W27789  14.267   3.070  15.451  0.3512  0.2592  0.1158
10942W        W27790  17.650  10.797   2.403 -0.1149 -0.2913 -0.0573
10943W        W27791  12.916  17.294  11.973 -0.2876  0.1267 -0.1770
10944W        W27792   9.684  11.730  15.587  0.0684 -0.0829  0.1284
10945W        W27793   0.808  15.464   0.538  0.2116  0.1653 -0.2500
10946W        W27794  11.788   6.318   4.389  0.1189  0.2217 -0.0078
10947W        W27795  12.905   3.892  15.098  0.1549 -0.1649 -0.2952
10948W        W27796   8.521  15.883   1.908 -0.1235 -0.0510  0.0518
10949W        W27797  10.458   8.404  10.439 -0.0441 -0.0037 -0.0551
10950W        W27798   6.531  16.228   2.721 -0.2635 -0.1902  0.3857
10951W        W27799   8.907   2.257  14.350 -0.1490 -0.0781 -0.4736
10952W        W27800  10.001   1.101  13.503 -0.2591 -0.0830  0.0782
10953W        W27801  17.013  17.374  16.364 -0.0012  0.1742  0.0682
10954W        W27802   0.235   5.328  14.865 -0.0987 -0.3979 -0.1342
10955W        W27803   1.191   8.897  12.646 -0.1393  0.0609  0.0321
10956W        W27804  13.033  14.438  11.837  0.2448  0.3060 -0.3076
10957W        W27805  10.520   1.877   0.505  0.1755  0.1336  0.0838
10958W        W27806   3.787   1.613  14.064 -0.1870  0.2501 -0.0319
10959W        W27807   5.095   7.205   2.485 -0.0630 -0.1206 -0.2290
10960W        W27808  15.403   8.241  13.379  0.1210  0.3556 -0.2850
10961W        W27809   9.623  11.587  14.322  0.0977  0.0701  0.1075
10962W        W27810   9.628   4.961   3.446  0.1022 -0.0603  0.2723
10963W        W27811   8.425  11.725   0.197 -0.2221  0.2305  0.2092
10964W        W27812  11.616   1.779  15.295 -0.2190  0.0525 -0.0733
10965W        W27813  14.017   6.799  11.583  0.0358 -0.0479  0.0074
10966W        W27814   3.170   0.901   0.758 -0.2354 -0.1356  0.1145
10967W        W27815   5.909   0.143  16.440  0.0655 -0.2764 -0.2103
10968W        W27816  17.318   6.155  11.807 -0.1295 -0.0316  0.0195
10969W        W27817  12.643   0.619  16.408  0.1056 -0.2029 -0.2100
10970W        W27818   7.389  14.353   2.314 -0.2023 -0.1645  0.1592
10971W        W27819   9.247  13.907   1.429  0.0991  0.2900 -0.1972
10972W        W27820   2.170   5.186   3.369  0.0500  0.0222 -0.0512
10973W        W27821   0.852  16.032   0.949 -0.0576  0.1016  0.0429
10974W        W27822   6.719   4.581  16.034 -0.0735 -0.0025 -0.2552
10975W        W27823   1.609  17.519   3.097 -0.1343  0.1568  0.2083
10976W        W27824  13.099  14.120  15.237 -0.1722  0.0186  0.1488
10977W        W27825  10.933   4.120  11.783  0.2449 -0.2591 -0.0439
10978W        W27826  16.515   1.662  11.532 -0.1849 -0.1919 -0.1611
10979W        W27827   8.481   6.905  14.295  0.0846 -0.0159  0.0247
10980W        W27828   1.448   3.399   1.118 -0.0915 -0.3198  0.3402
10981W        W27829  11.203   5.785   0.484  0.0289 -0.0644  0.0027
10982W        W27830   2.718   5.190   1.110  0.2797  0.0750 -0.3100
10983W        W27831  11.924   0.091  13.954  0.0693  0.0813  0.2126
10984W        W27832  15.561  12.818   4.936 -0.1363 -0.0915  0.1947
10985W        W27833   0.101  11.186  13.590 -0.5597  0.0879  0.1204
10986W        W27834  12.485   8.521   0.882  0.0625 -0.2832 -0.0740
10987W        W27835   2.167  11.158  13.512 -0.0810  0.3710  0.2623
10988W        W27836  16.022   4.230   2.194 -0.0343  0.1914  0.0514
10989W        W27837  15.998   8.344  12.447 -0.0720 -0.0450 -0.3586
10990W        W27838   0.784   1.659   0.388  0.3109  0.0063  0.1276
10991W        W27839  15.154  17.627  15.668  0.0196  0.0014 -0.2449
10992W        W27840   4.594   3.051  13.080 -0.2452 -0.1325  0.0306
10993W        W27841  16.092   2.222  14.910  0.0052 -0.0994 -0.1786
10994W        W27842   7.191   8.115  14.303 -0.2026 -0.0827  0.0910
10995W        W27843  16.215   2.313  13.110  0.0265  0.1459 -0.1267
10996W        W27844   0.798  11.665  15.235 -0.1942  0.0539  0.0533
10997W        W27845  14.439  13.902   3.524 -0.0169 -0.0511 -0.3082
10998W        W27846  13.546   7.869   0.814 -0.2085  0.0145  0.2314
10999W        W27847  11.655   4.741  12.788 -0.0771  0.1067 -0.0579
11000W        W27848   3.763  16.032  15.168  0.1305 -0.0164 -0.0205
11001W        W27849  14.255   7.402  12.650  0.0360  0.1474  0.2686
11002W        W27850   9.037   4.684  10.351 -0.3587 -0.1081  0.0530
11003W        W27851   5.668  14.967  15.032 -0.1382 -0.0258 -0.0558
11004W        W27852   6.364  12.724  11.982  0.0401  0.0486  0.1322
11005W        W27853  16.548  14.770  14.482 -0.2827  0.1065 -0.0472
11006W        W27854  15.559   6.747   1.805  0.4226 -0.2045 -0.0388
11007W        W27855  17.043   9.409   4.446 -0.2351  0.0050 -0.4392
11008W        W27856  15.231   3.363  15.034  0.0046 -0.5494  0.1521
11009W        W27857   5.827   3.156  16.457  0.1759 -0.1460 -0.1840
11010W        W27858  14.519  14.690  16.366  0.1578  0.2483  0.0999
11011W        W27859  10.368  16.666   2.219 -0.0596  0.1726  0.1574
11012W        W27860  16.306  15.948   1.304  0.0700  0.0890  0.1046
11013W        W27861   7.447   6.923  11.778 -0.4015 -0.1256 -0.1807
11014W        W27862   8.436  11.569  14.996  0.1001  0.1835  0.0174
11015W        W27863   1.810  10.457   2.107  0.2523  0.0326  0.0821
11016W        W27864   0.530   3.068   4.752  0.0380  0.1903 -0.2463
11017W        W27865  13.629   8.858  13.827  0.0803  0.4786 -0.3001
11018W        W27866   0.843  16.132  13.656 -0.0370 -0.0821 -0.1455
11019W        W27867  13.133  13.632  15.019 -0.2480 -0.0755 -0.0603
11020W        W27868   7.533  16.528  15.619 -0.0675  0.2293 -0.0156
11021W        W27869   5.696  17.597  13.625  0.2240  0.1394 -0.2947
11022W        W27870  16.066   3.178   2.211 -0.0119  0.0911  0.0141
11023W        W27871   6.667   5.140  13.341  0.1404 -0.1060  0.0338
11024W        W27872  15.256   3.166   1.984  0.1501  0.1386  0.1960
11025W        W27873  12.283   9.544   1.724 -0.2275 -0.1024  0.0724
11026W        W27874  12.910   6.502  12.746  0.1891 -0.2795 -0.1579
11027W        W27875  15.671   9.041  15.344  0.2516  0.0578  0.3937
11028W        W27876  15.512   7.075  10.886 -0.2528  0.1650 -0.0696
11029W        W27877   4.052   1.341   0.674  0.1967 -0.3185 -0.1105
11030W        W27878  10.614   6.586   0.313  0.0930  0.0816  0.0526
11031W        W27879   4.085  11.019  14.937 -0.1211  0.0732  0.1037
11032W        W27880  17.424  13.609   6.021 -0.2034 -0.0932 -0.0910
11033W        W27881  15.324  17.426   4.962 -0.2047  0.0381  0.0025
11034W        W27882   0.041   8.539  12.889  0.0312  0.1732 -0.0607
11035W        W27883  16.187  11.867   0.148  0.1969 -0.1308 -0.0819
11036W        W27884   6.613  17.248   0.718  0.0625  0.2690  0.1056
11037W        W27885  14.062   8.033  14.248  0.1172  0.1549 -0.1706
11038W        W27886   2.179   2.543   2.208 -0.0510  0.1919  0.2514
11039W        W27887   9.360  11.218  12.424  0.3881 -0.0125  0.1160
11040W        W27888   2.927  12.487  14.004 -0.0025 -0.1764 -0.1479
11041W        W27889   2.669   3.509   5.375 -0.0092  0.2664  0.1611
11042W        W27890  16.705   6.715   1.709  0.0861  0.0818  0.1420
11043W        W27891  12.706   9.826  10.608 -0.0055 -0.1011  0.3859
11044W        W27892   4.748   5.226  13.776 -0.1284  0.1011 -0.1349
11045W        W27893  17.409  11.177  15.801  0.2238 -0.2775 -0.0844
11046W        W27894   3.021   0.088  14.503  0.0103  0.1050 -0.0750
11047W        W27895   7.771   0.302   2.680 -0.1670 -0.1223 -0.2832
11048W        W27896  16.941  10.772  16.149 -0.0029 -0.0332 -0.3745
11049W        W27897  16.474  12.341   5.647  0.0750  0.0426 -0.1174
11050W        W27898   2.428   3.012  12.255  0.1514  0.1647 -0.2729
11051W        W27899  11.060   7.388  14.116  0.0900  0.1488  0.2398
11052W        W27900   3.092   8.801   2.204  0.0049 -0.0520  0.1203
11053W        W27901  12.619   3.319  12.479 -0.4560  0.0116 -0.2910
11054W        W27902   9.454   8.599   0.694  0.0884  0.0877 -0.0145
11055W        W27903   0.251  11.168   4.281 -0.0135 -0.3277 -0.0017
11056W        W27904  10.947   2.966   1.863 -0.0622 -0.0861 -0.0658
11057W        W27905  15.832  14.865  16.552  0.0103  0.0889 -0.1469
11058W        W27906   8.589   9.631  15.494 -0.0662 -0.3236 -0.0545
11059W        W27907  10.816   6.571  16.450  0.4255  0.1855 -0.0602
11060W        W27908  11.616  12.667  12.274  0.1612  0.1367  0.0424
11061W        W27909  14.953  12.800   1.066  0.1627 -0.0547  0.0517
11062W        W27910  16.587   1.564  12.267 -0.0002 -0.2541 -0.0551
11063W        W27911   5.808  16.358   5.038 -0.0455 -0.2684 -0.0695
11064W        W27912   4.419  16.878   6.072 -0.5581  0.0137  0.1087
11065W        W27913   9.361  12.535   3.525  0.2299  0.4410 -0.2316
11066W        W27914  10.005  12.029  14.339 -0.2220 -0.2082  0.3066
11067W        W27915  14.841   6.691  13.575  0.0741 -0.2582  0.0563
11068W        W27916  16.212  10.264  11.251 -0.0686  0.1145 -0.1891
11069W        W27917  14.461   5.968   3.732 -0.2307 -0.1498 -0.0680
11070W        W27918   4.388   7.992  12.489 -0.0415 -0.0358 -0.0691
11071W        W27919   8.046  13.281  15.365  0.2300  0.3233 -0.0326
11072W        W27920   1.918   1.011  14.010 -0.1290  0.0709  0.2032
11073W        W27921  14.047   2.556   3.331  0.0976  0.0269  0.1801
11074W        W27922   5.480   2.381  15.703 -0.1415 -0.3974 -0.2427
11075W        W27923   7.371   9.421   2.810 -0.0978 -0.1025  0.3425
11076W        W27924  15.303  11.407   3.395  0.0757  0.0090  0.1640
11077W        W27925  10.906  12.139   1.272 -0.0113  0.1961  0.0218
11078W        W27926  10.805  16.939  13.287 -0.2180 -0.0845  0.0985
11079W        W27927  11.476   4.340  14.592 -0.0669 -0.1299  0.3795
11080W        W27928   4.607  16.285   1.232 -0.2254  0.0950  0.1008
11081W        W27929  11.790   4.652   0.025  0.2282  0.0734 -0.0693
11082W        W27930  17.392   4.110   4.042 -0.1697  0.1142  0.2674
11083W        W27931  16.816  17.269  15.939 -0.0910 -0.2711 -0.1161
11084W        W27932  14.732  15.394  12.032 -0.0272 -0.0569 -0.2629
11085W        W27933   3.723   9.930  15.963  0.0835 -0.0970 -0.0625
11086W        W27934   0.639   2.052   5.368 -0.0842 -0.2748  0.0423
11087W        W27935  17.641   4.342   4.593 -0.1629  0.0869  0.0957
11088W        W27936  14.335  11.361  16.661 -0.1625 -0.2205  0.1347
11089W        W27937   7.529   0.328   2.239 -0.0909 -0.1129 -0.1484
11090W        W27938   9.441  10.648   4.583 -0.0309  0.1549  0.0063
11091W        W27939  12.813  11.643   4.270  0.1849 -0.1257  0.0878
11092W        W27940   4.764   7.300   0.350 -0.1430 -0.1108 -0.0374
11093W        W27941   5.250  11.085   3.913 -0.0787  0.0480 -0.0987
11094W        W27942   6.375  17.003   0.272  0.0136  0.4005  0.0515
11095W        W27943  12.411   2.187  10.903 -0.0229 -0.1083  0.0196
11096W        W27944   4.543  12.433   0.362 -0.5479  0.1652  0.2231
11097W        W27945   2.241   8.189   3.601  0.1237  0.1018  0.3988
11098W        W27946   1.334   7.125   1.675 -0.1961 -0.2049  0.1051
11099W        W27947   4.740  15.862  15.533  0.1910 -0.2546  0.4335
11100W        W27948  15.937  16.647  13.453 -0.3289 -0.0251  0.0734
11101W        W27949  16.066   8.246  15.584  0.0664  0.0294 -0.0800
11102W        W27950   6.764  12.611   4.296  0.1043  0.1890 -0.1171
11103W        W27951  13.118   0.067   3.728 -0.0252 -0.2429 -0.1909
11104W        W27952   4.847   3.395   3.405  0.0858  0.2317  0.1589
11105W        W27953   5.219   1.926  16.293 -0.2239 -0.1622 -0.3969
11106W        W27954   5.154   7.126  15.199 -0.0168  0.3352  0.0423
11107W        W27955  13.297   2.312   1.137 -0.2549 -0.0602 -0.1272
11108W        W27956   4.779  15.620  13.050 -0.1417  0.1343  0.1866
11109W        W27957   2.163   8.138  15.186 -0.2213  0.2848 -0.0288
11110W        W27958   6.988  13.523  12.802 -0.2043  0.3355 -0.0049
11111W        W27959  13.386  16.665  13.424 -0.0405  0.1044  0.1593
11112W        W27960   1.053  17.594   0.618  0.0830 -0.3217  0.3489
11113W        W27961   9.394  14.506   1.572 -0.0169  0.0843  0.2099
11114W        W27962   5.381   2.440   3.347 -0.1010 -0.1753 -0.1530
11115W        W27963   7.098  12.669   1.806  0.1363 -0.0266 -0.2572
11116W        W27964  11.209   2.251   0.900 -0.1758  0.0791 -0.0492
11117W        W27965  10.345   1.707   1.926  0.0934  0.2484  0.1412
11118W        W27966  12.735  10.724  12.841  0.1225 -0.5947  0.2658
11119W        W27967   0.851  15.268   1.699  0.0461  0.0213  0.1117
11120W        W27968   2.038   2.316   1.556 -0.0931  0.0005 -0.0589
11121W        W27969  11.492   7.025   3.919  0.0393 -0.0746 -0.2007
11122W        W27970  14.775   1.830   2.876 -0.1314  0.1062  0.0170
11123W        W27971   3.277   2.907   5.135  0.0113 -0.1517 -0.0725
11124W        W27972   6.864   6.965   2.473 -0.1307 -0.2987 -0.1310
11125W        W27973  13.868  12.261  11.718  0.0250  0.0891  0.1550
11126W        W27974  10.732  16.707  15.846 -0.0438  0.0768 -0.2192
11127W        W27975   3.151   2.732  11.719 -0.4252 -0.2642  0.0816
11128W        W27976  15.190   3.905   1.397 -0.1049  0.0980  0.1446
11129W        W27977   4.145   1.061   4.937 -0.0805  0.0378 -0.1591
11130W        W27978  17.594   3.320   3.450 -0.1036  0.0653  0.3140
11131W        W27979   0.785  15.781  16.058 -0.0936  0.2946 -0.0522
11132W        W27980  15.454  14.320  15.753 -0.2374  0.3054 -0.1284
11133W        W27981   3.807  13.601  15.001 -0.1323  0.3664  0.0343
11134W        W27982  12.552   2.336  13.163  0.1127 -0.0635 -0.0652
11135W        W27983   5.075  12.006   5.184 -0.2084  0.0066 -0.1871
11136W        W27984   4.809   2.403  13.644 -0.0640 -0.1161 -0.2533
11137W        W27985   6.517   1.277   4.374 -0.1173  0.3251  0.1336
11138W        W27986  17.135   2.132   5.226 -0.0806  0.0455  0.0389
11139W        W27987   4.798  12.292  13.421 -0.1166  0.3940 -0.2152
11140W        W27988   1.229   3.087   1.463 -0.1818 -0.0788 -0.2345
11141W        W27989  17.036  16.163   3.553  0.4095 -0.2252  0.0739
11142W        W27990  16.481   1.693   4.997  0.3821  0.0074 -0.0676
11143W        W27991   8.167   5.742   3.459  0.0177  0.1632  0.1116
11144W        W27992   4.275  16.870  15.012  0.3162 -0.0163  0.1721
11145W        W27993   7.187  11.591  13.588 -0.0631 -0.1036 -0.1256
11146W        W27994  12.831   8.881   2.084 -0.1655 -0.3927  0.0148
11147W        W27995   9.305  17.659  12.483 -0.0632 -0.0012 -0.1780
11148W        W27996  17.309  11.192  16.325 -0.1704  0.1120  0.1672
11149W        W27997   6.980   0.737  16.187  0.0997  0.3585  0.2484
11150W        W27998   0.169   6.429  13.631  0.0631  0.2393  0.0983
11151W        W27999   6.354  15.576   2.989 -0.0703 -0.0654  0.0614
11152W        W28000   3.907  16.648   4.375 -0.2080 -0.0149 -0.1025
11153W        W28001   0.875  11.212   5.196  0.1626  0.1404  0.1041
11154W        W28002   1.255   4.865  11.932 -0.0897  0.1752  0.2530
11155W        W28003   1.713  16.923   2.826  0.1452 -0.1344 -0.2247
11156W        W28004  13.537   6.845   2.099 -0.1530 -0.3238  0.1232
11157W        W28005   5.454  17.664   3.240  0.0363 -0.0958 -0.1995
11158W        W28006   0.025   8.038  15.240  0.0118  0.0964  0.0965
11159W        W28007  11.901   5.978  13.555 -0.4549 -0.2507 -0.3140
11160W        W28008   1.108   4.534  13.999  0.1242 -0.2800 -0.0227
11161W        W28009   8.067   0.490   4.356  0.0591 -0.1596 -0.0399
11162W        W28010  14.159  14.275   0.891  0.3212 -0.0082  0.0588
11163W        W28011   3.247  13.996   2.746  0.1465 -0.0697 -0.0937
11164W        W28012  14.997   7.577  16.132  0.0556 -0.1561 -0.1594
11165W        W28013  13.408  14.216   4.421  0.1711  0.0889 -0.1969
11166W        W28014   5.563   7.808   0.665 -0.0034  0.4068  0.1360
11167W        W28015  14.749   9.011  10.270 -0.0809 -0.2892 -0.1019
11168W        W28016  13.245  16.476  15.161 -0.0636 -0.0407  0.0930
11169W        W28017  16.998  10.814  11.786  0.1211 -0.2431 -0.1078
11170W        W28018  14.349  17.285  11.883 -0.3079 -0.1490  0.0310
11171W        W28019   7.328   7.878   1.939  0.0339 -0.1799 -0.1224
11172W        W28020   0.681   7.431   4.516  0.2511  0.1450 -0.2437
11173W        W28021   0.083  12.619   1.675 -0.2585  0.0071  0.0980
11174W        W28022  13.331   7.932  13.948  0.2601  0.2146  0.0237
11175W        W28023   2.375  16.126  15.454  0.1380 -0.0495  0.1341
11176W        W28024   4.674   9.773  14.400  0.0431 -0.0083 -0.1807
11177W        W28025  12.215   6.235   3.980 -0.0239 -0.0253 -0.0499
11178W        W28026  11.334   0.143  15.908  0.2957  0.2002  0.0504
11179W        W28027   4.223  11.289   3.573 -0.2120 -0.2133  0.0038
11180W        W28028   1.380   8.405   4.530  0.1524 -0.1406  0.0004
11181W        W28029   6.226   8.008   3.162 -0.0806  0.2603 -0.0149
11182W        W28030  15.454   7.700  12.859 -0.1451  0.0238  0.1068
11183W        W28031  15.945   5.693   0.603  0.0612 -0.1060  0.2913
11184W        W28032  16.745   9.342   4.015 -0.2279 -0.0296 -0.0582
11185W        W28033   1.534   0.511   2.440  0.2541  0.2532  0.1117
11186W        W28034   1.282   6.318   3.837 -0.0942 -0.0307  0.3699
11187W        W28035  16.052   2.320   2.093  0.1295  0.0709  0.0757
11188W        W28036   2.151   7.653   1.616 -0.1493 -0.0010  0.1652
11189W        W28037  15.275  14.194  12.969  0.1763  0.0114  0.0168
11190W        W28038   9.340  10.709  14.332  0.0891 -0.1073 -0.2042
11191W        W28039   8.006   5.159   0.662 -0.0057 -0.2524 -0.0188
11192W        W28040   7.408  16.065  14.214  0.1373  0.1993 -0.2021
11193W        W28041   4.165   8.952  15.090 -0.0203 -0.0503  0.2170
11194W        W28042  15.192   2.167   0.222 -0.0287  0.0173  0.1825
11195W        W28043  10.466  12.666   4.627  0.0937  0.0828  0.2086
11196W        W28044  13.909   4.703   2.529 -0.0904 -0.2164  0.3449
11197W        W28045  17.596  15.318   0.284 -0.3067 -0.3532  0.4795
11198W        W28046   8.144   8.437  15.553 -0.1780  0.0335  0.2522
11199W        W28047  14.301   9.064  11.841 -0.0164 -0.2348  0.1056
11200W        W28048   3.889  16.942  14.036 -0.1213  0.3086 -0.0344
11201W        W28049  11.086  17.269   2.734  0.2724  0.1287 -0.0797
11202W        W28050   8.740  16.536   2.705 -0.0450  0.1795 -0.2522
11203W        W28051  16.777   6.766  12.750  0.0470 -0.0795 -0.1146
11204W        W28052   2.025  10.789   9.989 -0.1349  0.1394 -0.1964
11205W        W28053   2.813   3.796   0.813 -0.2393 -0.0893  0.0162
11206W        W28054   5.148  16.125   0.090  0.3175 -0.1485  0.0397
11207W        W28055  16.389   1.346  16.445 -0.0703 -0.0905  0.1089
11208W        W28056   3.651   1.305  15.522 -0.4333  0.0539  0.2174
11209W        W28057  14.434  17.333  12.665 -0.1254 -0.1221 -0.1037
11210W        W28058  14.229   5.692  12.881 -0.3436 -0.0542  0.0291
11211W        W28059   5.622   1.097  15.055 -0.0676 -0.1550 -0.2105
11212W        W28060   5.198   3.531   1.711  0.0442  0.0858 -0.1031
11213W        W28061  12.762  14.988  14.140 -0.1250  0.2223  0.0391
11214W        W28062  10.803   8.087  15.705 -0.1955  0.3521  0.0044
11215W        W28063   6.371  10.090  12.010 -0.0809  0.2651  0.0751
11216W        W28064  15.405  12.175   5.134  0.1115  0.0492  0.1606
11217W        W28065  13.437   2.842  13.939 -0.1560  0.0082 -0.0054
11218W        W28066   4.658   2.286  14.541  0.0232 -0.2287  0.1748
11219W        W28067  16.570   9.605   0.724 -0.0744 -0.2092 -0.1447
11220W        W28068   3.863  12.308  14.822  0.1054  0.0395  0.0404
11221W        W28069   0.470   7.971   4.430  0.0005 -0.0066  0.3417
11222W        W28070   1.922  12.007  11.571  0.1101  0.0597 -0.0885
11223W        W28071  17.056  17.472  13.756  0.1264 -0.1544  0.0183
11224W        W28072   8.861  14.254   1.435  0.1337 -0.3079  0.0693
11225W        W28073   4.703  14.215  14.777 -0.0003  0.1152  0.2954
11226W        W28074   4.696  15.018   3.199  0.1031  0.0904  0.0305
11227W        W28075   5.187  17.249   3.148 -0.1216  0.2090  0.0425
11228W        W28076   4.331   7.689  14.617 -0.0217 -0.2082  0.1066
11229W        W28077  17.617   9.815   1.059  0.0394  0.0370  0.0718
11230W        W28078   4.220  15.130   2.274 -0.3186  0.2060  0.3568
11231W        W28079  16.449   0.579   2.764  0.2512  0.0372  0.2515
11232W        W28080   5.517   2.189   2.469  0.0708 -0.2216  0.0346
11233W        W28081  12.621   9.046   3.232  0.2332 -0.0282 -0.1912
11234W        W28082   0.195   0.399  10.434 -0.1053 -0.2464  0.1172
11235W        W28083   0.147   7.524  16.411  0.1241 -0.0798  0.0969
11236W        W28084   2.195   7.214  11.889 -0.1561 -0.0191  0.4115
11237W        W28085   2.318  11.807  13.719 -0.1909  0.2508 -0.1785
11238W        W28086   8.373   8.782   0.381  0.2284  0.1620  0.0049
11239W        W28087  10.320   0.876   2.727  0.1077  0.0908 -0.3055
11240W        W28088   9.558   1.316   1.983  0.1793 -0.3174 -0.0478
11241W        W28089   9.314   4.430   0.215 -0.0842  0.1447  0.0368
11242W        W28090  16.280  16.964  13.910 -0.0731 -0.1708  0.2106
11243W        W28091   6.246   0.333   1.609 -0.3620  0.2494 -0.2561
11244W        W28092  12.023   7.822  11.908 -0.2590 -0.0674  0.1074
11245W        W28093  17.011  17.512   3.197  0.2785  0.3464 -0.1854
11246W        W28094  15.154  11.789  16.328  0.2757  0.2522  0.0045
11247W        W28095   3.514   2.812  12.593 -0.0990  0.2791  0.0617
11248W        W28096  16.210  12.605  14.422  0.1225 -0.2163 -0.2625
11249W        W28097  14.759  11.844  11.344  0.0632  0.0584 -0.2468
11250W        W28098   6.587   3.726   4.219 -0.2101 -0.0178  0.1440
11251W        W28099   5.720   0.758  14.739  0.0632 -0.1067 -0.0401
11252W        W28100   6.478   7.829   2.752 -0.2910  0.0959 -0.0390
11253W        W28101  11.022   3.426   4.428  0.0704  0.2513 -0.2904
11254W        W28102   3.299  17.144  16.064 -0.0013 -0.0920 -0.0720
11255W        W28103  17.028  16.351  15.995  0.2530 -0.0274 -0.0935
11256W        W28104   1.516  11.890   0.790 -0.0216 -0.1994  0.1676
11257W        W28105  17.364   7.534   4.603 -0.1144 -0.0627  0.0124
11258W        W28106  13.109  10.099  13.565  0.0102  0.0579  0.2736
11259W        W28107  13.248   6.696   4.310 -0.0824 -0.0156  0.2069
11260W        W28108   2.536  15.569   3.799 -0.3815 -0.0800 -0.2001
11261W        W28109  14.701   9.750   0.508  0.0302 -0.0867  0.1288
11262W        W28110   3.502   8.584   3.716 -0.1601  0.0566  0.0197
11263W        W28111  10.247  17.533   1.942  0.0762 -0.0420  0.2860
11264W        W28112  14.914   4.722  15.427 -0.0989 -0.0490 -0.0001
11265W        W28113  12.216  12.556   2.332  0.1462 -0.1162 -0.0768
11266W        W28114   8.869  14.155   3.869 -0.1596 -0.3793 -0.0264
11267W        W28115  13.310  10.447  14.594  0.1753  0.0829  0.0147
11268W        W28116   0.373   0.917   2.068 -0.0212  0.0643  0.0151
11269W        W28117  16.982  14.441  12.522  0.0734 -0.0699 -0.0023
11270W        W28118  10.310  14.131  12.578 -0.0108 -0.1614  0.1908
11271W        W28119  12.990   6.327   1.299 -0.0610  0.2176  0.1110
11272W        W28120  15.825   5.273  15.443  0.0662 -0.0162 -0.0026
11273W        W28121   0.235   2.657  16.253  0.1223  0.0098  0.1078
11274W        W28122   7.672   6.640   1.163  0.1350 -0.1516  0.1638
11275W        W28123  15.964   8.021  10.474  0.1696 -0.0350 -0.2414
11276W        W28124   3.725  13.022  14.027  0.0204 -0.3640 -0.0505
11277W        W28125  10.094  12.347   0.948  0.0290 -0.2089 -0.0344
11278W        W28126  10.842   9.601   2.616  0.1986  0.1732  0.1592
11279W        W28127  12.170   5.913  12.627 -0.1746  0.0484  0.1399
11280W        W28128  17.679  16.989  16.115 -0.1871  0.1448  0.0385
11281W        W28129  17.520  11.658   5.145 -0.0973  0.1724  0.1877
11282W        W28130   9.260   2.343   4.863 -0.0480 -0.2828  0.0682
11283W        W28131   8.679  10.678  13.302 -0.1492  0.1099  0.1200
11284W        W28132   8.012   2.201  15.928 -0.0931 -0.0658 -0.0271
11285W        W28133   3.516   3.177   1.035  0.1678  0.0905 -0.0152
11286W        W28134  13.553   2.699   3.219  0.1222 -0.0558  0.3261
11287W        W28135  10.288  10.605   4.059  0.1918 -0.3259  0.3365
11288W        W28136  17.323  16.112   0.292  0.3522 -0.0075 -0.0081
11289W        W28137   7.557  12.638   1.093 -0.0189 -0.1614 -0.1323
11290W        W28138  16.212   6.554  14.390  0.0782 -0.1232  0.1040
11291W        W28139  12.427   9.122  11.296  0.2414  0.1116 -0.0603
11292W        W28140   1.958   0.215   1.179  0.1675  0.0138  0.0372
11293W        W28141   4.647  17.062  16.430  0.0811  0.2903 -0.0762
11294W        W28142  12.480  15.533   3.586 -0.1805  0.1191  0.0653
11295W        W28143   3.206   7.506  11.692 -0.0875  0.1771  0.3155
11296W        W28144  12.914   8.900  11.377  0.0696  0.1363 -0.0913
11297W        W28145   2.750   5.081   3.245 -0.1192  0.1564  0.1093
11298W        W28146  11.564  16.366   1.638  0.1323 -0.0873  0.2354
11299W        W28147   8.608   9.020   5.170  0.2295 -0.1574  0.0775
11300W        W28148   5.322   7.094  11.587 -0.1481  0.4728 -0.2240
11301W        W28149  13.895   8.264  11.396  0.2337  0.1195  0.1121
11302W        W28150   3.751   3.750  12.939 -0.0468  0.0181  0.0670
11303W        W28151  16.811  17.678   0.429 -0.0979 -0.1855 -0.3802
11304W        W28152  11.703   0.395  11.723  0.1470  0.0124 -0.0502
11305W        W28153  17.249  14.464  14.905  0.1127 -0.0325 -0.3426
11306W        W28154   3.839  11.291   4.644  0.0416  0.0660  0.1401
11307W        W28155   2.224   4.096   4.252  0.0103  0.3140  0.1396
11308W        W28156   6.752  10.604   2.935 -0.3376  0.1195 -0.0120
11309W        W28157  15.425  17.109  15.471 -0.1139  0.1766  0.2008
11310W        W28158   9.518  14.225  15.678  0.0589 -0.0515  0.1116
11311W        W28159   8.085   9.479   5.680  0.2681 -0.0883 -0.1211
11312W        W28160  11.123   2.127  12.854  0.2129 -0.1534 -0.0596
11313W        W28161  15.170   4.074  12.426  0.1759  0.0110  0.0609
11314W        W28162  17.466   7.106   0.440  0.4520  0.2158  0.3914
11315W        W28163   6.681  13.970  13.688  0.4018 -0.1956 -0.0960
11316W        W28164  11.683  15.429   4.847 -0.1438 -0.1568 -0.0234
11317W        W28165  13.107   7.333   5.280  0.3165 -0.1498  0.2268
11318W        W28166  14.843   1.818   5.735  0.2978 -0.1523  0.1036
11319W        W28167  15.738   7.653   1.827  0.0739  0.0288 -0.1314
11320W        W28168   4.181  14.405   1.319 -0.0825  0.1271  0.0424
11321W        W28169   7.309   2.973  13.166 -0.1068  0.2022  0.1944
11322W        W28170   3.759   8.381  13.700  0.0302  0.5018 -0.2098
11323W        W28171  16.002   4.625  14.172  0.0297  0.0033  0.2258
11324W        W28172  11.950   7.569  12.667  0.0552  0.1435  0.0191
11325W        W28173   7.826  15.496  12.731 -0.2400  0.1271  0.1536
11326W        W28174  12.914  12.670  13.515  0.0405  0.0533  0.0271
11327W        W28175   2.674  10.293   1.584  0.2270  0.0481 -0.0544
11328W        W28176  12.890  14.474  14.088 -0.2248  0.0722 -0.0320
11329W        W28177  17.675   4.174   5.127 -0.2121 -0.0632  0.2629
11330W        W28178   9.299   1.749   4.046 -0.1133 -0.1054 -0.1298
11331W        W28179   1.985   5.889  12.684  0.0094  0.1579 -0.0486
11332W        W28180  11.021   1.296   4.560 -0.2800  0.0139  0.0219
11333W        W28181   6.494   6.965   5.030 -0.2446 -0.2013 -0.1118
11334W        W28182  17.131  11.242  15.297  0.1535 -0.0722 -0.2852
11335W        W28183   2.426  14.615   0.946  0.0832  0.3387  0.3878
11336W        W28184  14.418  12.440   3.110  0.1776 -0.0993 -0.0486
11337W        W28185   9.094  17.306   0.579 -0.0700 -0.0594  0.0328
11338W        W28186   9.331  14.177   5.155 -0.1852  0.0773  0.1802
11339W        W28187   9.416  13.385  13.063  0.0475 -0.1349  0.0184
11340W        W28188   6.386  15.112   4.923  0.0173 -0.2088 -0.1059
11341W        W28189   8.858   6.172   1.941  0.2794 -0.0199  0.0251
11342W        W28190  12.013  12.972   2.465 -0.0911  0.0191 -0.0072
11343W        W28191  10.189   6.305  16.621 -0.0680  0.0267 -0.0585
11344W        W28192   3.143   1.649   0.925  0.1509  0.0057  0.1156
11345W        W28193  15.776  12.692   3.976  0.1346  0.2136  0.1723
11346W        W28194  10.583   1.899   1.548 -0.4134 -0.0416  0.1851
11347W        W28195  12.357  15.835   0.427 -0.1974 -0.2778  0.2392
11348W        W28196   3.174   6.242   1.909 -0.2124  0.0694 -0.0565
11349W        W28197  16.731   2.986   0.980 -0.1854 -0.3617  0.1762
11350W        W28198   6.852   6.597  15.145 -0.0902 -0.0663 -0.0246
11351W        W28199  17.230  10.310   4.984  0.2143 -0.1428  0.0146
11352W        W28200   7.551   8.719  15.093  0.2551  0.0050 -0.1419
11353W        W28201   2.966  16.591  13.663 -0.0274 -0.1264 -0.1234
11354W        W28202   9.083  16.444   2.223 -0.0878  0.0661 -0.1378
11355W        W28203   4.280   5.590   2.883  0.0902 -0.0339  0.1418
11356W        W28204  15.788  17.088   2.327 -0.0385  0.0988  0.0503
11357W        W28205  15.709   0.850   1.770 -0.2238  0.1764  0.0923
11358W        W28206  15.334   0.287  11.624 -0.2755  0.0223 -0.0650
11359W        W28207  13.719  11.869   4.985  0.0272 -0.1053 -0.0499
11360W        W28208  13.861  14.352  14.836 -0.0205 -0.1931  0.1016
11361W        W28209   6.281   1.880   0.302  0.2236 -0.1935 -0.2077
11362W        W28210   2.837   5.760   0.565 -0.0146  0.0327 -0.0547
11363W        W28211  16.977  15.876   2.211 -0.1383  0.1050  0.0877
11364W        W28212  13.862  10.764  15.473  0.0151  0.0188 -0.0069
11365W        W28213   5.234   1.288   4.305 -0.1633  0.3165 -0.2462
11366W        W28214  11.570   2.078   0.508  0.3989  0.1740 -0.0100
11367W        W28215   8.589   5.219   3.139  0.0656 -0.2422 -0.2226
11368W        W28216   1.896   3.835  12.552  0.0993  0.0839 -0.0614
11369W        W28217  14.610  16.746   2.922 -0.0966 -0.0838 -0.0206
11370W        W28218   7.242   0.472   0.158 -0.0769 -0.0773  0.1848
11371W        W28219  17.113  11.710   3.946  0.1207  0.0394 -0.0356
11372W        W28220   2.707   7.709   1.396 -0.0942 -0.0374 -0.1030
11373W        W28221   8.258   0.800   4.702 -0.0490 -0.0685 -0.2961
11374W        W28222   8.643  11.015   1.694 -0.0611 -0.1173 -0.2562
11375W        W28223   9.929   4.531  15.777 -0.0190 -0.2182  0.0034
11376W        W28224  11.943   3.101   4.210 -0.0987 -0.1625  0.0192
11377W        W28225   7.682  15.032   1.808 -0.1983  0.0085  0.0877
11378W        W28226  15.991  17.172   3.220 -0.0289  0.5522  0.0450
11379W        W28227  16.912   9.763   3.583 -0.0754 -0.1327 -0.1240
11380W        W28228  10.545  10.904   2.878  0.1494  0.4765 -0.0455
11381W        W28229   4.991  11.572  15.241  0.2589  0.1632 -0.2262
11382W        W28230   3.954   2.394   1.047  0.0590 -0.0355 -0.0558
11383W        W28231   2.076  11.161  11.508 -0.2844 -0.0204 -0.3536
11384W        W28232   8.586  12.116  12.142 -0.3061 -0.1309 -0.2082
11385W        W28233  16.543   5.346   5.016 -0.0627 -0.2824 -0.1228
11386W        W28234  13.069   7.472  13.458  0.0481 -0.1504 -0.1822
11387W        W28235   4.324   0.555  11.885 -0.0737  0.0399 -0.2964
11388W        W28236  13.122   7.853  12.822  0.4463 -0.1117  0.1833
11389W        W28237   1.709   2.568  13.018  0.0348 -0.1654  0.2097
11390W        W28238  11.146   7.198   5.524 -0.3002 -0.1396 -0.0459
11391W        W28239  13.897   3.831  15.643  0.1112  0.0028  0.0024
11392W        W28240  12.189  13.038   0.035 -0.1135 -0.0852  0.0373
11393W        W28241   9.205  11.287   2.600 -0.1515 -0.1814  0.1931
11394W        W28242   8.169   0.664  15.896 -0.1435  0.1504  0.0261
11395W        W28243   7.078   9.014  15.034  0.3014 -0.2715 -0.0724
11396W        W28244  11.505  11.296  11.835 -0.1203 -0.0437 -0.1128
11397W        W28245   0.111  17.210  12.947  0.0604 -0.1386 -0.3835
11398W        W28246   5.707  11.140   1.935 -0.0983 -0.0989  0.0436
11399W        W28247  12.850  15.083   0.845 -0.0597 -0.0438 -0.2075
11400W        W28248   5.151  12.008  13.707  0.2360  0.0306 -0.2101
11401W        W28249   9.865  12.136  12.415  0.1225  0.0005  0.2418
11402W        W28250  11.540   5.523   2.920  0.1514 -0.0509  0.2079
11403W        W28251  11.409  15.671  14.338 -0.1991 -0.2720 -0.0434
11404W        W28252  11.141   6.934   3.300 -0.2072  0.2900  0.3655
11405W        W28253  16.580   2.933  12.476  0.2155 -0.0804 -0.0703
11406W        W28254  13.520  11.226  12.439 -0.0175  0.0228 -0.0594
11407W        W28255   0.381   4.724   5.484 -0.1036 -0.3098  0.4017
11408W        W28256   2.374   5.573  14.037  0.0790  0.2439 -0.1264
11409W        W28257   3.655   7.082  10.698 -0.0187  0.1493 -0.2545
11410W        W28258   8.001   6.948  16.507 -0.2273 -0.0265  0.3081
11411W        W28259   4.767   3.060  11.422 -0.1531 -0.1519 -0.1728
11412W        W28260  11.642   7.915   0.177 -0.0464 -0.0833  0.4510
11413W        W28261  10.439  15.426   2.891 -0.0759  0.0004  0.1032
11414W        W28262  11.354  12.982  15.709 -0.0772  0.1381  0.1276
11415W        W28263  11.265  12.825   2.945 -0.2063  0.3292  0.0565
11416W        W28264  10.814   5.132  11.851  0.1733  0.0323  0.0169
11417W        W28265   2.886   7.446  12.319  0.0474 -0.4022  0.3001
11418W        W28266   4.234   9.689  13.114  0.1085 -0.1511 -0.2420
11419W        W28267   6.380  15.086  15.155  0.1556  0.0016 -0.1377
11420W        W28268   9.382   3.432   2.576  0.2145 -0.0892  0.2823
11421W        W28269   9.151   3.100  16.337 -0.1600 -0.4058  0.1648
11422W        W28270   1.490   2.171   1.489  0.2826  0.0650  0.0312
11423W        W28271  13.261   9.145   2.038  0.0863 -0.0863  0.1897
11424W        W28272  13.533   1.244  15.784 -0.1163  0.4950 -0.1091
11425W        W28273   2.654   1.313  13.267 -0.1358  0.3092  0.3180
11426W        W28274  16.191   3.929  11.321 -0.3586  0.2885  0.1488
11427W        W28275   1.573  14.683   1.719 -0.0549 -0.0486 -0.1962
11428W        W28276   7.960  17.237   0.057 -0.0115 -0.2862  0.2692
11429W        W28277  11.630  15.345  16.126  0.0678 -0.0637  0.2729
11430W        W28278   3.655  11.095   0.199  0.0057  0.1694 -0.1559
11431W        W28279  15.395   3.967  13.341 -0.0569  0.0193  0.1250
11432W        W28280   4.595   9.599   4.248  0.2833 -0.0119 -0.2070
11433W        W28281  10.293   5.296   2.583 -0.0947 -0.1232  0.0456
11434W        W28282  10.178  11.586   3.954 -0.2011  0.0830 -0.0656
11435W        W28283  16.973   4.088  16.414 -0.1106  0.0098  0.0240
11436W        W28284  10.130  14.043   3.082 -0.3040 -0.0594 -0.0628
11437W        W28285   4.010   5.482  11.207  0.0414  0.1294  0.2232
11438W        W28286  12.214  11.744   0.030 -0.0498 -0.0994  0.0082
11439W        W28287  16.833   3.834   1.181 -0.1064 -0.0377  0.1313
11440W        W28288  14.044   0.630   1.714 -0.1729 -0.1300 -0.0711
11441W        W28289  15.191  13.570   3.569  0.1770  0.0520  0.0188
11442W        W28290   7.310   6.707  14.489  0.1842 -0.0759  0.0072
11443W        W28291  14.188   0.387  14.511  0.0066  0.0166  0.1073
11444W        W28292   1.070  10.302  13.775 -0.2296  0.2239 -0.2997
11445W        W28293  16.736   8.514  15.804  0.0905 -0.3036  0.0637
11446W        W28294   8.636  13.412   5.339  0.0447 -0.1646  0.0915
11447W        W28295   2.171   3.701   0.000  0.1994 -0.2329  0.1776
11448W        W28296   9.148   3.686   4.277  0.1273  0.1969  0.0721
11449W        W28297  14.889   0.810   2.111 -0.0563 -0.1524  0.1391
11450W        W28298   5.852  15.750   3.188  0.1055 -0.2721  0.3066
11451W        W28299   0.758  15.044  12.935  0.1098  0.1126 -0.0074
11452W        W28300  10.391  16.368   3.091  0.6022  0.2723 -0.2969
11453W        W28301   0.820  12.419   1.991  0.0736 -0.0243  0.0369
11454W        W28302   5.028   0.799   5.190 -0.1710 -0.1379  0.0019
11455W        W28303   9.367   3.447   5.692 -0.0421 -0.1409  0.0717
11456W        W28304   9.303  16.332   0.854 -0.0569 -0.1484 -0.1316
11457W        W28305   3.550   1.682   1.213  0.2144  0.0642  0.1948
11458W        W28306   8.584  11.757   1.171  0.2405 -0.3119 -0.0704
11459W        W28307   8.364   3.945   0.574  0.0374 -0.1505  0.2273
11460W        W28308  14.815  10.639   2.423 -0.0926 -0.2313 -0.1574
11461W        W28309  10.400  10.870  13.124  0.1729 -0.0319  0.0952
11462W        W28310  13.359  11.405   4.977 -0.4869 -0.2893 -0.0343
11463W        W28311  16.182   7.017  14.251 -0.1494  0.1486  0.0078
11464W        W28312  17.464   5.077   5.022 -0.1064  0.0028 -0.0468
11465W        W28313  11.455   5.355   2.081  0.0861 -0.1502  0.3387
11466W        W28314   0.405   3.447  11.408  0.1227  0.0744  0.1583
11467W        W28315  16.612   6.333   0.933 -0.0764  0.1085  0.0016
11468W        W28316  10.332  12.343  12.318 -0.0800  0.1470 -0.2352
11469W        W28317   5.030   9.981   1.488  0.1037  0.0272 -0.0284
11470W        W28318   4.410   1.495   1.148  0.0149 -0.2344 -0.0205
11471W        W28319  15.811  13.451   3.483 -0.0520 -0.0356  0.0066
11472W        W28320   3.232  15.097  12.884 -0.1916  0.0939  0.1674
11473W        W28321   2.155   3.638   5.430 -0.0343 -0.0200 -0.4324
11474W        W28322   4.846   7.268   4.607 -0.0179 -0.0473  0.0446
11475W        W28323   1.837   6.374   2.762  0.1624 -0.2175  0.3376
11476W        W28324  10.118   9.802   0.176 -0.0433  0.2210  0.0561
11477W        W28325   5.900  16.240  15.073  0.0300  0.1638 -0.4224
11478W        W28326   4.622  17.161   4.079  0.1234 -0.0333  0.1426
11479W        W28327  13.323  16.131  16.151 -0.2436  0.4564 -0.0394
11480W        W28328  14.038  10.026  12.863 -0.1491  0.2606 -0.0313
11481W        W28329   5.431   2.613  11.493 -0.0113  0.5257  0.1519
11482W        W28330   1.899  14.416   4.048  0.0407 -0.1664  0.0616
11483W        W28331   1.288   1.277   2.220 -0.3534  0.3714  0.0936
11484W        W28332   9.574   8.763  12.658  0.1212  0.1872 -0.4127
11485W        W28333  14.984  12.135   1.590 -0.0012 -0.2287 -0.0560
11486W        W28334   1.020  10.487  12.951 -0.0686  0.0870  0.0380
11487W        W28335   0.158   1.846   4.592  0.0086 -0.3277 -0.1078
11488W        W28336   6.874   1.394  11.686 -0.0805  0.2479  0.2244
11489W        W28337  16.072   9.134  16.031  0.3452 -0.0770 -0.0240
11490W        W28338  13.611   3.549  16.143  0.6316  0.1622  0.1841
11491W        W28339   2.355   9.999   2.747  0.1021 -0.1257  0.1748
11492W        W28340   3.575   5.302   3.799  0.0381 -0.0738  0.0699
11493W        W28341  14.374  12.005  13.782  0.1345 -0.0548 -0.0493
11494W        W28342   0.997  15.638  11.736 -0.2470  0.4621 -0.0455
11495W        W28343   2.026   4.188  16.672  0.1749  0.2044  0.0121
11496W        W28344   2.069   5.587   3.644  0.1037 -0.1040  0.4207
11497W        W28345  17.449  12.765  16.094  0.0417 -0.4205  0.1497
11498W        W28346   9.506  15.336   1.983 -0.1037 -0.0016 -0.0503
11499W        W28347  17.109   8.273  13.094  0.0095  0.0862  0.0230
11500W        W28348   1.223  16.085   1.715  0.0078 -0.2035  0.1535
11501W        W28349   9.873  14.984   3.961 -0.0436  0.3306 -0.0464
11502W        W28350   7.428   6.092  16.291  0.2782  0.4519  0.4012
11503W        W28351  17.607   9.141   5.051  0.1073  0.0128  0.1541
11504W        W28352  13.563   0.933  15.365 -0.2145  0.1480  0.0237
11505W        W28353   5.162   7.061  14.657 -0.1564 -0.1235  0.2576
11506W        W28354   9.714  17.270  15.953  0.2076 -0.0892  0.0254
11507W        W28355  11.145  15.299  13.022  0.1601 -0.1224  0.2474
11508W        W28356  16.982   8.341  14.114 -0.2072 -0.3913 -0.3337
11509W        W28357   3.811   1.748  15.307  0.0322  0.0330 -0.1085
11510W        W28358   1.751  13.695   1.131 -0.0817 -0.2305 -0.0567
11511W        W28359   6.434   0.179  12.203  0.1466 -0.2422 -0.2610
11512W        W28360   5.688   4.805  16.328  0.3198  0.0665  0.3920
11513W        W28361   1.987  10.769   3.877 -0.1099  0.3801 -0.3114
11514W        W28362   6.515   1.860   4.270 -0.1428  0.0318  0.1538
11515W        W28363  16.762  15.760   1.136 -0.2882  0.2712  0.1415
11516W        W28364  14.149   2.801   1.572  0.3089  0.1079 -0.1186
11517W        W28365   0.612  12.346  15.417 -0.0411  0.1349 -0.1510
11518W        W28366  10.678   8.770   4.296 -0.0706  0.1610 -0.0008
11519W        W28367   5.614  12.971  11.407 -0.0645  0.0977  0.1372
11520W        W28368   9.024   0.487   5.350  0.0182 -0.2181 -0.0750
11521W        W28369  14.541   7.614  14.858  0.4625 -0.1602  0.2438
11522W        W28370   4.305   6.613  12.438 -0.0953  0.3361  0.1291
11523W        W28371  11.744  11.090  13.795  0.1157 -0.1687 -0.1800
11524W        W28372   2.336  13.215  15.358  0.0987  0.0285  0.2872
11525W        W28373  10.012   0.033  14.147  0.0612 -0.1862  0.5485
11526W        W28374   9.982  15.329   2.693 -0.2320  0.2475 -0.1659
11527W        W28375  14.393  14.101   1.362  0.1882 -0.1293  0.0549
11528W        W28376  15.236  11.506  11.430 -0.0958  0.2159 -0.0184
11529W        W28377   6.429   7.729  15.133 -0.2717 -0.0171  0.2285
11530W        W28378   3.077  14.341  16.167  0.2163  0.0101 -0.1363
11531W        W28379   2.993   0.410   2.590 -0.4059  0.1952 -0.2317
11532W        W28380  12.969  16.376  12.443  0.0541  0.0327  0.0246
11533W        W28381   7.306   7.204   0.584 -0.1368  0.1772  0.1985
11534W        W28382   0.393  11.914   1.676  0.0765  0.0982 -0.1727
11535W        W28383   9.784   2.042  15.855 -0.2395  0.0967 -0.1594
11536W        W28384  17.401   7.165   2.419 -0.2061 -0.1222 -0.1514
11537W        W28385  13.065   1.585  12.365  0.1260  0.2064  0.2966
11538W        W28386   4.227   6.358  11.325 -0.2074  0.0193  0.0178
11539W        W28387   5.198  11.056  13.373 -0.0840  0.0487  0.2762
11540W        W28388   8.544   1.703   1.772 -0.1363 -0.0401 -0.0867
11541W        W28389   8.557  14.096   2.240  0.0345  0.0949  0.1278
11542W        W28390   3.353   9.050  14.866 -0.0537  0.0703 -0.1205
11543W        W28391  16.893   8.008  13.449  0.0701  0.1475 -0.1957
11544W        W28392   4.670  12.970   0.363  0.2073 -0.1705  0.0552
11545W        W28393  13.411   4.383   2.957 -0.1118  0.1330  0.1599
11546W        W28394  16.894   6.615   2.500  0.2076  0.0613  0.1372
11547W        W28395   2.346   0.910  10.740 -0.1747  0.0795  0.0978
11548W        W28396   4.464   0.036   1.701 -0.0633  0.4134 -0.0677
11549W        W28397   1.232   2.799  11.691  0.1033 -0.1486 -0.2377
11550W        W28398   8.114   2.657  12.062  0.0107  0.2252  0.2065
11551W        W28399   7.508   5.199  16.166  0.1334 -0.2793 -0.0149
11552W        W28400   3.263   4.395  13.286 -0.0344  0.2412 -0.0126
11553W        W28401  16.055   0.959  11.145 -0.1108  0.2847  0.0409
11554W        W28402  15.838  10.796   0.195  0.1103  0.0411 -0.1925
11555W        W28403  14.710  15.273   1.037  0.1000 -0.2230  0.3085
11556W        W28404   9.590  10.380  16.335 -0.0422  0.1245 -0.1943
11557W        W28405   5.101   8.539  12.889  0.5510  0.0528 -0.0234
11558W        W28406   6.648   8.316  12.032 -0.2088  0.3774  0.2060
11559W        W28407   0.886   4.984   2.999 -0.0083 -0.0691 -0.0187
11560W        W28408  17.390   7.704  11.620 -0.0327  0.0458 -0.1082
11561W        W28409   9.562  11.633   2.703  0.0582  0.1795  0.0763
11562W        W28410   5.844  16.465   1.475 -0.2053  0.0685 -0.0234
11563W        W28411   6.987  10.379  14.603  0.0599 -0.3543 -0.0319
11564W        W28412  12.928  14.286   0.021  0.0213  0.0497 -0.2845
11565W        W28413   4.560   9.213  14.843  0.0426  0.2564 -0.2530
11566W        W28414   3.029   1.964   5.001  0.2059  0.4240 -0.0077
11567W        W28415  12.041   3.679  13.900  0.1212 -0.2080 -0.0159
11568W        W28416   1.545   6.268   5.616  0.1056 -0.0601  0.1170
11569W        W28417   9.682   0.379  16.168 -0.1392  0.2893  0.0033
11570W        W28418  10.175   0.179  15.006  0.2258 -0.0184  0.1632
11571W        W28419   6.182   7.114   5.935 -0.1540  0.1713  0.1357
11572W        W28420   0.046   9.601   2.567  0.1568  0.0828 -0.2322
11573W        W28421   5.955   7.121  16.483  0.0385  0.0360 -0.0476
11574W        W28422   5.157  15.757   2.848  0.1989  0.0226  0.0731
11575W        W28423  14.010   4.212   4.716 -0.0174 -0.1589 -0.0051
11576W        W28424   7.531   2.421  12.157 -0.4495  0.1898 -0.0468
11577W        W28425   5.329  13.449  13.257 -0.2930  0.0946  0.0485
11578W        W28426   9.752   7.743   2.147 -0.1218 -0.0834 -0.2100
11579W        W28427  15.705  15.306   4.663 -0.1869 -0.0639 -0.0744
11580W        W28428  12.331  15.952   1.340 -0.2909  0.1054  0.2752
11581W        W28429   0.394  11.446  12.775 -0.3384  0.3817 -0.1222
11582W        W28430   7.534   3.297  15.108 -0.3062 -0.1614 -0.0692
11583W        W28431   1.928  13.603  14.222  0.1050  0.1596  0.1129
11584W        W28432   4.129   9.892   1.055 -0.0054 -0.0665 -0.0435
11585W        W28433   2.249   3.784  15.253  0.1265 -0.2283 -0.1648
11586W        W28434   7.813   3.350   3.646  0.0935  0.0886  0.1203
11587W        W28435   6.430   1.135   1.514  0.1523 -0.3274 -0.0395
11588W        W28436   2.650   2.429  11.674  0.0220  0.1358  0.0563
11589W        W28437   0.862   0.822  16.399  0.1932  0.1315 -0.1749
11590W        W28438   0.609   6.674   0.195 -0.0845  0.0502 -0.2256
11591W        W28439  16.609   0.352   0.732  0.0204 -0.0642 -0.2869
11592W        W28440   6.854   9.591  13.014  0.2951 -0.0957 -0.0323
11593W        W28441  17.267   1.408   0.009  0.2378 -0.0368 -0.0470
11594W        W28442   7.923   5.911   4.219 -0.0704  0.0888  0.0915
11595W        W28443  16.891   8.482  15.176  0.1650 -0.1040 -0.0010
11596W        W28444   8.822  14.873   5.358  0.1104  0.0802 -0.0623
11597W        W28445  15.927  13.495  11.011  0.0222  0.0156  0.1360
11598W        W28446  15.957   8.228   3.103 -0.0615 -0.0306  0.0547
11599W        W28447  15.296  10.791   2.480 -0.1409 -0.0883  0.1359
11600W        W28448   6.948  14.640   2.306 -0.1550 -0.4866  0.1814
11601W        W28449   7.763   1.422   1.141  0.1437  0.1210 -0.0450
11602W        W28450   5.440   3.813  12.958  0.1820 -0.2753  0.1250
11603W        W28451   9.674   1.020  14.142  0.0569  0.2855 -0.1364
11604W        W28452  10.968   6.657  11.069  0.2617  0.0950  0.0163
11605W        W28453  15.394  13.343   0.499  0.0790  0.4709  0.2547
11606W        W28454   6.364   1.397   0.637  0.2158  0.1356 -0.2961
11607W        W28455   0.545   0.464   5.405  0.1491  0.2098 -0.2392
11608W        W28456   9.225   9.453  15.520  0.0870  0.0068 -0.0710
11609W        W28457  11.162   8.590  11.037 -0.1601  0.0585 -0.0436
11610W        W28458   8.809  11.833   3.809 -0.1992  0.2425  0.0085
11611W        W28459   0.462   6.565   1.513  0.2267  0.0313  0.1237
11612W        W28460  14.914  15.383  13.367  0.1144 -0.0135  0.0500
11613W        W28461   5.672   1.457   1.968 -0.0677  0.1333  0.2915
11614W        W28462  13.364   7.165  11.352 -0.0282  0.0121 -0.0753
11615W        W28463  13.469  17.403   3.384 -0.1974  0.0115  0.0401
11616W        W28464   7.962  13.199  12.560 -0.1361  0.0205  0.0985
11617W        W28465  11.972  10.269  11.698 -0.0980  0.2105  0.0103
11618W        W28466   3.062  13.406   1.486  0.1121 -0.0600  0.3612
11619W        W28467  17.703   2.076   2.988 -0.0748  0.1192 -0.0894
11620W        W28468  13.789   9.483  16.564  0.1887 -0.3920 -0.0187
11621W        W28469   1.388  14.096   2.588 -0.4177  0.1302 -0.1471
11622W        W28470  17.090   6.441   5.770 -0.0766  0.2457 -0.0302
11623W        W28471  12.138   1.881  16.088 -0.1062  0.0849  0.2856
11624W        W28472  12.302   3.096  13.305 -0.0739  0.0435  0.0563
11625W        W28473   5.863  16.081  12.368 -0.0721 -0.1805 -0.1123
11626W        W28474   7.160   3.236   6.322 -0.3233 -0.1014 -0.2322
11627W        W28475   4.639  14.544   1.484  0.0439  0.2159 -0.0369
11628W        W28476  11.205  11.518  12.192  0.0376 -0.2133  0.0077
11629W        W28477   4.607  15.378   0.042  0.2107 -0.0420  0.3012
11630W        W28478   3.779   4.279   0.560  0.5279  0.0636  0.3183
11631W        W28479   7.073   1.783  10.825 -0.0557 -0.1819 -0.1905
11632W        W28480   2.234  11.325  11.016  0.1592 -0.1431 -0.1750
11633W        W28481  15.471   9.116  13.453  0.0531  0.1747  0.1111
11634W        W28482   3.738  14.650   4.896 -0.0300  0.0068  0.1349
11635W        W28483   1.134  17.663   2.909 -0.1549 -0.1100  0.1784
11636W        W28484   4.687   3.649   4.432  0.0675  0.1168 -0.3456
11637W        W28485   8.812   9.869   1.314 -0.0466  0.2306  0.0540
11638W        W28486  12.380  12.758  11.703 -0.1154  0.1122 -0.1993
11639W        W28487  14.958   6.757   3.133  0.0236  0.2912 -0.0097
11640W        W28488   1.336   5.531   2.660  0.1566 -0.1568  0.1457
11641W        W28489   7.147   8.487  13.800  0.3905  0.1820 -0.0008
11642W        W28490  10.745   7.362  14.716  0.1984  0.2326 -0.3897
11643W        W28491  17.039   3.658  12.315 -0.1834  0.3811 -0.0415
11644W        W28492  10.725  17.243  12.823  0.4073  0.0015  0.0519
11645W        W28493   6.153   3.914   0.448 -0.0081  0.1049  0.4284
11646W        W28494  15.656   3.525   3.805  0.0824  0.4278  0.1189
11647W        W28495   3.627   1.398   5.995 -0.0310 -0.1112 -0.0565
11648W        W28496  15.068   2.551   0.625  0.1616 -0.2866  0.3118
11649W        W28497   0.875   3.183   3.615 -0.1854  0.0772  0.0758
11650W        W28498  10.319   4.388   2.333 -0.2589 -0.0160  0.0829
11651W        W28499   9.726   5.492   5.359 -0.3858  0.0282  0.1063
11652W        W28500   0.675   9.738  15.530  0.0361 -0.1019  0.2752
11653W        W28501  17.240   8.812   3.549  0.2761  0.4683 -0.1838
11654W        W28502   8.138   1.384   1.691  0.0615  0.2566  0.1164
11655W        W28503   3.385  13.406  15.328 -0.1835 -0.1617  0.0607
11656W        W28504   9.866  14.399  16.670  0.4939  0.5192 -0.2439
11657W        W28505  17.376  15.053  13.698 -0.2917  0.1773  0.1263
11658W        W28506   3.096  11.281  12.188 -0.0356  0.1648 -0.0473
11659W        W28507  16.657   1.758   3.170  0.0682 -0.0558 -0.0590
11660W        W28508  11.739  14.123   1.376  0.0283  0.0449  0.1150
11661W        W28509   2.065   5.025  15.089 -0.1011 -0.3005  0.0544
11662W        W28510   9.176  17.020   3.929  0.1917 -0.1727  0.0808
11663W        W28511   9.130  16.864   1.949 -0.1846  0.1685 -0.2688
11664W        W28512   9.438  17.351   5.549 -0.0897 -0.0917 -0.1200
11665W        W28513  13.176   7.805  16.232  0.2432 -0.3436  0.0305
11666W        W28514   9.879  12.285   1.394 -0.1843  0.1931  0.2496
11667W        W28515   0.652  10.380   4.022 -0.1575 -0.0136  0.0069
11668W        W28516  10.182  11.808   0.555 -0.2744 -0.0617 -0.1859
11669W        W28517   5.149  10.057   0.217 -0.0303 -0.1291  0.1535
11670W        W28518  13.136   2.389  14.622  0.2082 -0.1044  0.0641
11671W        W28519  11.975   6.525   4.795  0.2047 -0.2283  0.1988
11672W        W28520  12.027  15.189  14.881 -0.2100 -0.1027  0.2204
11673W        W28521   0.704  10.247  15.622  0.0261  0.0483 -0.2171
11674W        W28522  13.706   6.762   2.566 -0.2098 -0.3086 -0.0528
11675W        W28523  15.854   6.292   1.726  0.0665  0.0668  0.0645
11676W        W28524   4.780  14.806   3.643  0.3247 -0.0122  0.1994
11677W        W28525   0.168   2.548   0.142 -0.1039  0.1642 -0.3773
11678W        W28526   7.489  15.996  12.048 -0.0804  0.0293  0.0100
11679W        W28527   5.265   2.064  15.166 -0.0361 -0.0966 -0.0089
11680W        W28528   1.746   0.417  15.296 -0.1735  0.0021 -0.0857
11681W        W28529  11.594  15.625  15.672  0.2506  0.1015  0.1063
11682W        W28530   7.218   1.209   3.348 -0.1055 -0.3316  0.2139
11683W        W28531   2.294  15.580   4.312 -0.0288 -0.2615 -0.0145
11684W        W28532  14.895   0.497   5.395  0.0010  0.0844  0.0038
11685W        W28533  17.216  14.910   5.285 -0.0187 -0.2827  0.2653
11686W        W28534  10.335   9.192  11.101 -0.0029  0.2472  0.2910
11687W        W28535   5.646  16.442   5.868  0.1241  0.1767  0.2166
11688W        W28536   3.396   5.010   1.769  0.1114  0.4017  0.3802
11689W        W28537  13.625  11.705   5.890  0.1311 -0.1504 -0.1426
11690W        W28538  12.538  14.538  16.385 -0.0437 -0.0741  0.0457
11691W        W28539   0.749  10.909   2.810 -0.2461  0.0221  0.1461
11692W        W28540   5.505  14.768  15.466 -0.0556 -0.0072 -0.1501
11693W        W28541  15.550  10.439  10.619 -0.0754 -0.0681  0.0142
11694W        W28542   5.508   6.584   1.957  0.0871  0.1077  0.1644
11695W        W28543   9.140   8.843   1.322  0.2026  0.0126 -0.0817
11696W        W28544   1.375   7.901  15.083  0.1834  0.0362  0.0623
11697W        W28545   7.693   9.037  11.412 -0.1615 -0.2623  0.2365
11698W        W28546  14.983   6.399  15.491  0.1051  0.0843  0.1361
11699W        W28547   3.805  15.583  16.196 -0.2069  0.2617  0.2827
11700W        W28548  13.903  11.740  12.195 -0.0220  0.0387 -0.0553
11701W        W28549   5.284   7.175   4.321  0.1158 -0.0206  0.1095
11702W        W28550   6.635  13.607   1.811  0.1174 -0.1553  0.1446
11703W        W28551   1.157   0.140  14.537  0.1312 -0.2315  0.0618
11704W        W28552   1.108   7.149   1.110 -0.1863 -0.0249 -0.1244
11705W        W28553   3.359  13.812  13.984  0.0252  0.2188 -0.0682
11706W        W28554  14.297  14.839  15.769  0.1747  0.0074  0.1877
11707W        W28555   1.510   0.204   4.591  0.0326 -0.0355 -0.0920
11708W        W28556   1.099   2.943   3.086  0.2537  0.0678 -0.2236
11709W        W28557  15.091   4.476  13.868 -0.0228  0.1550 -0.2354
11710W        W28558  15.927  15.164   2.647 -0.0679  0.3244  0.1705
11711W        W28559   2.338  14.787  15.382 -0.1752  0.1680 -0.3146
11712W        W28560  12.503   5.951  11.227  0.3611 -0.0606 -0.1826
11713W        W28561   4.777   8.320   4.780  0.2205 -0.2205  0.0331
11714W        W28562  14.832   8.416  13.686  0.2019  0.2717 -0.2601
11715W        W28563  10.441  10.958  11.840 -0.0250  0.2683  0.1697
11716W        W28564   3.175   2.009   1.432  0.2765 -0.1520 -0.0958
11717W        W28565   1.854   8.470  12.197  0.1512  0.0463 -0.0753
11718W        W28566  13.093   5.852   2.452 -0.0078  0.0265  0.0905
11719W        W28567  15.460   0.442  12.629  0.1330 -0.0889 -0.1055
11720W        W28568   0.041  10.538  12.848 -0.1993  0.0893  0.1095
11721W        W28569   2.871  13.423  14.444 -0.1992  0.1378  0.0842
11722W        W28570   7.003   8.029  13.874  0.1367  0.1793  0.0147
11723W        W28571  17.376   6.500   6.210 -0.1989  0.3965 -0.2666
11724W        W28572   1.660   3.001   6.421 -0.1400  0.4386  0.0951
11725W        W28573  15.881  16.007  15.927 -0.1398  0.0529 -0.1719
11726W        W28574   6.214  11.192  16.455  0.0130  0.1062 -0.0055
11727W        W28575  15.936  10.644  15.927 -0.0363  0.0633  0.1916
11728W        W28576  13.814   7.814   2.142 -0.0316 -0.1639 -0.1124
11729W        W28577  17.001   3.400  15.532  0.0849 -0.1052  0.3682
11730W        W28578  13.012  10.731  14.264  0.2453 -0.1410 -0.1760
11731W        W28579   0.848  16.843   2.396  0.2755  0.2150 -0.3434
11732W        W28580  12.070   2.282  14.091  0.1115 -0.1030  0.3401
11733W        W28581  15.866   0.007   3.222 -0.0832 -0.1892 -0.1831
11734W        W28582  11.231  14.729  12.450  0.2231 -0.2599  0.1407
11735W        W28583  12.715   8.822   0.519  0.1038 -0.2602 -0.0845
11736W        W28584  14.810  17.297  14.345 -0.0515 -0.0217  0.3200
11737W        W28585   2.184   6.138   3.668 -0.0067  0.2462  0.1143
11738W        W28586  10.317  13.942   4.645  0.0285 -0.0475 -0.2629
11739W        W28587  12.112  13.024  12.145 -0.0748  0.1777 -0.1747
11740W        W28588  16.501   9.781  14.196  0.0439 -0.2625 -0.3636
11741W        W28589  11.778   0.059  14.481 -0.3395  0.1061 -0.2353
11742W        W28590   2.655   6.575   2.922 -0.0313 -0.3087 -0.1075
11743W        W28591  11.428   4.787  13.291  0.0394  0.2360  0.1264
11744W        W28592  15.286   2.691  15.834 -0.0363  0.1598  0.1007
11745W        W28593   8.831   9.004  14.161 -0.0865  0.2557  0.0984
11746W        W28594  10.883  12.744   5.906 -0.0084 -0.3334  0.2019
11747W        W28595  11.197  14.227   4.496  0.0234 -0.1765  0.0236
11748W        W28596   2.113  12.708  15.194 -0.3405 -0.3099 -0.0144
11749W        W28597   7.913   8.222  12.029 -0.2939  0.0498 -0.0667
11750W        W28598   2.912   5.859  14.119  0.0967  0.4772 -0.0692
11751W        W28599   7.508   8.950   4.668  0.4011 -0.0858 -0.0440
11752W        W28600  16.864   1.386   0.326 -0.0548 -0.1717 -0.2981
11753W        W28601   9.810  10.125   4.744  0.0342 -0.0035  0.1356
11754W        W28602   9.042   3.817   1.979 -0.1153 -0.2217  0.2261
11755W        W28603  14.530  13.192  12.035  0.4584  0.0410 -0.0005
11756W        W28604   4.809   6.041   1.422  0.0249 -0.0036  0.1407
11757W        W28605   9.266   7.567   4.015  0.0291 -0.2903 -0.1368
11758W        W28606   0.140  12.129  15.569 -0.0980  0.3384 -0.0528
11759W        W28607   9.456   3.885   1.699  0.1607 -0.0524  0.3065
11760W        W28608  13.107  12.599  15.502  0.1244  0.0962 -0.0890
11761W        W28609  12.438  17.028  11.425 -0.0890 -0.0672 -0.0818
11762W        W28610  11.387  11.340  12.627  0.0756  0.0243  0.2182
11763W        W28611   4.504  10.302  14.129  0.1508  0.0465  0.1239
11764W        W28612  15.021  14.482  15.299  0.1398 -0.1818 -0.0816
11765W        W28613   5.319   4.283  10.767  0.1087 -0.3290 -0.1688
11766W        W28614   2.522  11.150   3.626  0.2566 -0.1488 -0.0235
11767W        W28615   6.109   6.316   2.942 -0.2823  0.0940  0.0269
11768W        W28616   0.656   8.042  13.488  0.1110  0.2250  0.1583
11769W        W28617   6.848  12.301   4.709  0.0729  0.3589  0.2831
11770W        W28618   7.485   5.894   0.070 -0.1262  0.0031  0.3652
11771W        W28619  11.238   8.476  13.140 -0.2985 -0.1474  0.0150
11772W        W28620  11.547  16.947  12.515 -0.0004  0.0072  0.0654
11773W        W28621   5.003  15.895   1.073  0.0981  0.3539 -0.0313
11774W        W28622   9.410  17.600  14.954 -0.1341  0.0887  0.0821
11775W        W28623   0.688   2.725  15.086 -0.1489 -0.1074  0.0214
11776W        W28624  17.086   1.459  13.721 -0.3030  0.3373  0.2016
11777W        W28625  11.672   8.752  16.479  0.0545 -0.2185 -0.1581
11778W        W28626   3.716   6.407   2.858  0.0265 -0.0959 -0.2799
11779W        W28627  17.397  16.269  11.772 -0.0536  0.2642 -0.0260
11780W        W28628   6.240  14.128  12.343 -0.1363 -0.1436 -0.0766
11781W        W28629   3.811   7.187  15.625  0.0509  0.0888 -0.3789
11782W        W28630  14.611  15.582   1.439  0.3613  0.1263 -0.3208
11783W        W28631  10.466   5.432  13.816  0.0599  0.2207 -0.0224
11784W        W28632  13.600  13.510  14.817 -0.3320  0.0208  0.1369
11785W        W28633  10.415  10.926  11.054  0.3536 -0.2703  0.2572
11786W        W28634  16.854   9.949  13.841  0.3308  0.0138  0.1133
11787W        W28635  11.807  10.211  12.374  0.2659 -0.1046  0.0238
11788W        W28636   5.659  13.689  14.608  0.1875 -0.2585 -0.0796
11789W        W28637  14.938   7.327   0.753  0.1598  0.2114 -0.1699
11790W        W28638  16.521   5.075   3.571  0.1136 -0.2718 -0.3620
11791W        W28639  16.060   9.600  14.092 -0.3548 -0.1219 -0.1579
11792W        W28640   4.468   7.199   1.686  0.2794  0.0387 -0.0563
11793W        W28641  11.138  13.570   0.911  0.3604  0.0979  0.3167
11794W        W28642  11.837   3.873   2.976  0.0636 -0.0999  0.2790
11795W        W28643  12.572   2.699   0.702  0.1609 -0.1236 -0.1153
11796W        W28644   2.037   1.392   5.633 -0.1980 -0.1196  0.1562
11797W        W28645  14.150   1.296  12.091 -0.3025 -0.0031  0.0726
11798W        W28646   3.345  14.747  16.404 -0.0819 -0.0688  0.1116
11799W        W28647   3.963   5.164   6.107 -0.3089 -0.1176  0.2011
11800W        W28648  10.867  10.185   4.630 -0.1125 -0.2793 -0.0312
11801W        W28649  10.901   6.017   3.507 -0.3144  0.2852  0.0872
11802W        W28650  17.380  15.239   5.637  0.1027  0.2436  0.0042
11803W        W28651   1.041   1.505  12.867 -0.1492  0.0345 -0.1443
11804W        W28652  14.582   9.112  14.777 -0.0632 -0.2125  0.1030
11805W        W28653   9.642  12.374  10.723  0.0631 -0.6702  0.0845
11806W        W28654  10.126  13.102  12.290  0.0963  0.2088 -0.0401
11807W        W28655   6.605  15.327   5.459 -0.1616 -0.0627 -0.3963
11808W        W28656  17.668  14.646  12.765 -0.1258  0.1026  0.1660
11809W        W28657  11.736   6.814  14.770 -0.0433 -0.1638  0.1514
11810W        W28658  15.360   4.886   0.540  0.0587  0.2297  0.0656
11811W        W28659  14.257   9.554   0.013 -0.0180 -0.0068 -0.0750
11812W        W28660   2.386   5.195  14.693 -0.2305 -0.1032 -0.1715
11813W        W28661  15.928   0.624   2.683 -0.0349  0.4023 -0.0352
11814W        W28662   6.119  15.122  11.741  0.0461 -0.2598  0.0338
11815W        W28663   2.312  15.769  13.194  0.1034  0.3771 -0.1565
11816W        W28664  17.663   5.906  14.629  0.2272 -0.1972 -0.0863
11817W        W28665  16.030  11.633   4.549  0.0457 -0.1827 -0.0127
11818W        W28666  17.005   4.663  12.779  0.4304 -0.3258 -0.4816
11819W        W28667  14.760   3.086  16.555 -0.0344 -0.1314 -0.1031
11820W        W28668   9.628  13.677  12.305  0.0224  0.1623 -0.0793
11821W        W28669   1.046  13.618   2.686  0.0488  0.1014  0.0958
11822W        W28670   7.420   3.148  14.100 -0.3077 -0.2042 -0.1899
11823W        W28671   1.346   7.233  13.377  0.0812 -0.1126 -0.0206
11824W        W28672   4.163  15.388  13.138  0.1041  0.2733  0.0443
11825W        W28673  10.606  10.355   2.167  0.0738  0.0320 -0.0207
11826W        W28674   2.257   2.182   5.239  0.0850  0.0953 -0.0523
11827W        W28675  13.048   6.559  14.928  0.0646  0.0867 -0.3203
11828W        W28676   5.017  17.579   5.588  0.2386  0.1073  0.1899
11829W        W28677   6.552   4.575   0.573  0.0687  0.1679 -0.0637
11830W        W28678  14.492  11.854   0.599 -0.1462 -0.1472 -0.1849
11831W        W28679  10.330  16.955  13.074 -0.1248  0.0634  0.2024
11832W        W28680  13.727  12.132   3.859 -0.0579 -0.0465  0.1255
11833W        W28681  17.703   1.211   4.974 -0.2125  0.2994 -0.1483
11834W        W28682  12.998   0.043  12.213 -0.1944 -0.0780  0.1856
11835W        W28683  12.304  16.939  12.973 -0.1546 -0.1198  0.0886
11836W        W28684   7.042   2.315   5.824 -0.0003  0.0135 -0.1040
11837W        W28685   6.065   6.869  16.106 -0.1183  0.1059  0.0211
11838W        W28686  15.136   9.549   1.926  0.4768  0.1008  0.0459
11839W        W28687   8.283   3.494  16.393 -0.0122  0.0569  0.1138
11840W        W28688   1.235   5.261  12.832  0.0700 -0.0257  0.1339
11841W        W28689   1.467  15.456   2.857  0.1119  0.2652  0.1503
11842W        W28690   9.409   6.501  14.992  0.3961 -0.3790 -0.0764
11843W        W28691   0.532   6.173  15.688  0.1752 -0.0916 -0.2328
11844W        W28692   8.032  11.589   0.591 -0.0056 -0.0783 -0.1055
11845W        W28693   7.110   4.235   2.473 -0.1002 -0.2143  0.2251
11846W        W28694   3.261   3.978  13.670 -0.2316  0.0478  0.0477
11847W        W28695  11.064   3.833  11.423 -0.3519  0.0712  0.3798
11848W        W28696   8.585   5.228   0.545 -0.3434  0.2775  0.1556
11849W        W28697   0.054   4.397  10.999 -0.1125  0.1206 -0.0194
11850W        W28698  16.666   1.347  15.966  0.1342  0.3643  0.0064
11851W        W28699  13.232  13.584   2.048  0.2383  0.1666  0.0252
11852W        W28700  12.576  17.597  11.319  0.1038  0.0365 -0.0296
11853W        W28701  13.131  15.561   2.833  0.0921  0.2779  0.0212
11854W        W28702  17.039   3.581   4.407 -0.0891 -0.0821  0.3117
11855W        W28703   5.644  11.747   3.563  0.2772  0.1471 -0.2832
11856W        W28704   1.947  17.292   1.892 -0.1317  0.3911  0.2054
11857W        W28705   3.603  10.673  13.073 -0.0158  0.0754  0.1065
11858W        W28706   3.769   9.264  15.396 -0.4031 -0.0260 -0.0911
11859W        W28707  16.609  15.704  11.240  0.1088  0.0067 -0.0104
11860W        W28708  11.528  10.031  14.549 -0.2180  0.1307 -0.1063
11861W        W28709  13.369   9.717  14.713 -0.0559 -0.2040 -0.1268
11862W        W28710   9.034   7.129  15.975  0.2229 -0.1645  0.0552
11863W        W28711  11.691   1.928   2.001  0.0147 -0.1265  0.0712
11864W        W28712  10.968  17.041   1.759 -0.1331  0.0693  0.0152
11865W        W28713   0.664   5.683  12.446  0.0770 -0.1466  0.3615
11866W        W28714   0.721   0.473  12.775  0.2635 -0.2439 -0.1255
11867W        W28715   4.696   0.595   1.621  0.0790  0.0446  0.3113
11868W        W28716  13.831  13.473   0.158 -0.1007  0.1298 -0.2132
11869W        W28717  12.399  13.795  15.876  0.3138  0.1079 -0.0406
11870W        W28718   2.049   7.375  12.894 -0.1668 -0.1973  0.0667
11871W        W28719  12.371   2.279   3.282 -0.0842 -0.2118 -0.1262
11872W        W28720  14.148  11.480   0.429  0.2002 -0.0992  0.1864
11873W        W28721   2.993   7.350   1.532  0.1156  0.1022 -0.1236
11874W        W28722   9.579  17.148  12.401  0.0343  0.0847 -0.1114
11875W        W28723   0.136  10.247   0.730  0.2555 -0.3130 -0.0402
11876W        W28724  13.548  15.350  13.014 -0.1475  0.0908  0.1740
11877W        W28725  12.296   6.725  16.291  0.0195 -0.0106  0.1197
11878W        W28726   5.555  13.310  12.748 -0.2247  0.1882 -0.0883
11879W        W28727  11.110  15.531   3.919  0.0002  0.2497 -0.0544
11880W        W28728  15.942   4.245  14.528  0.0557 -0.0700  0.0378
11881W        W28729   5.692   3.553   1.375  0.4088  0.1406 -0.2582
11882W        W28730   8.968  12.665   4.884 -0.0146 -0.0356 -0.1348
11883W        W28731   6.565  14.325   0.318  0.0821 -0.2298  0.1653
11884W        W28732   3.368   9.128   2.503  0.2813  0.1550  0.0990
11885W        W28733   6.756   9.838  13.893  0.0290  0.5027  0.1114
11886W        W28734  11.589   2.891   4.726 -0.0468 -0.2526 -0.0800
11887W        W28735   1.672  13.461  12.521 -0.3715  0.1697  0.0823
11888W        W28736   2.612  15.126   1.679  0.1054  0.0937 -0.1375
11889W        W28737   4.322  14.795  14.695 -0.2282 -0.1899 -0.0573
11890W        W28738   3.400   4.705  12.071 -0.3909 -0.2606  0.2483
11891W        W28739  14.873   9.217   1.698 -0.1463  0.0688 -0.0334
11892W        W28740   7.298  14.099   0.797 -0.0147 -0.3001 -0.0788
11893W        W28741   1.875  10.637   1.148  0.3017  0.1077  0.1131
11894W        W28742  13.565  15.304  15.672 -0.3379  0.0984 -0.1331
11895W        W28743   2.344  15.912   2.241 -0.4722  0.1092 -0.1767
11896W        W28744   0.347  10.383  15.265  0.3437  0.1072 -0.0511
11897W        W28745   7.241  12.748  12.183  0.1105 -0.0870 -0.0756
11898W        W28746   7.039   5.699  16.473 -0.1690  0.0402  0.0118
11899W        W28747  11.220  17.008   5.323  0.0267 -0.1628  0.0266
11900W        W28748  14.745   6.711  14.129 -0.1812  0.0957 -0.1830
11901W        W28749   9.745   9.612   1.416  0.1805 -0.1749 -0.1887
11902W        W28750   2.444   0.855   5.031  0.0807 -0.3994 -0.3039
11903W        W28751   1.920   9.650  15.859  0.1457 -0.1127  0.2231
11904W        W28752  15.941   9.562  15.188 -0.1292  0.1116  0.0500
11905W        W28753   6.400   2.901  13.134  0.0079 -0.2211 -0.0947
11906W        W28754   9.779  10.879   2.121  0.0704 -0.0837  0.3023
11907W        W28755  15.137   3.760   5.331  0.2818  0.1208  0.2094
11908W        W28756   5.803   8.428  15.412  0.1568 -0.2320 -0.2554
11909W        W28757   7.236  15.783   3.391 -0.4591 -0.0401 -0.1168
11910W        W28758   8.917   8.447  12.792 -0.0425 -0.1559 -0.0725
11911W        W28759  11.705   6.115   4.867 -0.2236 -0.0966 -0.0748
11912W        W28760  10.615   7.862  14.865 -0.1132  0.0238 -0.1713
11913W        W28761   2.598   1.521   0.006  0.3489  0.1995 -0.0642
11914W        W28762   7.989   9.079   0.588 -0.0640 -0.1249 -0.0910
11915W        W28763   2.627  13.757  12.603 -0.0552  0.2437  0.1645
11916W        W28764   7.317  12.130  12.841  0.2586  0.1660 -0.1788
11917W        W28765   6.667  17.369   3.726 -0.0932 -0.1913 -0.3950
11918W        W28766  16.154  14.974  11.371 -0.0990  0.1369  0.1981
11919W        W28767  15.019   2.747   5.207  0.0376  0.1532  0.0137
11920W        W28768   6.394  12.815   0.733  0.0099  0.1945  0.0171
11921W        W28769  12.185   3.353   1.256  0.0309  0.2571 -0.1405
11922W        W28770  14.704   9.752  13.540  0.2517 -0.0353 -0.0450
11923W        W28771   9.606  13.389   0.208 -0.0189 -0.2092  0.5544
11924W        W28772   2.143   4.249   2.436  0.1841  0.0251 -0.3439
11925W        W28773   3.560   9.248   0.030  0.0759 -0.2388 -0.1462
11926W        W28774  17.445   5.741  14.192  0.1490 -0.2394 -0.3621
11927W        W28775  13.821   3.235   2.417  0.3335 -0.3088 -0.1966
11928W        W28776   5.328  13.731  12.475  0.4539  0.1211 -0.2992
11929W        W28777   4.849  11.727   0.974  0.0890  0.0427  0.1349
11930W        W28778  14.875  14.273   1.409 -0.2310 -0.0757 -0.1134
11931W        W28779   8.543   8.134  15.368 -0.3617  0.1853  0.0882
11932W        W28780   4.361  14.718  13.567 -0.1937 -0.4465 -0.1354
11933W        W28781   9.786   6.031  15.713 -0.1647  0.0315  0.0415
11934W        W28782   2.352  11.728  14.270  0.0030 -0.2053  0.2577
11935W        W28783   2.813  14.945  14.667 -0.0372  0.2328  0.2128
11936W        W28784   9.734   2.304   5.090  0.1356  0.3479  0.0156
11937W        W28785  12.226   8.272  16.186 -0.0826 -0.0503 -0.0335
11938W        W28786  12.239  13.114   0.804 -0.0363 -0.3243  0.0351
11939W        W28787  11.255  16.498   0.028 -0.0404  0.1436  0.0223
11940W        W28788   2.622  10.224  15.846 -0.0105  0.2522 -0.1164
11941W        W28789   1.151   5.359  13.951  0.0832 -0.3336 -0.0177
11942W        W28790   0.169   5.830  13.942 -0.0352  0.1822  0.4934
11943W        W28791  13.849   9.508   2.870 -0.1047 -0.2343  0.0003
11944W        W28792   2.428  14.621   4.647 -0.2530  0.1448 -0.1403
11945W        W28793   0.948  15.229   2.186 -0.1293 -0.1917  0.3876
11946W        W28794   0.760   0.911   2.479 -0.0047  0.0488 -0.0403
11947W        W28795   7.422   0.804   1.974  0.0694 -0.3176 -0.1778
11948W        W28796  14.213  17.059  12.321  0.0405  0.2741  0.0986
11949W        W28797   7.061   1.994  12.926  0.2763  0.1162 -0.2645
11950W        W28798  16.996   0.445   0.404  0.2182 -0.0621  0.0336
11951W        W28799   8.047  15.973   4.917 -0.2936 -0.0364  0.1334
11952W        W28800   3.019   3.124   1.239  0.0362 -0.0913  0.0776
11953W        W28801   4.098  17.146   2.214  0.1999 -0.1668 -0.1359
11954W        W28802   5.876   9.019   2.319 -0.0454  0.4203 -0.0603
11955W        W28803   4.909   6.924  12.128 -0.1699  0.2091 -0.1039
11956W        W28804   2.512   8.737  14.109 -0.1366  0.1321 -0.1517
11957W        W28805   6.165   1.556   1.560  0.0196 -0.1518  0.0147
11958W        W28806  16.559   5.976  11.226 -0.0371 -0.1193 -0.0892
11959W        W28807   6.162   3.698   3.270 -0.1049 -0.4839  0.0686
11960W        W28808   0.372  15.553   0.316  0.1533 -0.0651 -0.0864
11961W        W28809   8.555  13.716  16.574 -0.0779 -0.2588 -0.0726
11962W        W28810  13.662  14.643   4.431 -0.0952  0.0733 -0.1379
11963W        W28811   5.799  17.041   1.795  0.2477 -0.1646 -0.0089
11964W        W28812   8.300   7.847  12.042  0.2635 -0.2449  0.1205
11965W        W28813   4.547   6.584  13.808 -0.0127 -0.2088 -0.0105
11966W        W28814   3.940   2.651   0.289 -0.2979  0.1714 -0.1282
11967W        W28815   0.400   9.786   3.857 -0.0498  0.2601 -0.1738
11968W        W28816   8.331   4.565   2.939  0.1846 -0.0639 -0.3001
11969W        W28817  13.185  15.486  14.752  0.0048 -0.2552 -0.0354
11970W        W28818   0.383   1.273   2.395 -0.0495  0.1298 -0.4078
11971W        W28819  13.038   3.562  15.538  0.0690  0.1155  0.1118
11972W        W28820  16.101   8.373  13.370 -0.2965 -0.4468  0.0719
11973W        W28821   8.928   1.887   2.583  0.0197 -0.2133  0.0473
11974W        W28822  15.038  17.331  13.314 -0.1046 -0.0392  0.1309
11975W        W28823  14.740  13.232   0.932  0.2479  0.1611 -0.2226
11976W        W28824   7.920  17.300   3.828  0.0017  0.0387  0.2482
11977W        W28825   2.555  14.486  14.390  0.0997  0.0881  0.2201
11978W        W28826  16.864   9.458  13.586 -0.1969 -0.0612  0.1050
11979W        W28827  12.911   7.319  16.094 -0.0255 -0.0613  0.0690
11980W        W28828  14.306   4.599   1.345  0.1250  0.1888  0.2207
11981W        W28829   1.284  11.060   2.891  0.3935  0.0151 -0.3423
11982W        W28830  10.383  16.207   0.715  0.2419  0.0868  0.2687
11983W        W28831  10.974  12.973  13.938  0.1305 -0.2522 -0.1015
11984W        W28832   6.250  13.310  15.041 -0.0515  0.2775 -0.1824
11985W        W28833  12.740  10.405  13.782  0.1039 -0.1816 -0.2998
11986W        W28834  16.380  12.203  15.334 -0.0384 -0.0173 -0.0269
11987W        W28835  10.179   2.480  13.518 -0.0112 -0.0873 -0.1592
11988W        W28836  14.088   8.868  13.088 -0.2128  0.0200 -0.0196
11989W        W28837   2.501   5.707   3.973  0.0897  0.1145  0.1809
11990W        W28838  13.547   6.343   3.913 -0.2336 -0.3190  0.0012
11991W        W28839   3.308  17.128  13.474  0.0703  0.2348  0.1576
11992W        W28840  13.287   4.205  12.488  0.0049  0.1564 -0.2788
11993W        W28841   3.654  11.324   2.689  0.2555  0.3172 -0.1392
11994W        W28842   7.035  10.294   4.420  0.0166  0.2054 -0.3684
11995W        W28843   2.064  17.165  14.325  0.0298 -0.1115 -0.1584
11996W        W28844  11.797  17.580  16.102  0.0937 -0.2237  0.2010
11997W        W28845  15.344   6.633  11.522  0.2768 -0.0516 -0.0242
11998W        W28846  13.541  16.708  15.939  0.0705  0.0840  0.3457
11999W        W28847   1.661   9.075   4.458  0.4057  0.1530 -0.2773
12000W        W28848  16.607  12.721  15.394  0.2301 -0.0022 -0.2110
12001W        W28849   6.736   3.925  13.469  0.4344 -0.2416 -0.1792
12002W        W28850   0.406   3.714   2.684 -0.0411 -0.3139 -0.1764
12003W        W28851   0.592  15.970   0.520 -0.0672 -0.1056  0.1086
12004W        W28852  12.517  16.923  12.438  0.2919  0.0061  0.0403
12005W        W28853  16.306   6.096   0.558 -0.0197 -0.1435 -0.0970
12006W        W28854   0.512   3.287   0.735 -0.2027  0.0511 -0.3255
12007W        W28855  17.023  14.589   4.735 -0.1917  0.0428 -0.3104
12008W        W28856  12.381  13.255  12.933 -0.1930 -0.0885 -0.0476
12009W        W28857   6.644   2.047  13.799 -0.2152  0.2472 -0.1494
12010W        W28858  14.553   3.256  15.984 -0.1683 -0.1071 -0.2591
12011W        W28859   3.795  17.487  15.458  0.2776  0.3847 -0.0999
12012W        W28860  11.672   6.481  12.040 -0.0098  0.5128 -0.0725
12013W        W28861   2.066  12.079  14.128  0.2059 -0.1863  0.0155
12014W        W28862  11.390   5.869   5.213  0.0876  0.2701 -0.2063
12015W        W28863   0.363  14.978   2.164 -0.1152 -0.1011  0.2327
12016W        W28864   1.320   4.910   2.165  0.1820  0.2101  0.1587
12017W        W28865   8.064   1.759   2.870 -0.0884  0.0402 -0.3412
12018W        W28866  12.951  13.820   3.647  0.4350 -0.1574  0.0974
12019W        W28867  12.254  10.024   2.579 -0.1651 -0.0258  0.0286
12020W        W28868   5.875   2.465   1.981  0.0944  0.2270 -0.0522
12021W        W28869  11.095   0.664   4.030 -0.3621 -0.1468  0.1556
12022W        W28870   2.050   4.362  13.078  0.1415  0.1542 -0.0657
12023W        W28871  10.798  12.001   2.990  0.2081  0.0228 -0.1434
12024W        W28872  14.333  10.659  11.718  0.1492 -0.0812  0.0455
12025W        W28873  14.046   3.275  11.055  0.1102 -0.1034 -0.1080
12026W        W28874   3.377  15.554   0.104  0.2321 -0.4068  0.1704
12027W        W28875   9.159   0.815  11.609 -0.1803 -0.0126  0.2087
12028W        W28876  17.136   9.676   4.028 -0.1540  0.3018 -0.1843
12029W        W28877  17.148  12.331  14.388 -0.3470  0.0230  0.1259
12030W        W28878  12.324   2.174  15.582 -0.0510 -0.0338  0.2028
12031W        W28879   6.775  13.492  12.369 -0.1831 -0.1224 -0.1396
12032W        W28880  13.626   8.613   1.315 -0.0177 -0.2233 -0.0488
12033W        W28881  15.720  17.480   3.615 -0.0610  0.2040  0.0260
12034W        W28882   7.736  14.816  15.250 -0.0980  0.1041  0.1211
12035W        W28883   5.195   0.265   3.543 -0.4120  0.2150 -0.2900
12036W        W28884  15.776   8.796  12.134 -0.0036 -0.1493  0.1739
12037W        W28885   9.987  10.434   4.418  0.1512 -0.2610  0.1321
12038W        W28886   3.065  15.865   1.729  0.0015 -0.0405  0.1463
12039W        W28887   7.104  12.298  12.285  0.0062 -0.2189  0.1154
12040W        W28888   8.378  14.822   3.454 -0.0074 -0.2377  0.1753
12041W        W28889   6.639  16.286   6.123 -0.2377 -0.0526  0.2681
12042W        W28890   7.257  15.886   6.049  0.0430  0.1292  0.2991
12043W        W28891  15.141  11.985  11.778  0.0821 -0.1218 -0.0076
12044W        W28892   5.638   3.431   5.450  0.0240  0.0626  0.0372
12045W        W28893  13.196  12.252   0.170  0.2338 -0.0774  0.0713
12046W        W28894   1.711  15.173   2.535  0.1101  0.1716 -0.0878
12047W        W28895   9.306  15.187  16.547  0.0189  0.0826 -0.1198
12048W        W28896  17.616   2.357  10.647 -0.1733  0.0083  0.0760
12049W        W28897   8.542  12.785  16.668 -0.1585  0.0338 -0.0943
12050W        W28898  10.265   9.683  12.242 -0.2531  0.0829  0.1983
12051W        W28899  11.403   8.781  12.691  0.1762 -0.1003 -0.2297
12052W        W28900  13.179  12.758  16.374 -0.1705  0.1445 -0.2528
12053W        W28901   1.635  15.922   4.608 -0.1995  0.0507 -0.3358
12054W        W28902  16.925  11.129   2.957  0.1235 -0.3149  0.4108
12055W        W28903   1.048   0.699   0.244  0.0399 -0.1038  0.0298
12056W        W28904   1.265  12.219   4.207 -0.0597  0.1827 -0.0658
12057W        W28905   0.242  10.048  11.628 -0.0301  0.0064 -0.0574
12058W        W28906  13.882   1.524   0.770  0.2931  0.1245  0.2066
12059W        W28907   9.207   6.113   2.898  0.5214 -0.0947  0.1614
12060W        W28908   2.141  16.871  11.573 -0.1354  0.0441  0.2318
12061W        W28909  13.198  13.721   0.962  0.0926 -0.0032  0.0875
12062W        W28910   0.465  14.147  11.068 -0.1314 -0.0362  0.1394
12063W        W28911   4.182   2.269  15.314  0.3152 -0.2143 -0.3025
12064W        W28912   7.898  14.371  14.481 -0.1218  0.0931 -0.1072
12065W        W28913  16.235   1.730  13.552  0.2030  0.0900  0.0179
12066W        W28914   5.363   6.291  13.573 -0.1162 -0.2477  0.1255
12067W        W28915   7.704  12.884   0.575 -0.3121  0.1285  0.2041
12068W        W28916  15.683   2.984   2.485  0.1074  0.1351  0.0509
12069W        W28917   4.712  16.526  16.130  0.0073  0.2548 -0.1569
12070W        W28918   3.500   1.753  15.768  0.0472 -0.2230  0.2143
12071W        W28919   7.499  13.990  15.801 -0.1173 -0.0324  0.0910
12072W        W28920   2.520   7.695   5.068 -0.2254 -0.4137  0.1065
12073W        W28921   4.213   4.573   1.248 -0.1640  0.2642  0.0775
12074W        W28922   1.571  12.497  16.019  0.0768 -0.0864  0.1626
12075W        W28923   6.695   1.100   0.368 -0.0484  0.0440  0.3362
12076W        W28924  16.188  15.733  10.934 -0.4173  0.0413  0.0177
12077W        W28925   6.847  17.483  14.315  0.3524  0.0684 -0.1373
12078W        W28926   8.850  17.150  14.331  0.1066 -0.1579 -0.0233
12079W        W28927  17.261   4.747   0.333 -0.3457  0.1588 -0.0809
12080W        W28928  11.964   9.390  13.627 -0.0769  0.0113 -0.0662
12081W        W28929  10.597  14.991   4.545 -0.2285  0.0545  0.1084
12082W        W28930   9.454  16.051   5.203  0.1210 -0.0447  0.0743
12083W        W28931   3.043   7.905   1.818  0.0422 -0.1146 -0.0884
12084W        W28932   9.988   5.887  11.761 -0.0421  0.1651 -0.0969
12085W        W28933   2.281   4.217  13.558 -0.3633  0.1998  0.1088
12086W        W28934   4.670  15.133  15.023 -0.1276 -0.1969 -0.2867
12087W        W28935  12.877   5.620  10.384 -0.4602 -0.0079  0.5653
12088W        W28936  17.339   9.553   2.279  0.1343  0.0416 -0.0995
12089W        W28937   2.312  15.627  13.677  0.0373 -0.0499  0.0200
12090W        W28938   1.967  13.784   1.571 -0.0686  0.0387 -0.2883
12091W        W28939   9.269   6.449   3.954 -0.0992 -0.1192 -0.0133
12092W        W28940   5.630  11.528   1.545  0.0035 -0.2441  0.3005
12093W        W28941  16.714  17.566  12.787 -0.0174  0.1538  0.3410
12094W        W28942   0.024   7.038   5.343 -0.1281 -0.0355 -0.1503
12095W        W28943  12.064   6.282  12.225 -0.2280 -0.1682 -0.1150
12096W        W28944  11.705   5.827   1.401  0.1375 -0.1023 -0.1472
12097W        W28945  14.063   9.454  16.092 -0.0877  0.0161 -0.2253
12098W        W28946   1.190   3.352  10.682 -0.1558  0.3989 -0.2581
12099W        W28947  10.288  13.296   3.237 -0.1684  0.3489 -0.0721
12100W        W28948   5.606   9.735   2.866 -0.0149 -0.1319  0.0065
12101W        W28949   0.844  14.257  14.583 -0.1746 -0.1512 -0.2812
12102W        W28950  11.457   4.232   0.940 -0.1417  0.0990 -0.1427
12103W        W28951  16.142  13.744  12.447  0.1435 -0.0984 -0.0245
12104W        W28952  13.097  16.039   4.057 -0.1168 -0.1089  0.0040
12105W        W28953   7.869   8.586   5.555  0.2980  0.1052  0.0990
12106W        W28954   2.163   4.843  13.325  0.1394  0.1316 -0.0167
12107W        W28955  17.149   4.778   1.252  0.2027 -0.1374 -0.0009
12108W        W28956   8.847  15.060   3.770 -0.3044 -0.0231 -0.1451
12109W        W28957  14.391   5.710  15.117 -0.0097 -0.0447  0.0913
12110W        W28958  12.376  10.142   4.380  0.1966  0.1608  0.2280
12111W        W28959  11.448   5.323  15.396  0.0986  0.0401 -0.4197
12112W        W28960   6.660  15.851  16.005  0.1382 -0.0355 -0.1132
12113W        W28961  16.729   9.562  13.014 -0.0931 -0.1059  0.0779
12114W        W28962  12.613   0.520  15.266 -0.0449  0.2429  0.1622
12115W        W28963   7.275  11.654  15.820 -0.0523 -0.3092 -0.0155
12116W        W28964  15.857   3.469  11.316 -0.1654 -0.2894 -0.1476
12117W        W28965   4.403  15.425  11.051  0.0174 -0.1257 -0.1176
12118W        W28966   2.165   8.278  16.277  0.1533  0.3610  0.2803
12119W        W28967   0.197   7.878  13.370 -0.1244 -0.2370  0.2169
12120W        W28968   5.010   9.448   2.204 -0.0298  0.1022  0.2674
12121W        W28969   2.175  12.571   4.099 -0.1080  0.0492  0.0938
12122W        W28970  10.562   5.471   4.396 -0.2054 -0.3333 -0.1734
12123W        W28971   6.723   1.463   3.938  0.2573 -0.1973 -0.0830
12124W        W28972  11.713   3.047   2.532 -0.1639 -0.0874 -0.0690
12125W        W28973   8.590  11.596  15.777  0.0989 -0.2040 -0.1702
12126W        W28974   3.044  11.283   5.226  0.0760  0.1470 -0.0429
12127W        W28975   2.425  11.032   3.110 -0.1190 -0.0449  0.0940
12128W        W28976  15.229   2.613   4.707  0.1908  0.0849 -0.0303
12129W        W28977   8.957  11.707  16.136  0.1566  0.0339 -0.0263
12130W        W28978   0.269  15.809   2.941 -0.1725  0.0038 -0.0311
12131W        W28979   6.389  13.483  12.005  0.0515  0.1470 -0.0901
12132W        W28980   3.380  11.441   4.887  0.3791 -0.4349  0.1043
12133W        W28981   6.619   4.944   2.092 -0.2930  0.2928  0.0065
12134W        W28982   8.775  17.099  12.770  0.0439  0.1068  0.0093
12135W        W28983  13.158   7.715   4.310 -0.0226  0.0079  0.1702
12136W        W28984   7.098   4.875   2.316  0.2736 -0.1298 -0.0044
12137W        W28985  17.516   4.703  15.964  0.0787 -0.2271 -0.3322
12138W        W28986   8.090  10.832  15.364 -0.1942  0.3059  0.0734
12139W        W28987  16.332  14.556   3.689  0.0450 -0.0663  0.2645
12140W        W28988   7.204   2.753   4.689 -0.5105 -0.0663 -0.1282
12141W        W28989   2.137  11.512   2.887  0.0375  0.2124  0.2272
12142W        W28990   9.693  17.335  14.594  0.1841 -0.2369 -0.1902
12143W        W28991  15.480  17.595  16.199  0.2012  0.1170  0.1222
12144W        W28992   0.916   8.157   4.587 -0.2110 -0.0486 -0.1996
12145W        W28993  16.189   9.508   1.827  0.0746 -0.0539  0.0147
12146W        W28994  14.785   6.060  16.085  0.0316 -0.0779  0.0886
12147W        W28995  11.618   5.534  10.428  0.0067 -0.1349  0.2867
12148W        W28996   1.786   9.683   0.185 -0.2763 -0.0354  0.2821
12149W        W28997  13.424   7.078  13.491 -0.0324  0.2760 -0.0714
12150W        W28998  15.000  14.964  11.875 -0.1849 -0.3667  0.0351
12151W        W28999   1.045  15.034  15.937  0.0014  0.1288 -0.1344
12152W        W29000   8.324   4.148  11.602  0.0866  0.1484 -0.0803
12153W        W29001   3.652   0.342   3.309  0.2745 -0.4534 -0.0284
12154W        W29002   0.861   5.726   5.315 -0.0851  0.0436  0.0298
12155W        W29003   3.840   4.312  16.439 -0.3611  0.0865  0.0037
12156W        W29004  16.291   2.540  13.936  0.2268 -0.2302 -0.1097
12157W        W29005   0.488   2.132  13.339  0.2367 -0.2020  0.3566
12158W        W29006  15.058   9.167   1.200  0.3401  0.1392 -0.3175
12159W        W29007   4.476  15.654  15.143  0.1374 -0.1046 -0.2806
12160W        W29008   8.278   0.258   2.444  0.1766  0.0873  0.1898
12161W        W29009   6.059   7.927  10.585 -0.0812 -0.0840  0.3414
12162W        W29010  11.461   7.183  14.991  0.0652 -0.1080 -0.0669
12163W        W29011  17.365   9.704   3.273 -0.1053  0.2567 -0.0529
12164W        W29012   8.733   9.309  16.264 -0.1110  0.0015 -0.0577
12165W        W29013   4.032   8.912   4.469 -0.2635 -0.2140 -0.1522
12166W        W29014  14.080   7.108  15.434 -0.4451 -0.0477 -0.2526
12167W        W29015  14.301   4.910   0.057 -0.0108  0.1483 -0.4190
12168W        W29016   2.165   9.157  13.175 -0.2267  0.3413  0.3322
12169W        W29017  16.493   5.900  12.773 -0.1186 -0.0137 -0.0818
12170W        W29018   3.399   0.274  12.882  0.3272  0.2078 -0.1698
12171W        W29019   7.278  14.402  15.969  0.3258  0.2803  0.2290
12172W        W29020  16.938  12.491   4.198 -0.0215  0.0939  0.0949
12173W        W29021   7.014   4.247   2.985 -0.0053  0.1089  0.1168
12174W        W29022   3.266   9.712   6.167  0.4561 -0.0964 -0.0038
12175W        W29023  14.585   7.807   4.543  0.1973 -0.2622 -0.1330
12176W        W29024  16.920  14.885  13.561 -0.1288 -0.0507 -0.1197
12177W        W29025   9.315   2.793  10.911  0.1107  0.0025 -0.0655
12178W        W29026  13.514   5.100   5.431  0.1495  0.1713 -0.2211
12179W        W29027   2.996   3.114  14.189 -0.0919  0.0872  0.1364
12180W        W29028  15.701   9.058   1.946  0.2033 -0.0495  0.2382
12181W        W29029   9.310   6.321  15.516 -0.2177 -0.1564  0.0520
12182W        W29030  14.642   9.634   1.432 -0.1784 -0.1932 -0.2665
12183W        W29031   9.104   0.344  14.484 -0.0045 -0.1629  0.2526
12184W        W29032  13.574   4.827   3.135  0.3439  0.0704  0.0250
12185W        W29033  11.743   0.723   0.627 -0.0047 -0.0489  0.1265
12186W        W29034   4.213   6.345   6.108 -0.2690 -0.1418  0.1956
12187W        W29035   9.156   7.014  14.004 -0.0607 -0.2120 -0.0205
12188W        W29036   9.976  16.591   1.903 -0.0561 -0.0184  0.0861
12189W        W29037   6.057  13.688   5.662  0.1089  0.1536  0.1096
12190W        W29038   3.984   9.245   3.706 -0.1287  0.1859  0.1531
12191W        W29039   2.198  15.895   0.804  0.2233 -0.0492 -0.2281
12192W        W29040  16.183   8.384  16.492 -0.3812  0.2854  0.2518
12193W        W29041   6.734  15.010  15.592  0.0056 -0.0058  0.1189
12194W        W29042  10.360  10.741  10.178  0.1457  0.0825  0.0473
12195W        W29043   0.627  16.389   2.263 -0.0042 -0.0311  0.0106
12196W        W29044   1.634   2.981  15.004  0.1393  0.1210  0.1131
12197W        W29045  16.669   0.723  14.592 -0.1422  0.0979 -0.4353
12198W        W29046  13.983  16.602   2.174 -0.0466  0.0334  0.2522
12199W        W29047   3.444   0.514  15.184  0.2437  0.1417  0.4564
12200W        W29048   5.807   1.897  13.141  0.1858 -0.1395 -0.2043
12201W        W29049   9.565  10.396   5.074  0.3102 -0.0937  0.0913
12202W        W29050  14.013  16.491   4.819 -0.1174  0.0322 -0.0263
12203W        W29051  12.358   8.804  14.290 -0.2387  0.0238 -0.0559
12204W        W29052  16.248   2.303  16.475 -0.2872  0.0132 -0.0159
12205W        W29053  16.513   9.087  15.758 -0.0687  0.1137 -0.2831
12206W        W29054  12.506  13.538   3.598 -0.0973  0.2596  0.0271
12207W        W29055  13.716   4.375  13.103  0.2555  0.0780 -0.0705
12208W        W29056   8.562   5.519  14.517  0.3399  0.0701 -0.1726
12209W        W29057   4.789  12.197  15.942 -0.0485 -0.1700  0.0727
12210W        W29058  16.486   8.498   2.131  0.2135  0.0265 -0.2294
12211W        W29059  16.047   0.541   0.092 -0.0509  0.0671  0.2045
12212W        W29060   2.002  17.534  12.126 -0.1824  0.0346 -0.0757
12213W        W29061  17.162   7.128  15.765 -0.1831 -0.1011  0.1103
12214W        W29062   1.238  12.660   2.681  0.0709  0.0922  0.3806
12215W        W29063  13.920   6.417  13.765 -0.0437 -0.0018 -0.0685
12216W        W29064   9.251  11.477  15.265  0.0868 -0.1131  0.1550
12217W        W29065   9.101   1.404   4.406  0.0511  0.1666 -0.4078
12218W        W29066   2.656   2.045  15.470 -0.0215  0.0503  0.2776
12219W        W29067   5.232  16.787  15.257 -0.5238  0.0762 -0.1377
12220W        W29068   7.032   7.024  15.382 -0.1471  0.1851 -0.0658
12221W        W29069  10.703  12.987   3.192 -0.1558 -0.1106 -0.1115
12222W        W29070   5.649   3.502  13.330 -0.0313  0.2941  0.2164
12223W        W29071  11.625  14.189  16.224 -0.3272  0.1602 -0.2445
12224W        W29072   1.884   7.625   4.094 -0.1244  0.2563  0.4860
12225W        W29073  10.160   7.540   4.267 -0.2032 -0.0165 -0.0296
12226W        W29074   0.596   3.759   0.508  0.2442 -0.1612  0.3265
12227W        W29075   7.267  10.015   0.936 -0.1474 -0.2051 -0.0723
12228W        W29076   9.242   5.571  12.428 -0.0055 -0.4791 -0.2115
12229W        W29077  17.150  14.073   1.803 -0.0322  0.0662  0.0671
12230W        W29078   7.259  14.954  15.908 -0.2309  0.0588  0.0261
12231W        W29079   4.482  10.821  13.828 -0.1669  0.0278  0.1061
12232W        W29080  10.556  10.625  14.943  0.1952  0.2724 -0.2012
12233W        W29081  11.555  10.575  13.062  0.2019 -0.0103  0.2108
12234W        W29082   9.758   2.609   0.086 -0.1192 -0.1764  0.1097
12235W        W29083  14.163  11.366  13.058 -0.3223 -0.1053  0.0920
12236W        W29084  12.719   1.211  13.984  0.2269  0.0283 -0.0874
12237W        W29085  14.949  12.561   4.770 -0.6186  0.0170 -0.1405
12238W        W29086   2.533   6.613   0.045 -0.0723  0.0295 -0.0786
12239W        W29087   8.292  15.028  12.107  0.2994  0.0565  0.0521
12240W        W29088   5.183  11.718  12.203  0.4556 -0.2616 -0.0498
12241W        W29089   5.797   1.277   0.711 -0.0317 -0.0170  0.0418
12242W        W29090   4.042   7.204   1.299  0.1608  0.2380  0.1035
12243W        W29091   1.817   2.004   0.619  0.0378 -0.0191  0.1254
12244W        W29092   2.287   9.684   0.323  0.0278 -0.0935 -0.1014
12245W        W29093   0.952  13.058  15.181  0.1691 -0.1770  0.3016
12246W        W29094   3.736   8.782   1.581  0.1153  0.0584  0.1709
12247W        W29095   7.882  16.155  13.363  0.1210 -0.1190 -0.1521
12248W        W29096   0.651  14.840   1.772 -0.1523  0.3525 -0.1000
12249W        W29097  12.533   2.810  11.481  0.0869 -0.2224 -0.0194
12250W        W29098   3.027   9.291   3.430  0.3316 -0.0800 -0.2878
12251W        W29099   9.816  15.720   4.546  0.1845 -0.0414  0.0611
12252W        W29100  11.192  11.332   4.130 -0.0713  0.0248  0.0124
12253W        W29101   0.237   5.145   4.229  0.1647  0.2124  0.0366
12254W        W29102   5.877   4.969  12.139  0.2795  0.1054 -0.2446
12255W        W29103   7.081   2.890  10.426 -0.1324 -0.2413  0.5729
12256W        W29104   5.287  14.258  16.218  0.1915 -0.1174  0.0493
12257W        W29105  16.547  11.621   4.614 -0.1283 -0.1370 -0.0911
12258W        W29106   0.031   5.306  14.077 -0.1891  0.2135 -0.1287
12259W        W29107  15.606  15.525   2.487  0.2151 -0.0970  0.1252
12260W        W29108   2.176   6.769   2.972  0.2064 -0.1281 -0.1042
12261W        W29109  16.675   1.593  15.271  0.1768 -0.3690 -0.0691
12262W        W29110   2.162   7.535  15.313  0.2288 -0.0189  0.0703
12263W        W29111  10.514  10.645   4.534  0.0745 -0.0550  0.0007
12264W        W29112  10.980  13.928   3.178 -0.0345  0.1381 -0.0386
12265W        W29113   9.362  11.492  14.766  0.0070  0.2191  0.3247
12266W        W29114   7.585  17.135  16.379 -0.1906  0.0927 -0.2101
12267W        W29115   4.690  12.816   3.008 -0.1518 -0.0695  0.1966
12268W        W29116  14.944  15.725   4.446 -0.3719 -0.0752 -0.1278
12269W        W29117  16.944  15.255  13.969  0.0552 -0.1471 -0.1573
12270W        W29118   4.657  14.156   4.280  0.2547 -0.0808  0.1194
12271W        W29119  10.755   7.516  12.369  0.1853  0.1971 -0.1205
12272W        W29120  17.202   8.643  16.480  0.2096  0.0574 -0.2824
12273W        W29121  14.627   8.333   2.465 -0.1067  0.0061 -0.0067
12274W        W29122  14.881   5.328  13.280  0.2135 -0.1721  0.0031
12275W        W29123  11.784   6.015   2.286  0.0289  0.0766  0.1742
12276W        W29124   4.605   5.709  14.389  0.2293 -0.0710 -0.1317
12277W        W29125   8.330   3.930   5.352  0.0585  0.2588  0.0653
12278W        W29126  12.333   8.568  12.556  0.1035 -0.0123  0.0456
12279W        W29127   8.178   5.018   1.605  0.2297 -0.1075 -0.0843
12280W        W29128  15.985   5.114   4.176 -0.0218 -0.0847  0.1992
12281W        W29129   2.499  17.411   0.337 -0.1164  0.2045 -0.0996
12282W        W29130  11.207   7.763  16.591 -0.0742  0.1835  0.0139
12283W        W29131  14.389   6.825  16.456  0.0599 -0.1268  0.0182
12284W        W29132   9.021   6.028  13.619  0.0246  0.0224  0.1778
12285W        W29133   4.134  11.159   1.029 -0.3232 -0.0485  0.0597
12286W        W29134   5.070   3.127   4.983  0.1771  0.0540 -0.1032
12287W        W29135   2.563   7.824   2.933 -0.1103  0.0937 -0.2109
12288W        W29136   2.781  15.187   6.103 -0.1220 -0.2977 -0.0380
12289W        W29137  16.571   7.777  13.133  0.2427 -0.1844 -0.1871
12290W        W29138   4.446  10.808   1.961  0.0248 -0.0447 -0.0248
12291W        W29139   5.559  12.028  12.208 -0.4140 -0.0260 -0.1009
12292W        W29140   6.240  11.257  14.231 -0.1393 -0.4863 -0.0999
12293W        W29141  14.148   2.385  12.054  0.2546 -0.1164  0.2846
12294W        W29142  11.743  17.348  12.180  0.0458 -0.3231 -0.0738
12295W        W29143   1.191  13.680  10.791 -0.0840 -0.0207 -0.0456
12296W        W29144   5.207  17.160   1.176 -0.0499  0.2899 -0.0678
12297W        W29145   6.845   9.980  11.478  0.0114 -0.0776 -0.0007
12298W        W29146   9.895  17.598  16.270  0.0144  0.0827 -0.2347
12299W        W29147  16.931   2.552  12.722 -0.1468 -0.1265  0.3953
12300W        W29148  13.514  17.637  12.859 -0.2874 -0.4446 -0.0881
12301W        W29149  13.840  17.111  13.997 -0.3483 -0.2311 -0.1316
12302W        W29150   5.660   8.002  15.630  0.0713  0.0866 -0.0263
12303W        W29151   9.738   3.857   3.635  0.2661  0.2942 -0.0206
12304W        W29152   5.450  14.271  11.326 -0.1396  0.1073  0.0581
12305W        W29153  11.545   8.819  15.158  0.1855  0.0121  0.2633
12306W        W29154   5.341   4.153  13.535  0.0719  0.1331  0.0625
12307W        W29155  11.910   3.322   4.731  0.1462  0.0231 -0.1253
12308W        W29156  12.508   0.238  12.160 -0.1563  0.1315 -0.0082
12309W        W29157   7.276  15.415  12.870 -0.2218  0.2845 -0.5072
12310W        W29158   0.385   8.104   0.925  0.1343  0.0550  0.2659
12311W        W29159   7.903  15.903  16.544  0.0656  0.0988  0.1698
12312W        W29160  11.435   1.622  11.894  0.0805 -0.1887  0.0518
12313W        W29161   0.520  16.801  12.897  0.0644 -0.0252 -0.1967
12314W        W29162   2.681  14.344  12.633 -0.1642 -0.2831  0.1141
12315W        W29163   3.683  11.833  12.349 -0.1969  0.0384  0.4716
12316W        W29164  11.022  12.691  14.511 -0.2042  0.2090  0.2488
12317W        W29165   8.830   5.199  16.202 -0.0210  0.1281 -0.0788
12318W        W29166   3.513   3.801  15.457 -0.0611 -0.3383  0.1835
12319W        W29167   9.698   4.617  12.238 -0.0493 -0.0862  0.0825
12320W        W29168   5.190   1.828   1.307 -0.2053 -0.1309  0.2640
12321W        W29169  10.901  12.082  14.537 -0.1922 -0.0988 -0.1559
12322W        W29170   2.779   3.397  16.603 -0.1351  0.0243  0.1389
12323W        W29171  11.468  17.476  13.075 -0.4210  0.2900  0.3112
12324W        W29172   5.042   2.784   1.721 -0.0749 -0.1618 -0.2629
12325W        W29173  17.396   7.875   1.448 -0.3298 -0.0370  0.2058
12326W        W29174   3.536  11.262   0.671  0.0156 -0.3152  0.0022
12327W        W29175   6.724   6.368  12.392 -0.2221  0.1093  0.0682
12328W        W29176  10.377  17.128  13.525 -0.0708 -0.3651  0.1161
12329W        W29177   9.917  10.396  11.734  0.2013 -0.3203 -0.0273
12330W        W29178  15.253   1.646   1.761  0.1469  0.1008 -0.0401
12331W        W29179   8.781  14.752  15.863  0.2142 -0.0737 -0.3526
12332W        W29180   5.172   0.354  15.312  0.0511 -0.1169  0.2371
12333W        W29181   7.963  15.899  13.796 -0.3199  0.2178  0.1048
12334W        W29182  14.605  12.443   1.181  0.0839  0.1335 -0.0929
12335W        W29183  14.012   8.380  13.058 -0.1475 -0.0676 -0.1000
12336W        W29184  11.379   1.678   0.291  0.0801  0.1291 -0.1164
12337W        W29185   3.212   2.279  11.830 -0.2263 -0.1053 -0.1394
12338W        W29186   3.608   3.324   5.293  0.0764 -0.0424 -0.0536
12339W        W29187   8.315   7.192  12.720  0.1428  0.0966 -0.0150
12340W        W29188  17.078  16.707  10.311 -0.1552 -0.2197  0.1635
12341W        W29189   7.275   0.238   3.531  0.0803  0.0173 -0.1752
12342W        W29190  12.561   4.774  16.665 -0.1146 -0.2130 -0.1695
12343W        W29191   7.683   9.253   4.234 -0.2129 -0.2553  0.3461
12344W        W29192   8.535  13.209   1.594  0.1327  0.2415 -0.1104
12345W        W29193   5.728   1.531   0.163 -0.1829  0.1414 -0.0273
12346W        W29194   2.547   1.106  15.375 -0.1474 -0.1037  0.1806
12347W        W29195   8.259   8.771  11.772 -0.0036  0.0068 -0.0498
12348W        W29196   8.046   5.795   0.980 -0.0018 -0.0808  0.2190
12349W        W29197   4.058   2.597  13.956  0.2067 -0.1529  0.1017
12350W        W29198  12.583   0.992  15.527 -0.0275 -0.2478  0.0243
12351W        W29199   5.418  10.695   4.923 -0.0319  0.0212  0.0078
12352W        W29200  17.355   7.789  16.537 -0.0155 -0.0269 -0.1624
12353W        W29201   0.630  14.925   3.911 -0.1356  0.0622 -0.0728
12354W        W29202   3.883  10.702   5.217 -0.0704 -0.0298  0.0076
12355W        W29203   8.255  12.389   2.692 -0.2712 -0.1671  0.4478
12356W        W29204   0.722   4.620  11.482  0.1217  0.0986 -0.1535
12357W        W29205   3.466   8.650  14.074 -0.2483  0.0400 -0.2910
12358W        W29206  10.364   8.300   4.460  0.0700  0.2009  0.2095
12359W        W29207  14.092   6.002  11.626  0.4252 -0.4036 -0.2519
12360W        W29208   4.962   9.637   5.789 -0.0032 -0.2329  0.1527
12361W        W29209   9.656   6.268   1.145  0.1129 -0.1408 -0.2969
12362W        W29210   7.121  11.628  11.399 -0.1992  0.3097 -0.2908
12363W        W29211   2.504   6.190   5.626  0.2718 -0.0285 -0.0691
12364W        W29212   3.981  16.213   4.082 -0.0491  0.1451 -0.1250
12365W        W29213  10.775   4.203  13.434  0.1621 -0.0630  0.0224
12366W        W29214  14.110  17.455   2.761 -0.0005  0.0148 -0.1169
12367W        W29215   1.709  16.685  16.157  0.1523  0.0682 -0.1729
12368W        W29216   3.876   8.380  14.196 -0.3030 -0.1376 -0.0184
12369W        W29217   1.312  14.216  12.481 -0.1541  0.0692  0.1430
12370W        W29218   7.005   9.405   1.406  0.1338 -0.0478  0.0290
12371W        W29219   0.012   0.601   2.083  0.1031  0.1433  0.0396
12372W        W29220  14.464   8.644   0.619  0.1125  0.2909  0.2586
12373W        W29221  14.657   5.516  12.844 -0.0406 -0.1361 -0.0619
12374W        W29222   1.814  14.617   2.179  0.0264 -0.1399  0.1344
12375W        W29223   3.340  10.070   4.238 -0.2024  0.0494 -0.0133
12376W        W29224  11.081   1.615  13.043  0.1445  0.2822 -0.1156
12377W        W29225   4.147  13.700   2.022 -0.2530  0.0613 -0.2382
12378W        W29226  12.434   2.516  11.896 -0.3442  0.0824 -0.0872
12379W        W29227  10.884   5.250  14.914 -0.1558 -0.3152  0.0228
12380W        W29228  16.747  10.237  11.915  0.2474  0.2536  0.1153
12381W        W29229   0.472   6.895  13.493 -0.0042  0.0811  0.4018
12382W        W29230   5.491  17.622   1.094 -0.0334  0.3854  0.1057
12383W        W29231   4.571  13.769  11.127  0.0189 -0.2130  0.1103
12384W        W29232  15.427  17.275   1.549  0.1637  0.1193  0.0237
12385W        W29233  15.164   4.926  12.465  0.1776 -0.1953  0.1973
12386W        W29234  13.861  15.107  13.426 -0.1183 -0.1939  0.3204
12387W        W29235  14.050  10.109   4.292  0.2392 -0.0065  0.2605
12388W        W29236   0.208  16.294  13.011  0.1337 -0.1380 -0.1140
12389W        W29237  15.260   0.441  15.620 -0.1149  0.2493  0.1907
12390W        W29238   3.514   5.207  11.120  0.1059  0.1628  0.2122
12391W        W29239  13.393   0.435   1.167 -0.0047  0.1394  0.0973
12392W        W29240  16.970  15.697   1.691 -0.0018 -0.2845  0.2242
12393W        W29241   2.308  11.049  15.649  0.2427  0.2238  0.1026
12394W        W29242   0.178   1.688  12.525 -0.3125 -0.0447  0.1364
12395W        W29243   0.181  10.532  11.441  0.0115  0.0699 -0.2159
12396W        W29244  17.248  16.590  15.576  0.2105 -0.0338  0.0551
12397W        W29245   0.502   7.731   0.050 -0.5807 -0.3641  0.4693
12398W        W29246   7.919  15.038   3.945  0.1335  0.0260 -0.1746
12399W        W29247   1.578   3.457   4.619  0.1526  0.0607 -0.0147
12400W        W29248  12.916   0.442   2.968 -0.0429  0.0746  0.1279
12401W        W29249   7.166   2.531   1.486  0.3177  0.2966 -0.2070
12402W        W29250   8.588  17.362  10.246  0.2109 -0.0056 -0.1247
12403W        W29251  11.398   2.708   1.809  0.1469 -0.1128  0.2088
12404W        W29252   7.491   0.716   1.469  0.1650  0.0706 -0.1170
12405W        W29253  10.108   9.632  11.277 -0.0980  0.0460 -0.2369
12406W        W29254   6.938   6.719  16.292  0.1115 -0.0098  0.3081
12407W        W29255   6.036   7.989   0.798  0.3093 -0.0030  0.0879
12408W        W29256  15.288  13.970  16.604 -0.1096 -0.2377  0.2747
12409W        W29257  14.883  13.789   2.132  0.1057 -0.0303  0.2151
12410W        W29258  15.381  11.092   0.094 -0.0878  0.1520 -0.0545
12411W        W29259   1.778   5.346   1.422  0.1156 -0.1841 -0.0917
12412W        W29260   5.349   8.086  12.912 -0.2128 -0.1565  0.0077
12413W        W29261   4.619   5.569   1.877  0.0005 -0.2608  0.0990
12414W        W29262   1.981   0.174   0.619  0.1835 -0.0209 -0.0441
12415W        W29263  10.306   9.508   2.280 -0.0954  0.1279  0.3168
12416W        W29264  11.348   1.581   3.307  0.3685 -0.0053  0.1342
12417W        W29265   2.786  13.406   1.040 -0.0927  0.3421  0.3270
12418W        W29266  10.051  11.384   0.283 -0.2243 -0.1882 -0.1522
12419W        W29267   1.573  15.291  11.202 -0.0097 -0.0253  0.3860
12420W        W29268   3.256  13.854  10.525 -0.2576 -0.4120  0.2304
12421W        W29269  12.365   4.147   4.993  0.2491 -0.3015  0.3064
12422W        W29270   4.437   5.461   3.443  0.1428  0.0084  0.0509
12423W        W29271   7.400  11.330  12.135  0.0300 -0.2846 -0.0887
12424W        W29272  11.091   0.823   0.630 -0.3292  0.1629  0.2199
12425W        W29273   6.111   7.955   1.996 -0.0473 -0.0019  0.0883
12426W        W29274  16.220   3.492   2.560  0.1037  0.0470  0.0789
12427W        W29275  15.654   9.577  13.211 -0.1453 -0.0129  0.0030
12428W        W29276  10.696  11.282   4.946 -0.0170  0.0621 -0.3163
12429W        W29277   4.696   0.871  13.512 -0.0229  0.1657  0.0528
12430W        W29278   6.095  13.079  12.776 -0.0081  0.2118 -0.1703
12431W        W29279   4.305   3.566   0.445  0.1204 -0.0181  0.0309
12432W        W29280  15.347  10.600  13.506  0.2222 -0.0423 -0.1345
12433W        W29281   1.404   2.091   4.751 -0.1653  0.0672  0.3218
12434W        W29282   1.054  11.638  16.119  0.0878  0.2731  0.1770
12435W        W29283   5.734   4.925  14.504 -0.0195  0.3666 -0.2505
12436W        W29284  14.605   7.107  11.181  0.3128 -0.1044 -0.0709
12437W        W29285   5.658   4.596  14.177 -0.1250  0.0735  0.2294
12438W        W29286  12.290   9.157   3.687  0.0208  0.0541  0.1050
12439W        W29287  17.133  15.669   3.507 -0.0963  0.2504  0.0407
12440W        W29288  10.612   3.514   0.807  0.0055  0.0171 -0.0566
12441W        W29289  14.672  17.191   0.101 -0.1577 -0.0827  0.1670
12442W        W29290   3.274   6.918  14.932 -0.0551  0.1384 -0.0097
12443W        W29291   9.622   4.850   1.468  0.1617  0.0567  0.1208
12444W        W29292  12.006   4.685   2.425  0.0530  0.0660  0.1378
12445W        W29293  15.947   0.927   3.110 -0.0467  0.1572  0.0804
12446W        W29294   5.062  11.828  11.103 -0.1281 -0.1074  0.3234
12447W        W29295   1.177  17.134  13.456  0.0026  0.0208 -0.1471
12448W        W29296  12.699  11.298   3.020  0.1177  0.0427 -0.0867
12449W        W29297   2.564   5.151  16.050  0.2703 -0.0556 -0.1409
12450W        W29298   4.947   6.588   0.822 -0.1912 -0.0790  0.0210
12451W        W29299   4.859   5.543  15.540 -0.2578 -0.1409  0.0073
12452W        W29300  12.548  15.340  15.694  0.0363 -0.2281 -0.1839
12453W        W29301   9.118  16.737  15.534  0.0230  0.0211  0.0266
12454W        W29302   0.805   5.136  13.364  0.1484 -0.0976 -0.1369
12455W        W29303   5.595   7.153   2.529  0.0920 -0.1931 -0.1699
12456W        W29304  16.579   5.716  15.920 -0.1102  0.2794 -0.2869
12457W        W29305   6.092  12.707   3.567  0.0670  0.0737  0.0782
12458W        W29306  11.287  17.553   0.880 -0.0325 -0.1096  0.1175
12459W        W29307  17.691  15.272   3.034  0.3345 -0.1396 -0.0461
12460W        W29308   2.240   2.359   0.691  0.0778 -0.0310  0.0646
12461W        W29309  11.616   9.500   3.217  0.0219  0.0390 -0.1926
12462W        W29310   9.011  10.337  13.271 -0.1620  0.0151 -0.1671
12463W        W29311  15.562   2.301  14.454  0.0306  0.1555 -0.3672
12464W        W29312  10.815  17.207   5.179  0.2209  0.0372  0.0070
12465W        W29313   7.293   9.296  13.306 -0.4332  0.0741 -0.2821
12466W        W29314   9.824  12.740   5.072  0.1482  0.1449 -0.1484
12467W        W29315  16.832  14.761  14.035  0.5307  0.2140  0.4268
12468W        W29316   2.669   4.646  16.019 -0.4067 -0.0353  0.0416
12469W        W29317  14.899   1.306  13.869 -0.2343  0.1079  0.0311
12470W        W29318   3.328  10.952  11.659  0.0883 -0.2167  0.0139
12471W        W29319   4.015  15.717   4.961 -0.2468  0.0253  0.0302
12472W        W29320  10.732  16.605  16.342 -0.0432 -0.1311 -0.3425
12473W        W29321   4.388   0.628  10.667  0.0485  0.2016  0.2252
12474W        W29322   8.298  10.003   0.060  0.1453  0.2846 -0.0732
12475W        W29323   4.445   5.501   0.710  0.3113  0.0206  0.0876
12476W        W29324   2.962  11.882  15.635 -0.0917 -0.3352 -0.0182
12477W        W29325   3.615   1.694   3.722  0.0557 -0.0324 -0.0455
12478W        W29326   1.407  15.853  15.401 -0.0645 -0.0582  0.1239
12479W        W29327   9.025  17.501  14.598 -0.0833 -0.1720 -0.0027
12480W        W29328   6.862   2.560  14.325  0.0054 -0.1131  0.3552
12481W        W29329  11.711  16.306  11.892 -0.1382  0.0150  0.4011
12482W        W29330   5.564  10.279  16.590 -0.0244 -0.0599  0.2667
12483W        W29331  10.690  12.068   0.354  0.0810 -0.1205 -0.1436
12484W        W29332  11.933  11.712  15.759 -0.1571  0.1568 -0.4756
12485W        W29333  15.979  11.320   0.092  0.1120 -0.3551 -0.2294
12486W        W29334   6.642  15.256  16.086  0.0658 -0.3713  0.0852
12487W        W29335  15.156  15.580   4.010  0.2959 -0.3606  0.0339
12488W        W29336  16.233  10.048  15.812  0.2102 -0.2265 -0.0848
12489W        W29337   0.458   1.626  13.466 -0.2181  0.0512  0.0113
12490W        W29338   0.348   7.407   4.039  0.0331  0.0437 -0.1832
12491W        W29339  11.551   1.049   1.529 -0.1105 -0.0883 -0.2683
12492W        W29340   2.110  14.287  13.827  0.0894 -0.5439 -0.1443
12493W        W29341   9.388   5.343  12.909 -0.2263 -0.0000  0.2031
12494W        W29342  13.446   4.977  16.473  0.0228 -0.0843 -0.0133
12495W        W29343  14.940  15.265   4.346 -0.2068 -0.0358 -0.1752
12496W        W29344   6.071  15.260  11.254  0.1478  0.1031  0.0856
12497W        W29345  15.951   2.282   1.571 -0.1027  0.2061 -0.1566
12498W        W29346   0.656  13.498  12.486  0.1146 -0.0944  0.1682
12499W        W29347   0.774  16.140   4.725  0.2665 -0.1559  0.1923
12500W        W29348   4.083  10.851   4.740 -0.0792  0.2905 -0.0352
12501W        W29349  14.582   0.021   1.381 -0.3224  0.0207  0.1809
12502W        W29350   9.386   6.971   4.013 -0.1854 -0.0881  0.5101
12503W        W29351  12.625   9.466   2.882  0.0335  0.0129  0.1196
12504W        W29352   6.581  14.451  12.351 -0.4042 -0.1340 -0.0585
12505W        W29353  15.520  17.368  16.661 -0.2018 -0.0696 -0.0581
12506W        W29354   7.579  11.860   0.487  0.1300  0.1688  0.1116
12507W        W29355  17.198   8.122  11.891 -0.0586 -0.4239 -0.2512
12508W        W29356   2.247   7.258   3.568 -0.3015 -0.0995 -0.1652
12509W        W29357   3.023   9.189   0.909 -0.1208 -0.1155  0.0923
12510W        W29358  11.174  12.485  13.035  0.2373  0.0605 -0.0743
12511W        W29359  14.558  14.932   4.375  0.4432  0.0986  0.1399
12512W        W29360   9.570  16.054   3.042  0.3863  0.0265  0.0364
12513W        W29361  10.166   0.395   4.584 -0.2018 -0.0651  0.1226
12514W        W29362   2.071  16.058  16.170 -0.0387 -0.0070 -0.2444
12515W        W29363  12.407   7.779  12.905  0.0540  0.1244 -0.0518
12516W        W29364   1.068  15.264  14.242 -0.0595 -0.1433  0.0301
12517W        W29365  10.647  13.901   2.697 -0.2233 -0.2349 -0.4481
12518W        W29366  15.588   9.213  11.794 -0.0912 -0.0250 -0.1047
12519W        W29367  14.052  12.359  14.132  0.1168 -0.0159  0.3196
12520W        W29368  10.056   0.169   0.987  0.2358 -0.0521  0.0365
12521W        W29369  11.270  17.230  13.930  0.0318 -0.0068  0.0243
12522W        W29370   0.437  12.906  15.043 -0.0694 -0.1179  0.0133
12523W        W29371   8.482  10.709  11.628 -0.2851  0.3831 -0.0475
12524W        W29372  15.028  11.052  14.206  0.2789 -0.1406  0.0802
12525W        W29373   6.021   4.599   5.352 -0.2793  0.2016 -0.0380
12526W        W29374   2.461  15.518  14.705 -0.0645 -0.1579 -0.1022
12527W        W29375  16.170   6.032   2.644  0.1110  0.1170  0.2677
12528W        W29376  11.911   0.913   1.803 -0.0585 -0.0146  0.2002
12529W        W29377   7.388   2.616  14.107 -0.1816  0.0398 -0.0949
12530W        W29378  10.475  10.925   5.608  0.2792  0.1630  0.1195
12531W        W29379   5.767  11.539  16.346  0.2152 -0.2507 -0.0577
12532W        W29380   0.812  12.060  14.899 -0.3189 -0.0333  0.1973
12533W        W29381   3.140   5.221   1.400  0.2029 -0.3620  0.0699
12534W        W29382   0.799   0.967   0.723 -0.0053  0.0901 -0.0829
12535W        W29383   7.614  16.623  13.496 -0.0240 -0.3332  0.3908
12536W        W29384  10.747  10.382   1.266 -0.2918  0.1254 -0.1471
12537W        W29385  11.343  15.659   0.600  0.0205 -0.0410 -0.0251
12538W        W29386  11.526   8.793   0.801  0.1424  0.0197 -0.0749
12539W        W29387   3.200  14.308   2.341 -0.0361 -0.0922 -0.1608
12540W        W29388   3.567   7.726   3.104 -0.1445  0.1309 -0.0326
12541W        W29389   9.549  14.781   3.033 -0.1684 -0.0308 -0.1517
12542W        W29390   5.116   0.316   3.057  0.0822 -0.3318  0.2618
12543W        W29391  11.183  11.525  16.080 -0.1051 -0.0021  0.0773
12544W        W29392  17.052   6.088   2.817  0.1629 -0.2158  0.1079
12545W        W29393  16.213  13.321   0.185  0.0585 -0.2665  0.0450
12546W        W29394  17.685   7.329   1.637  0.0142 -0.0938  0.0896
12547W        W29395  15.964  10.414   0.913 -0.2096  0.1766  0.0828
12548W        W29396   0.111   1.788  14.235  0.1225 -0.0342 -0.1371
12549W        W29397  17.400  11.863   3.472 -0.1581 -0.3108  0.1072
12550W        W29398   7.934   7.491  12.885  0.1813 -0.2793  0.1910
12551W        W29399   9.767   8.806   0.344  0.0793 -0.1136  0.0483
12552W        W29400  11.297  12.883  11.872 -0.0793 -0.3520  0.1332
12553W        W29401  17.445   3.500   3.015  0.1153 -0.1815  0.2584
12554W        W29402   4.002  12.653  13.808  0.1876  0.2339  0.0085
12555W        W29403  12.838  11.637  15.701  0.1216 -0.2289 -0.1333
12556W        W29404   8.104   1.931   5.069  0.0769 -0.2189  0.0905
12557W        W29405  15.107  11.522  14.495  0.1578  0.1410 -0.2760
12558W        W29406   3.161  16.878   2.521 -0.0451 -0.0677 -0.0476
12559W        W29407  11.977   4.211  13.947 -0.0827  0.1099 -0.0974
12560W        W29408   2.562   4.439  13.150  0.3764  0.1169 -0.1883
12561W        W29409   0.257  15.195   3.528  0.0632  0.1700  0.2865
12562W        W29410   3.819   4.157   3.282 -0.1674  0.3771 -0.1294
12563W        W29411  15.177  12.467  11.677 -0.1252 -0.2374 -0.1356
12564W        W29412   4.867   5.425   4.769  0.0559 -0.0586 -0.0415
12565W        W29413   3.045  13.289   2.507 -0.0266  0.0303 -0.0175
12566W        W29414   6.203  15.111   5.672 -0.1129 -0.0075 -0.0707
12567W        W29415   8.496  11.602  13.472 -0.0996 -0.0704 -0.4463
12568W        W29416  10.740   2.121  13.758  0.0789  0.2514 -0.0555
12569W        W29417   3.894   5.034  13.685 -0.0149 -0.1014  0.2568
12570W        W29418  12.546  14.529   2.063 -0.1034 -0.1742 -0.1359
12571W        W29419   7.819   6.186  11.549  0.1579  0.2360  0.5273
12572W        W29420  17.552   7.023  15.474  0.0161  0.2607  0.2271
12573W        W29421   6.624   6.044   2.517 -0.1489  0.0107  0.0352
12574W        W29422   9.947  12.517  15.352 -0.2875  0.1427 -0.1075
12575W        W29423  12.674  10.310  11.818  0.0375  0.1296  0.1117
12576W        W29424  14.777   7.338  12.404  0.0189  0.1370 -0.1461
12577W        W29425   4.249  13.704  11.498 -0.1610  0.1228 -0.3076
12578W        W29426  12.676  11.937   0.081 -0.4246  0.0700 -0.0187
12579W        W29427   1.407  10.652   0.381 -0.3461  0.2318  0.0061
12580W        W29428  11.350  13.593   2.366  0.2713 -0.1307  0.1449
12581W        W29429   0.876  14.760   2.883 -0.1935 -0.2787 -0.0365
12582W        W29430   7.619   6.047   0.538  0.0568 -0.1906  0.3240
12583W        W29431  17.174   6.021   4.107  0.0202 -0.0686 -0.2507
12584W        W29432   8.870   4.170   4.103  0.1105 -0.0110  0.0184
12585W        W29433  16.167   6.759  11.092  0.2080 -0.2493  0.0648
12586W        W29434  10.651  17.049   2.424 -0.0396  0.4039 -0.0701
12587W        W29435   6.879  10.697   4.755  0.2839  0.2573 -0.1129
12588W        W29436  16.984   9.343  15.910  0.0644 -0.4132  0.1167
12589W        W29437   9.217  10.066  14.851  0.1081  0.4075 -0.1860
12590W        W29438  16.454  16.208   0.038  0.0323 -0.2361  0.2036
12591W        W29439  13.013  11.173   1.506  0.0934 -0.0169 -0.1036
12592W        W29440   2.078   5.676   5.264  0.0804  0.1226  0.3497
12593W        W29441   1.416  14.985   3.018 -0.0516  0.1432 -0.1553
12594W        W29442  10.223   9.743   3.297 -0.0661 -0.1010 -0.1084
12595W        W29443  12.216   3.217  12.822  0.0590  0.2049  0.0706
12596W        W29444   2.278   9.185  16.277 -0.0745 -0.0073 -0.1588
12597W        W29445  15.605  15.358   2.988 -0.1468 -0.0212 -0.1478
12598W        W29446  16.513   8.046  15.468  0.0121  0.0433 -0.2491
12599W        W29447  12.304   3.804   3.675  0.1831 -0.2925 -0.1826
12600W        W29448  17.097  15.445  11.715 -0.0929 -0.2012 -0.0542
12601W        W29449   0.466   0.299   4.770 -0.0805  0.4561 -0.0615
12602W        W29450   7.327   3.710  15.406 -0.0645  0.1263 -0.0992
12603W        W29451   8.130   8.012   2.434  0.4625 -0.1465  0.0286
12604W        W29452   6.581  15.437  12.278  0.2961  0.2488 -0.1515
12605W        W29453   4.120   5.064  16.133 -0.1479 -0.4031 -0.2523
12606W        W29454   8.575   8.663  15.404 -0.1470  0.0886 -0.0774
12607W        W29455  11.014  12.009  16.118 -0.0677  0.0788 -0.1170
12608W        W29456  15.299  10.173  15.826 -0.1725 -0.1909 -0.1043
12609W        W29457  16.716   3.817  15.413 -0.0158  0.1698 -0.0837
12610W        W29458  13.856   6.217  15.909 -0.1003  0.2600 -0.1367
12611W        W29459   4.820  10.428  13.778 -0.1634 -0.0480  0.1305
12612W        W29460  15.463   0.219   4.783  0.0673 -0.1522 -0.0917
12613W        W29461   0.224  16.264  11.722  0.0613 -0.0537  0.0009
12614W        W29462  17.314  14.380  15.465 -0.0401  0.0512  0.0472
12615W        W29463  12.892  16.263  11.930 -0.0458  0.2575  0.0496
12616W        W29464  15.654   0.387   0.365  0.1450 -0.1034  0.3213
12617W        W29465  13.942   0.790  12.859  0.1533 -0.1343 -0.0097
12618W        W29466   5.903  17.621   4.610 -0.0229  0.1275  0.2545
12619W        W29467   0.178  16.747  13.250  0.2637  0.1848  0.1608
12620W        W29468  12.611  12.770  13.018 -0.0850  0.1277 -0.0747
12621W        W29469   9.554   2.731  12.723 -0.1480 -0.0690 -0.3532
12622W        W29470  12.165   6.628   5.321 -0.0619 -0.0207 -0.0267
12623W        W29471   6.220   7.862  16.091 -0.2826 -0.0228  0.0782
12624W        W29472   1.220   0.012   5.031 -0.2779  0.2249  0.0140
12625W        W29473  14.369   6.899  15.891  0.2330  0.2918  0.2697
12626W        W29474  11.170   3.687  16.007 -0.0300 -0.2115  0.1675
12627W        W29475  10.926   6.225  11.989  0.2576 -0.0509  0.0593
12628W        W29476   8.189  16.190   6.279 -0.0477  0.0358 -0.0940
12629W        W29477   1.156   7.506  12.953 -0.1172 -0.0135 -0.0919
12630W        W29478  15.496   2.319  13.426  0.0062 -0.2471 -0.1459
12631W        W29479  10.197   7.448  14.966 -0.0725 -0.3883  0.1967
12632W        W29480   5.070   4.490   1.203 -0.3441 -0.3167  0.4008
12633W        W29481   3.672   1.122   5.177  0.0877  0.2271  0.0272
12634W        W29482  14.981  15.842  13.560  0.1756  0.0112 -0.1117
12635W        W29483   0.234   9.347   3.975  0.1096 -0.2964 -0.2035
12636W        W29484  16.840  13.516   5.111 -0.1113  0.0072 -0.1369
12637W        W29485  12.339   2.280  12.746  0.1873  0.1067 -0.0664
12638W        W29486  12.645  13.419  15.059  0.0966  0.0262  0.2178
12639W        W29487   9.125   7.919  12.638 -0.0457 -0.1249 -0.2294
12640W        W29488   2.408   9.844  14.549  0.0550  0.0990  0.3583
12641W        W29489   1.529  13.087   2.363 -0.1339  0.1388 -0.1061
12642W        W29490   8.279   1.868  16.294  0.0713 -0.2432 -0.0383
12643W        W29491   1.929  14.959   0.269 -0.0609  0.0464  0.1718
12644W        W29492   1.993  12.710  16.446 -0.1107  0.2347  0.0088
12645W        W29493   4.413  10.572  14.781 -0.2447  0.1394  0.0410
12646W        W29494   4.934   5.223   1.136 -0.1365  0.2903 -0.0863
12647W        W29495   4.358  11.519  10.530  0.1001 -0.0009 -0.1633
12648W        W29496   2.310   7.657   3.863 -0.2333  0.2487  0.0557
12649W        W29497  11.583   9.648  12.398 -0.1221 -0.0895 -0.0636
12650W        W29498  10.632   4.473  13.869  0.1044  0.1180  0.1173
12651W        W29499   8.869  12.229   2.606 -0.0327 -0.0560 -0.2294
12652W        W29500  12.544  15.269  13.819 -0.0662 -0.0988  0.2347
12653W        W29501   7.944  15.629   1.018 -0.0690 -0.2446  0.4801
12654W        W29502  17.556  12.509   1.213 -0.1617  0.0190 -0.0935
12655W        W29503  15.723  15.431  12.170 -0.1052 -0.0510 -0.1151
12656W        W29504   2.422   1.302   5.305  0.0325 -0.1056  0.1253
12657W        W29505   4.990   2.484  16.357  0.2726  0.1500 -0.2352
12658W        W29506   9.644   9.324   4.644  0.1401  0.0894 -0.1638
12659W        W29507  14.318   0.462  13.750  0.1402 -0.2458  0.0973
12660W        W29508  15.585   3.170   0.711 -0.1924 -0.2300 -0.0712
12661W        W29509   7.446  10.004   4.345 -0.0691  0.1625  0.0813
12662W        W29510   8.609  17.638  13.534 -0.2469 -0.0448 -0.1552
12663W        W29511  10.317   2.109   3.266 -0.1950 -0.0813 -0.0865
12664W        W29512  17.069   3.274   2.722  0.2157  0.3361  0.2797
12665W        W29513   7.514  14.129  12.591  0.3614 -0.0620  0.3077
12666W        W29514  17.004   0.569  13.468  0.0930  0.0515 -0.1660
12667W        W29515   7.996  10.604  12.746  0.6828  0.0220  0.0851
12668W        W29516   5.048   2.302  14.812  0.1592 -0.1056 -0.0224
12669W        W29517   5.419   0.784  16.541 -0.0683 -0.0980 -0.0901
12670W        W29518  16.941  12.431  13.947 -0.0493  0.0335  0.0032
12671W        W29519  15.402   6.209   5.889  0.1492  0.0806  0.0336
12672W        W29520  15.182   8.680  16.658  0.0657 -0.3461 -0.2698
12673W        W29521   0.788  11.706   6.000 -0.0823 -0.0116  0.2947
12674W        W29522   8.225   5.722   0.030  0.1153 -0.1106 -0.1774
12675W        W29523  15.925   2.218   4.375  0.0572 -0.0408  0.0916
12676W        W29524   6.993   9.248  15.634 -0.0078 -0.0841  0.2155
12677W        W29525  10.261  14.983   5.734  0.2856  0.1150  0.1263
12678W        W29526   4.148   8.885  12.738 -0.0109  0.2132 -0.1470
12679W        W29527   4.497   9.022   4.407 -0.3713  0.0253  0.0396
12680W        W29528   3.353   7.673  12.589  0.1167 -0.2258 -0.0594
12681W        W29529   6.085   1.628   4.493 -0.1782 -0.0360  0.1082
12682W        W29530  15.194   9.781  13.720  0.3666  0.1768 -0.0461
12683W        W29531   3.393   4.593  14.722 -0.1828  0.0392  0.1233
12684W        W29532   8.690   1.700   4.289 -0.2508  0.2609  0.1246
12685W        W29533   5.712   9.401   5.206  0.2510 -0.2308  0.0273
12686W        W29534   2.533  14.134  13.594 -0.0023  0.3272  0.0620
12687W        W29535   0.946   0.689  15.345 -0.0593  0.2316  0.0592
12688W        W29536  11.841  12.547  15.000 -0.2197 -0.2451  0.2110
12689W        W29537  12.635   1.666   2.812  0.2195  0.1120 -0.2140
12690W        W29538   1.629  12.551   2.271  0.0193  0.1097  0.0019
12691W        W29539  17.199   0.724  12.992 -0.3979 -0.1691  0.0436
12692W        W29540  13.962   4.516   3.007  0.1358  0.3580  0.1065
12693W        W29541  14.656   2.431  12.066  0.0438  0.1437  0.0255
12694W        W29542  10.607   6.680  11.998  0.1510  0.1485  0.0852
12695W        W29543   8.230  13.997   5.415  0.0200 -0.2321  0.0633
12696W        W29544  11.075   8.501  14.273 -0.2061  0.1930 -0.4185
12697W        W29545  11.635  15.152   3.492 -0.1142 -0.1183 -0.0406
12698W        W29546  15.640   2.465  14.927 -0.2703  0.1315  0.2458
12699W        W29547  14.641  16.648   1.851  0.1316 -0.0130 -0.0843
12700W        W29548   4.455   5.004   0.938  0.0255 -0.0632 -0.1398
12701W        W29549   7.551   6.163  15.225 -0.1266 -0.0175 -0.1365
12702W        W29550  15.025   7.948  13.716  0.0416 -0.2001  0.0665
12703W        W29551   3.264   9.349  11.189  0.0632  0.2270  0.0118
12704W        W29552   0.889   4.608  14.503  0.1932  0.0695 -0.1542
12705W        W29553   5.356   9.864   1.083  0.3220 -0.1770  0.1742
12706W        W29554   5.520  11.282   0.115  0.3421  0.0522 -0.0577
12707W        W29555  12.973   8.041  10.421  0.0081 -0.2187  0.4617
12708W        W29556   2.881   0.201  11.702  0.3025  0.4349 -0.0941
12709W        W29557   7.396   4.731   4.126 -0.1627  0.0995  0.3354
12710W        W29558   9.625   0.352   0.052  0.1762  0.2079 -0.1023
12711W        W29559   4.199  11.403  13.297  0.3391  0.0451 -0.0222
12712W        W29560   1.829  13.798   3.309 -0.2328 -0.0726  0.1186
12713W        W29561  13.850  10.924   0.058  0.3655 -0.4713  0.3346
12714W        W29562   7.475   5.567  13.778 -0.0450 -0.2536  0.0851
12715W        W29563  16.792   6.715   5.446 -0.2418  0.0629  0.2663
12716W        W29564   9.094  12.038   3.393 -0.0958 -0.0755 -0.2022
12717W        W29565   8.530   5.532   4.491  0.1251  0.2284  0.1526
12718W        W29566   2.049  11.286   3.960  0.1601  0.1298  0.1653
12719W        W29567   7.581  16.821   1.318  0.3642 -0.0536  0.2575
12720W        W29568  10.007   2.940  12.737 -0.1283 -0.0259  0.1043
12721W        W29569  10.173  12.435   2.888  0.1068 -0.3080  0.0923
12722W        W29570   4.805   5.218   2.291 -0.0581  0.0664  0.2785
12723W        W29571  12.203   7.977   5.816 -0.2683 -0.2158 -0.3069
12724W        W29572   4.293   9.201  15.555  0.0313 -0.0606  0.0583
12725W        W29573  10.194  13.866  12.967 -0.1241 -0.2557 -0.1067
12726W        W29574   9.354  17.676   0.340 -0.2219 -0.2154  0.1668
12727W        W29575  10.125   6.271   2.771 -0.0928 -0.0881  0.3797
12728W        W29576   3.327   8.608  12.716 -0.2766 -0.0358  0.2418
12729W        W29577  16.209  12.465  13.426  0.1374 -0.2653  0.1672
12730W        W29578  12.779   5.639  15.206  0.1460 -0.0439  0.0190
12731W        W29579  10.474  10.479  11.899  0.0308 -0.0573 -0.1321
12732W        W29580   3.039   4.462   4.459 -0.1106  0.0313  0.1495
12733W        W29581   5.888  15.603  11.602  0.0557  0.0747 -0.0512
12734W        W29582   7.379   3.510   0.950 -0.1757 -0.1140 -0.2346
12735W        W29583   6.081  10.448   0.048  0.0223 -0.1386  0.2637
12736W        W29584  16.036   6.479   2.252  0.0207  0.2384 -0.1370
12737W        W29585  14.401  14.725   5.007 -0.3606 -0.4011 -0.0024
12738W        W29586  12.952   2.179  15.514  0.0781  0.2647 -0.0085
12739W        W29587  12.887   0.512  12.391 -0.2950  0.0682 -0.0484
12740W        W29588  13.741   9.981   5.091  0.2589  0.0725  0.0685
12741W        W29589  13.288  16.517  11.784  0.0221 -0.0384 -0.1977
12742W        W29590   8.607  12.355   4.694  0.3189  0.2942  0.1600
12743W        W29591  10.497   7.191  13.713  0.0897 -0.2419  0.1399
12744W        W29592  11.571   4.530   5.182 -0.0233 -0.0460  0.2017
12745W        W29593  14.992  10.587   2.908  0.3035  0.0082 -0.1904
12746W        W29594  16.547  14.113  12.438  0.0354  0.1070 -0.0071
12747W        W29595  10.361  10.407   1.707 -0.2090  0.2299 -0.0925
12748W        W29596  14.809   4.702   4.450 -0.1113  0.1743 -0.0664
12749W        W29597   1.177   5.924  14.028 -0.0192 -0.0096 -0.0763
12750W        W29598   7.705   5.595  11.701  0.0248 -0.1754 -0.1582
12751W        W29599  10.580  17.284   2.859  0.1176  0.1025 -0.0406
12752W        W29600  11.430   0.416  14.295  0.1011 -0.0638  0.0962
12753W        W29601   4.643   4.823   1.390 -0.5335 -0.2709  0.1971
12754W        W29602  12.531   5.593  14.681 -0.0992 -0.1344 -0.0414
12755W        W29603  11.098   1.415   5.778 -0.1446 -0.2934 -0.0331
12756W        W29604   5.943   8.470  13.095  0.0162  0.0509 -0.0444
12757W        W29605  14.904   2.066  12.322 -0.1646  0.1596 -0.3476
12758W        W29606  11.676  12.126   0.017  0.1635 -0.1299  0.1335
12759W        W29607  13.485   9.523   1.515  0.1268 -0.0982  0.0803
12760W        W29608  15.542   2.662   3.359 -0.0909  0.1991 -0.0118
12761W        W29609   6.477   2.288   3.424  0.2939 -0.1790 -0.1186
12762W        W29610   7.617   5.884  14.712 -0.0708 -0.1741  0.1784
12763W        W29611   7.329  17.027  13.396 -0.0853 -0.0428 -0.1043
12764W        W29612  12.262   7.523   4.243  0.1822 -0.0724  0.3155
12765W        W29613   7.876  10.477   4.257 -0.0143  0.1999 -0.0832
12766W        W29614   9.672  12.030   2.428  0.2180 -0.1509  0.1859
12767W        W29615   3.002  17.448  14.932 -0.0103 -0.1575  0.1430
12768W        W29616   0.986   4.123  12.370 -0.3013 -0.2053 -0.2530
12769W        W29617   1.821  15.636  16.073  0.1043  0.3652  0.1596
12770W        W29618   2.608   7.456   0.983 -0.1211 -0.0299  0.0190
12771W        W29619   1.497  14.976  16.567  0.0526 -0.0129  0.1691
12772W        W29620   4.319  17.553  14.390 -0.0988  0.0867  0.1505
12773W        W29621   0.937  12.792  10.900 -0.1246 -0.0783  0.0967
12774W        W29622  12.060  13.811   4.832 -0.1777 -0.0196 -0.0569
12775W        W29623  15.903  11.389   2.697 -0.1937 -0.2739 -0.1708
12776W        W29624  12.923   2.657   1.084  0.0852 -0.0049 -0.2067
12777W        W29625  14.336   3.716   1.786  0.0516 -0.4300 -0.0943
12778W        W29626  12.314   2.095  11.741  0.1842 -0.4466  0.0403
12779W        W29627  16.265   6.931   3.904  0.0337  0.1861  0.0839
12780W        W29628   3.300   5.522   1.792  0.1610  0.0659  0.0138
12781W        W29629  16.213   0.786   1.955  0.0820  0.0135  0.1659
12782W        W29630   4.163   3.032  12.518  0.0526 -0.0498 -0.3500
12783W        W29631  14.563  14.511  15.460  0.3924  0.3100 -0.1362
12784W        W29632   9.055  17.136   1.402  0.0534 -0.2432 -0.1574
12785W        W29633   9.291  11.893  13.317 -0.2266  0.0103 -0.1013
12786W        W29634  14.924   1.044  16.145 -0.2832 -0.3542 -0.1883
12787W        W29635   0.284   9.120   0.758  0.2220  0.1875 -0.1485
12788W        W29636   6.229  16.770   1.831 -0.3017  0.1705  0.0847
12789W        W29637  17.468   8.310   1.722  0.2800  0.1515  0.1819
12790W        W29638   6.304   2.685   4.745 -0.1145 -0.1363 -0.0894
12791W        W29639   1.668  14.370  13.486 -0.1194 -0.0107 -0.1510
12792W        W29640  10.205  14.653   0.758 -0.0405 -0.3291  0.0990
12793W        W29641  15.701  14.397   3.097  0.0652  0.2230 -0.1428
12794W        W29642  14.318   4.732   5.800 -0.0050 -0.0320  0.0676
12795W        W29643  17.291   1.962   4.459  0.2269  0.0617  0.2841
12796W        W29644  16.398   4.060   2.618  0.3750  0.0319  0.0652
12797W        W29645   1.835   5.493   2.930 -0.2279 -0.0495  0.1095
12798W        W29646  11.580   5.623  14.321 -0.0020 -0.1240 -0.1133
12799W        W29647  17.446  10.854  13.994  0.2451  0.2037  0.0547
12800W        W29648  15.275  12.104  14.506  0.1753 -0.3208 -0.0876
12801W        W29649  13.319  14.412   4.843 -0.0333  0.0067 -0.3441
12802W        W29650   5.096   1.879   1.730  0.1326 -0.0495 -0.3791
12803W        W29651  16.193   1.220   4.964 -0.3269 -0.0111  0.0999
12804W        W29652   2.908  15.919   2.986 -0.2738  0.1809  0.0062
12805W        W29653   8.308  12.790   2.352  0.1610  0.0653 -0.1913
12806W        W29654   7.469   0.512  15.401 -0.2517  0.0257 -0.1053
12807W        W29655  17.293   4.638   3.815  0.0241 -0.0394 -0.1587
12808W        W29656   6.903   6.313   4.166 -0.0184  0.1777 -0.2230
12809W        W29657  17.450  11.565   0.494 -0.1496 -0.1102  0.0889
12810W        W29658   8.460  15.078  16.173  0.1911  0.1338 -0.1234
12811W        W29659  15.188  13.966  16.093  0.3009 -0.0768  0.0652
12812W        W29660  14.255   2.546   1.136  0.1016 -0.1802 -0.1056
12813W        W29661  10.421  11.373  12.254 -0.1843  0.1269  0.0740
12814W        W29662   2.421   2.622   5.260 -0.0630 -0.1851  0.0680
12815W        W29663   0.940   8.632   2.352  0.1916 -0.0179  0.2462
12816W        W29664  14.277   3.803  11.991 -0.0652  0.0711 -0.1544
12817W        W29665  15.093  10.828   1.976 -0.1945 -0.2703  0.3610
12818W        W29666  16.160   4.593   1.427 -0.0113 -0.0700 -0.1566
12819W        W29667  17.257   0.399   3.820  0.1588  0.3472 -0.3299
12820W        W29668  10.136   6.728   0.425  0.3381  0.0733 -0.1299
12821W        W29669  14.630   5.950  14.162  0.2300  0.3951 -0.0558
12822W        W29670  12.628   5.472  13.351  0.2941 -0.0610  0.1136
12823W        W29671   1.867  17.509  13.960  0.1017 -0.0164 -0.1128
12824W        W29672  13.699   3.333   5.039 -0.2243 -0.2162  0.1721
12825W        W29673   0.603   0.653  15.965  0.1541  0.0446 -0.1909
12826W        W29674   8.272  14.457  12.807 -0.2718  0.2755 -0.0806
12827W        W29675  10.386   4.935  10.655  0.1227  0.1318  0.0632
12828W        W29676  13.013   2.928  14.693 -0.3558 -0.0381 -0.0977
12829W        W29677  16.300  11.009  15.817  0.3380  0.0548 -0.0354
12830W        W29678   7.273  12.466   3.100 -0.0212  0.0417  0.1855
12831W        W29679  13.303   5.312   3.287 -0.4120 -0.0748 -0.1247
12832W        W29680   7.908   8.792   4.446  0.1161 -0.0020 -0.1439
12833W        W29681  12.734  17.642  13.497 -0.1056  0.0657  0.2190
12834W        W29682   5.991   7.596   1.472  0.0674  0.1231  0.1818
12835W        W29683  13.349  10.682  16.328  0.2415  0.1152 -0.1468
12836W        W29684   1.099   0.069   1.103 -0.0775 -0.0818  0.1440
12837W        W29685   1.117   6.265   4.297 -0.0583 -0.1614 -0.0277
12838W        W29686   6.382   2.975   3.553  0.0850  0.3720  0.1350
12839W        W29687  17.251  15.099  14.844  0.1170 -0.1198 -0.0086
12840W        W29688   9.672   4.383  14.297 -0.0897 -0.0315  0.3407
12841W        W29689   6.917   9.023   0.702 -0.2328 -0.2943 -0.1523
12842W        W29690  15.660  13.808  16.060 -0.0913  0.1556 -0.2620
12843W        W29691  14.902   7.310   3.434  0.0862 -0.0880  0.0339
12844W        W29692   7.872   6.391  13.954  0.2899  0.0913 -0.0977
12845W        W29693   0.740  10.869  16.198 -0.0887 -0.2359  0.0229
12846W        W29694   9.321   7.514  14.183  0.1859  0.2733  0.1113
12847W        W29695   6.768   0.929   4.041  0.0593 -0.0432 -0.3848
12848W        W29696  11.702   9.207   4.454  0.0757  0.4637  0.0142
12849W        W29697  15.699   3.654  10.794 -0.0189 -0.1879 -0.1447
12850W        W29698   7.355   9.999  12.174  0.0479  0.0078  0.0615
12851W        W29699  15.979  14.671   0.705  0.0454  0.0074  0.1470
12852W        W29700   3.582  17.084  14.474  0.0005 -0.0804 -0.0047
12853W        W29701  14.755   9.050  11.530  0.1172 -0.0263 -0.0271
12854W        W29702  11.248   7.480   1.891 -0.0584 -0.0213 -0.0962
12855W        W29703   5.592  15.860  11.924  0.0075  0.0946  0.0762
12856W        W29704   7.823  13.792  12.436 -0.1394 -0.0431  0.1381
12857W        W29705   7.511  13.390   0.384  0.1590  0.1992 -0.0397
12858W        W29706   5.474   3.108   1.508  0.2952  0.2598  0.0031
12859W        W29707  12.020  14.761  16.288  0.1630 -0.1084 -0.0841
12860W        W29708   5.655  11.116  13.167  0.1128 -0.1241 -0.0872
12861W        W29709   7.215  12.237  14.676 -0.4008  0.2152 -0.3081
12862W        W29710   6.436   8.577  16.622 -0.2191  0.0669 -0.2055
12863W        W29711   0.788   9.197  15.180 -0.1639  0.1522 -0.1075
12864W        W29712   1.692  10.081  14.628  0.1620 -0.1425  0.1254
12865W        W29713  11.155  10.540   3.364  0.2153 -0.1835  0.0899
12866W        W29714  15.739  15.263   1.756 -0.0201 -0.2467  0.0187
12867W        W29715   3.635   1.179  12.795  0.3835 -0.2294  0.1406
12868W        W29716   5.567   2.432  13.929 -0.0033  0.2172  0.2806
12869W        W29717  15.986   0.002  16.122 -0.1925 -0.0829  0.2113
12870W        W29718  16.824  16.573   3.999 -0.6533 -0.0453  0.1362
12871W        W29719   1.223  12.210   2.224 -0.4988  0.0178  0.0407
12872W        W29720  17.028   1.434  15.598 -0.1503 -0.1834 -0.0932
12873W        W29721   2.705  16.527  12.826 -0.1113  0.1379  0.3459
12874W        W29722  16.178   7.941  13.593  0.0801  0.1306  0.1397
12875W        W29723   1.857   8.430   5.218 -0.2848 -0.1264 -0.0763
12876W        W29724  10.588   8.042  13.632 -0.2499  0.2769 -0.1517
12877W        W29725   9.407   5.545   1.046 -0.2594 -0.0245 -0.1092
12878W        W29726   3.440   2.011  12.636 -0.4410 -0.1675  0.0912
12879W        W29727  10.162  13.933   0.408  0.0817 -0.0513 -0.1064
12880W        W29728   7.561  15.977   0.174 -0.0301 -0.3117  0.0815
12881W        W29729  11.713  12.031  14.193 -0.0170 -0.0575  0.0725
12882W        W29730  14.867   6.036   1.932  0.0352 -0.0324 -0.2263
12883W        W29731  12.732  14.826  13.257  0.1272  0.0302  0.1890
12884W        W29732  11.034  17.701   4.836  0.1277  0.1779  0.0865
12885W        W29733  12.069   5.452  10.695  0.1694  0.0289 -0.0572
12886W        W29734  11.077  11.001   0.320  0.0848  0.1900  0.2044
12887W        W29735   6.379  14.163  14.093 -0.1910  0.0353  0.2106
12888W        W29736  12.741  10.513   4.831  0.1901  0.0747 -0.3181
12889W        W29737   7.329  17.358  14.126 -0.0231 -0.0164  0.1594
12890W        W29738   8.123   4.961   6.293 -0.0087 -0.1720  0.1505
12891W        W29739   2.350  17.461   3.097 -0.2758 -0.0427  0.0496
12892W        W29740   9.748  17.105   6.623  0.2761 -0.0548  0.0962
12893W        W29741  11.794  10.922  12.778  0.1247 -0.0670 -0.1790
12894W        W29742   2.584  13.593   2.596 -0.0387  0.0292 -0.1308
12895W        W29743   7.114   3.307   0.552 -0.0377  0.1847  0.0258
12896W        W29744   5.112  15.505   0.121  0.1692  0.0357  0.0663
12897W        W29745  15.082   9.397  10.236  0.1218 -0.0207 -0.0879
12898W        W29746  15.335  17.627   1.063  0.0342  0.1282 -0.1256
12899W        W29747   1.957  17.166   3.210  0.1245 -0.1937  0.1047
12900W        W29748  12.494  14.605  14.362 -0.2228  0.0644  0.1073
12901W        W29749   3.459   3.332   3.054  0.2858 -0.0826 -0.3265
12902W        W29750   4.877  15.891  13.550  0.1907 -0.1386  0.0078
12903W        W29751   3.178  13.664  11.894  0.2048  0.0759  0.0682
12904W        W29752   6.394   2.438  13.370  0.1765 -0.0887 -0.0113
12905W        W29753   1.339  11.672   2.997 -0.1173  0.1368  0.1515
12906W        W29754   2.340   3.233  16.487  0.0009  0.2037 -0.1583
12907W        W29755   3.470   5.609  15.064 -0.4181  0.0164 -0.0374
12908W        W29756  10.927  12.326   4.482  0.1843  0.1871  0.1334
12909W        W29757   4.393   6.943   2.663  0.0816 -0.0863 -0.0563
12910W        W29758   8.885  11.909  13.564 -0.1623 -0.0587 -0.0558
12911W        W29759  16.872   1.963   1.881  0.0502 -0.0679 -0.0943
12912W        W29760   8.159  13.198  13.073 -0.1763 -0.0015 -0.0750
12913W        W29761   6.113  10.494   1.114  0.2571  0.3240  0.0267
12914W        W29762  13.029  11.809   5.153 -0.2639 -0.3884 -0.1215
12915W        W29763   9.125  17.385   3.154 -0.0611  0.2407  0.2313
12916W        W29764  15.845   2.530   2.546 -0.2110 -0.0210  0.1255
12917W        W29765  16.723  14.889   1.923  0.0205  0.0553 -0.2384
12918W        W29766  17.393  13.052  15.689  0.2614  0.0504 -0.1340
12919W        W29767  12.132   9.525  14.734  0.0205  0.0983  0.1227
12920W        W29768   3.091   3.420  12.114 -0.0377  0.0059 -0.1215
12921W        W29769  11.874   0.011   2.254  0.6124 -0.0346 -0.4648
12922W        W29770   8.961   0.604   4.001 -0.0171  0.3098  0.0765
12923W        W29771   2.808  16.387  14.169  0.2046 -0.2061  0.0283
12924W        W29772   8.369   5.639  15.408 -0.2062  0.2700  0.2717
12925W        W29773  17.319  17.012   3.201 -0.1136  0.2120 -0.3590
12926W        W29774   0.677   2.296  15.350  0.4010 -0.0212  0.2124
12927W        W29775  15.103   7.254  14.830 -0.3524 -0.1178  0.0629
12928W        W29776  13.447   6.861   3.891  0.1862 -0.2219 -0.0401
12929W        W29777   3.516  12.531   2.346 -0.1207  0.2486  0.0748
12930W        W29778   1.854   6.166  15.143  0.2737 -0.4719 -0.2291
12931W        W29779  12.449  17.434  11.748 -0.0281 -0.0994 -0.1427
12932W        W29780  17.238   5.504  13.811  0.0729 -0.0111 -0.3101
12933W        W29781   6.817  14.410  14.335  0.2329 -0.0335  0.3872
12934W        W29782   4.818   1.422   4.043 -0.2849 -0.1533 -0.2535
12935W        W29783   7.205  12.886   2.846  0.1097 -0.1436 -0.2062
12936W        W29784   7.745   2.302  12.841  0.1693 -0.3316  0.1751
12937W        W29785  17.445   9.628   1.531  0.2752 -0.1434  0.0645
12938W        W29786  10.632  15.101   0.004 -0.1280  0.2565  0.0290
12939W        W29787   5.932  13.276   1.982 -0.4063 -0.1868 -0.1111
12940W        W29788   1.881   6.653  15.038  0.0530  0.2694 -0.0693
12941W        W29789  17.141   0.954  11.670  0.0809  0.0030 -0.0245
12942W        W29790  17.583  15.587   2.270 -0.0908  0.1597 -0.0652
12943W        W29791   3.333  11.969  13.530  0.4906  0.0631 -0.1323
12944W        W29792   1.556  16.057  13.939 -0.1323  0.0310  0.3321
12945W        W29793   3.385  12.280  14.972  0.2538  0.2156 -0.1086
12946W        W29794   3.420  17.166   3.385  0.0886 -0.0163  0.0215
12947W        W29795  16.163   6.199  12.544  0.0724  0.0099  0.0183
12948W        W29796   5.301  12.002  16.073  0.0277 -0.3578  0.2174
12949W        W29797  15.494   7.980  13.946  0.1356  0.3074 -0.3570
12950W        W29798  17.112   3.589  16.408  0.2092 -0.1153  0.0824
12951W        W29799   3.524   5.706  15.589 -0.2340 -0.0557  0.0687
12952W        W29800   3.366   8.660  14.569  0.1948  0.3418 -0.2051
12953W        W29801   7.447  11.459   4.197 -0.1638  0.0933  0.1419
12954W        W29802   6.800  16.240  13.334 -0.1341  0.1202  0.0604
12955W        W29803  11.955   7.256  14.795 -0.0841 -0.1728  0.0541
12956W        W29804   4.483  10.616   2.832  0.2509 -0.1914  0.1933
12957W        W29805   5.457   1.481   1.087 -0.1938  0.0455  0.0824
12958W        W29806  13.525  10.066  14.347 -0.0703  0.0353  0.0028
12959W        W29807   9.742  13.446  16.328 -0.0533  0.2741  0.1195
12960W        W29808  11.037   5.656   0.957  0.2433 -0.1429  0.1954
12961W        W29809   2.367   6.480  15.708 -0.1488 -0.2346  0.1723
12962W        W29810   1.001   1.954  15.119  0.0108 -0.2431  0.0315
12963W        W29811  16.326  13.101   2.437 -0.1561  0.1402 -0.0378
12964W        W29812  16.092   3.231  15.701 -0.1648  0.1857 -0.1450
12965W        W29813   3.829  17.062  13.555  0.0282  0.2380 -0.1329
12966W        W29814   4.416  10.612   5.081  0.0378 -0.1676 -0.1261
12967W        W29815  16.029  15.585   2.896 -0.3669 -0.1732 -0.2093
12968W        W29816  14.899   6.042  15.075 -0.3462  0.1875  0.3890
12969W        W29817  13.616  10.745  14.984 -0.0487  0.0075 -0.1995
12970W        W29818   1.088  11.204  13.382 -0.0852  0.0224 -0.1585
12971W        W29819   6.094  17.513   4.164 -0.0309 -0.0375 -0.2827
12972W        W29820   7.378   9.672  12.891 -0.1325 -0.1506  0.0157
12973W        W29821   2.643  14.949  14.206  0.1584 -0.1616 -0.1921
12974W        W29822   4.449   5.043   4.915 -0.2512  0.0350 -0.0577
12975W        W29823   5.570   9.758  11.816  0.1267  0.0658 -0.1092
12976W        W29824   7.524  17.618   4.096 -0.1996  0.0755  0.0973
12977W        W29825   7.850   9.305  13.803  0.0169 -0.0784  0.3726
12978W        W29826  11.146  12.816   5.413  0.1405  0.3505  0.2096
12979W        W29827   8.357  11.488   1.714 -0.0475  0.1367  0.0056
12980W        W29828   6.914   8.999   4.708  0.2509 -0.0131  0.0837
12981W        W29829   1.912   4.427  15.792 -0.2852 -0.1341  0.4010
12982W        W29830   5.503  13.298   1.429 -0.1277 -0.2034  0.2691
12983W        W29831   0.347  13.755  11.346 -0.0265  0.0370  0.1649
12984W        W29832   6.333  15.053  13.978  0.0266  0.2838  0.1909
12985W        W29833   5.038   9.937  14.777 -0.6506 -0.1565  0.0883
12986W        W29834  10.737  12.585   0.178 -0.1188 -0.0550 -0.2908
12987W        W29835  13.690  13.431  13.249 -0.1904 -0.3106 -0.1012
12988W        W29836   1.634  17.154   1.023  0.0817 -0.1783  0.2082
12989W        W29837   2.920  14.570   0.978 -0.0188 -0.1021 -0.1404
12990W        W29838  10.053  15.649  12.854  0.0913 -0.0789  0.1351
12991W        W29839   2.067  14.591   1.451 -0.3604  0.1383  0.0278
12992W        W29840  12.967   7.933   1.494 -0.2587  0.1784 -0.0655
12993W        W29841   1.669   9.299  14.162  0.2369 -0.1880  0.0132
12994W        W29842  12.946  13.721  10.859 -0.0417 -0.0323 -0.0008
12995W        W29843   9.547  15.253   3.208  0.2875  0.0052  0.0084
12996W        W29844   4.496   7.110  11.889  0.0391 -0.0411  0.1097
12997W        W29845   3.466   2.793   4.592 -0.3253 -0.1352  0.0191
12998W        W29846   5.065   3.535  16.287 -0.1865 -0.2467  0.2153
12999W        W29847  16.084   7.903   1.601 -0.0570 -0.2833 -0.1759
13000W        W29848  14.775   1.937   0.577  0.0775 -0.2868 -0.1947
13001W        W29849   1.640   8.879   0.268 -0.0144  0.1526 -0.1264
13002W        W29850   3.170  14.785  15.197  0.0739 -0.1723  0.1500
13003W        W29851  11.913   1.891  15.682  0.0921  0.0742 -0.0996
13004W        W29852   8.610  14.230  10.578 -0.1307 -0.0180  0.2796
13005W        W29853   5.493   5.866   5.224  0.0775 -0.0941  0.0076
13006W        W29854   6.694   0.035  11.790  0.1994  0.6146  0.0663
13007W        W29855   0.876   8.541   4.894  0.0999  0.1286  0.0773
13008W        W29856  15.478  13.406   4.844  0.4054  0.0813 -0.2010
13009W        W29857  10.357  17.308  14.016 -0.1926 -0.0474  0.1629
13010W        W29858   6.184  13.193  11.570  0.3332  0.0559  0.0079
13011W        W29859   5.689  14.224   2.521 -0.1747 -0.0446  0.0957
13012W        W29860  15.412   1.879  16.572  0.0603  0.1496  0.0228
13013W        W29861   7.075  16.157  11.815  0.1189  0.0032  0.2977
13014W        W29862   4.069  13.717   2.630  0.0911  0.0521 -0.0960
13015W        W29863  15.360   8.262   5.634  0.0662 -0.0906 -0.0245
13016W        W29864   2.053   8.818  11.550  0.2523  0.1149  0.2947
13017W        W29865   4.347   7.582   5.111  0.2466 -0.1218  0.0564
13018W        W29866   4.586   3.558  13.785 -0.0239 -0.0414 -0.0811
13019W        W29867  13.917   6.908  13.529  0.1918  0.0040  0.1017
13020W        W29868  15.921  16.580  11.550  0.0347 -0.0058  0.0181
13021W        W29869   0.484   8.878  15.998 -0.1477 -0.4071  0.2989
13022W        W29870  12.600  12.193  12.229  0.1229 -0.2949  0.0053
13023W        W29871   2.614  16.593  15.647  0.0196 -0.0796 -0.1100
13024W        W29872   2.299  13.108  16.622  0.2800 -0.2033 -0.0482
13025W        W29873  14.213   8.256   0.282 -0.0282  0.0368 -0.0303
13026W        W29874  12.442   2.574   5.952 -0.1313  0.2398 -0.4460
13027W        W29875   2.352   3.857   3.846 -0.0096  0.0565 -0.2157
13028W        W29876   1.065   7.233  16.083 -0.0321 -0.0364  0.0351
13029W        W29877  10.159   6.616   2.393 -0.2452 -0.4024 -0.2137
13030W        W29878  10.914  14.448   1.755  0.2928  0.1674 -0.1796
13031W        W29879   4.952   2.814  15.939 -0.0792  0.2391  0.2114
13032W        W29880   1.148   5.151  16.118  0.0475 -0.1644  0.3594
13033W        W29881   0.628   0.447   0.256  0.0977 -0.2250 -0.0135
13034W        W29882   5.875  16.725  12.289  0.1453  0.3590 -0.2434
13035W        W29883  12.656  10.815   3.244  0.2919  0.0063 -0.0225
13036W        W29884   4.817   0.239  16.576  0.1630 -0.2160 -0.2061
13037W        W29885   7.374   4.915  13.447 -0.1601 -0.1801  0.3150
13038W        W29886   9.689   2.571  11.800  0.1882 -0.3783 -0.0896
13039W        W29887   5.067   0.752   3.460 -0.1359  0.2833  0.1090
13040W        W29888   7.475  12.840  13.466 -0.0406  0.0906 -0.1442
13041W        W29889  11.929  12.578  10.900  0.2110  0.1261  0.1023
13042W        W29890   4.528   5.107  12.101  0.1295  0.0792  0.0333
13043W        W29891  15.468   7.574   2.284  0.0032  0.1131 -0.1141
13044W        W29892  13.180   5.452   2.064  0.1592  0.2246 -0.0286
13045W        W29893   6.545   0.558  15.850  0.1188 -0.1037  0.0274
13046W        W29894   6.291   6.502   0.944 -0.1621  0.0691  0.2135
13047W        W29895   8.532   0.188  14.993  0.1239 -0.2661 -0.2876
13048W        W29896   0.322   0.333   1.763 -0.1168  0.0118  0.1437
13049W        W29897   9.989  13.687  11.759 -0.0004 -0.1551  0.2033
13050W        W29898   2.341  14.067   0.206  0.0076 -0.1360  0.1632
13051W        W29899   2.235  12.923  12.931 -0.2683  0.0603 -0.1173
13052W        W29900   3.175   0.549   1.469  0.1152 -0.0433  0.1054
13053W        W29901   9.306  14.001  13.374  0.0795  0.1253  0.1466
13054W        W29902  10.077   5.112   3.140  0.2924 -0.1306  0.0522
13055W        W29903   2.415   8.046  14.194  0.1851 -0.0063  0.1210
13056W        W29904   7.696   5.965  12.031  0.1302 -0.1383  0.2264
13057W        W29905  12.817  15.815   1.437  0.0969 -0.0125  0.0156
13058W        W29906   4.154   0.760   4.546 -0.3424 -0.3576  0.0884
13059W        W29907   2.410   9.845   1.778  0.2458  0.1356 -0.2007
13060W        W29908  11.895  11.141  15.476 -0.1231  0.3770  0.0350
13061W        W29909  11.976  15.733   4.536  0.1019  0.0215 -0.1955
13062W        W29910  11.414  12.300   4.257  0.1285  0.2983 -0.2705
13063W        W29911   8.500  16.276  16.076 -0.5341 -0.0818  0.1304
13064W        W29912   8.073   6.786   3.340 -0.1016 -0.1218 -0.1847
13065W        W29913   0.376   9.290   3.517  0.0614 -0.0495 -0.4051
13066W        W29914  15.318   8.156   0.777  0.1747 -0.1085 -0.0148
13067W        W29915  14.668   7.976   0.090 -0.0491  0.0848 -0.5039
13068W        W29916   4.556  13.419  14.759  0.0760 -0.1673 -0.1574
13069W        W29917  11.080   4.617  13.645 -0.1324  0.0841  0.0452
13070W        W29918   8.832  12.872   3.381  0.2481 -0.0958  0.1253
13071W        W29919  17.633   6.870  13.524 -0.1259 -0.1808 -0.0795
13072W        W29920  12.651   5.991   3.881  0.2623  0.0733 -0.3102
13073W        W29921  10.747   8.038  13.150 -0.3808 -0.2834  0.3208
13074W        W29922   3.389  12.309  13.175  0.2347  0.0539 -0.4220
13075W        W29923  16.348  12.451   4.231 -0.0992  0.3087 -0.4243
13076W        W29924  17.187  11.307  13.901  0.1000  0.1756  0.0996
13077W        W29925   1.995   0.006   5.729 -0.2019 -0.2689  0.1593
13078W        W29926  13.738   1.993   2.740 -0.0315  0.3450 -0.0803
13079W        W29927   6.827  16.626  14.048  0.0435  0.0218 -0.2705
13080W        W29928  12.698  14.282   3.648  0.2888 -0.2076 -0.0333
13081W        W29929   3.443  11.990   2.502  0.1220  0.1040 -0.1251
13082W        W29930  17.319   3.336   2.124 -0.0219  0.0175 -0.2896
13083W        W29931   1.328   1.470   1.685 -0.0484 -0.1705 -0.1843
13084W        W29932   6.441   2.202  14.239 -0.0228 -0.0848 -0.1666
13085W        W29933  10.984   0.750  12.058 -0.1166  0.0650 -0.0488
13086W        W29934  17.524   8.896  14.132 -0.4024 -0.1390  0.1920
13087W        W29935  17.016  12.390  15.385  0.1579 -0.0408 -0.3011
13088W        W29936   6.683   4.933  12.852  0.1367  0.0208  0.0278
13089W        W29937   1.884   3.080  13.903  0.2789 -0.2462 -0.1249
13090W        W29938   2.633  15.155   2.241  0.3385  0.1427  0.3852
13091W        W29939   2.043   5.025   2.867 -0.1988 -0.2358  0.0434
13092W        W29940   5.237   3.125  14.280 -0.0771 -0.1148  0.0487
13093W        W29941   5.588  10.169   1.615  0.0028 -0.3075 -0.0889
13094W        W29942  14.203  11.457   1.754  0.2031  0.0357  0.0753
13095W        W29943  17.538  14.733   4.393 -0.0138 -0.0307 -0.2605
13096W        W29944  14.307   3.997  15.406 -0.0431  0.1047  0.1465
13097W        W29945  12.030   7.211   4.579  0.2230  0.1068 -0.2017
13098W        W29946   4.395   3.474   2.697  0.1718  0.0067  0.2005
13099W        W29947   8.323   3.885  14.946  0.0785 -0.0455  0.1754
13100W        W29948  14.737   8.185  12.017  0.4961  0.3917 -0.1244
13101W        W29949  12.605  14.899   3.398  0.2042 -0.0968 -0.2447
13102W        W29950  15.745  16.201  15.354  0.0302  0.2082 -0.1957
13103W        W29951  15.185   7.552   5.196  0.2199  0.2091  0.1584
13104W        W29952  10.048   0.793  11.934 -0.2084 -0.2307  0.1560
13105W        W29953   8.114  17.476  13.347 -0.4860 -0.0951  0.0200
13106W        W29954  14.760   3.897  14.453 -0.0006  0.2704  0.1394
13107W        W29955   8.544   4.420   4.380 -0.0194 -0.1362  0.0645
13108W        W29956  10.005   1.706  13.617  0.0663  0.1874  0.0458
13109W        W29957   6.073   7.191  14.767  0.1365 -0.0482 -0.2056
13110W        W29958   4.135  14.907   0.828  0.3081  0.1989  0.0705
13111W        W29959   2.786  11.407  12.919  0.1512  0.2036  0.1170
13112W        W29960  11.233   2.954  12.366  0.1112  0.2486  0.2388
13113W        W29961   6.949   8.556   1.777 -0.1572 -0.1374  0.2540
13114W        W29962   8.774   5.404  15.005  0.1027 -0.0596  0.1120
13115W        W29963  11.438   9.190   1.551 -0.0868 -0.1249 -0.1054
13116W        W29964  16.426   3.248   0.680  0.5251  0.2369  0.0380
13117W        W29965   0.977  15.485   2.627  0.1041  0.0684  0.1737
13118W        W29966  14.221   9.309   4.583  0.3493  0.2255  0.0844
13119W        W29967  16.838   3.139   4.258 -0.0055 -0.2065 -0.1204
13120W        W29968   9.723   3.415   4.607  0.0052 -0.2703  0.2648
13121W        W29969  14.915  17.351   1.419 -0.0392 -0.0165 -0.0180
13122W        W29970   9.430  15.926  15.830 -0.0683  0.0294  0.1919
13123W        W29971   5.132  10.319   1.856  0.1445 -0.3227  0.0320
13124W        W29972  12.595  16.531  12.784  0.0203  0.1597  0.0531
13125W        W29973  14.644   6.482  12.713  0.0902  0.1199 -0.1356
13126W        W29974  11.026   1.441   0.695 -0.0412  0.0239 -0.0031
13127W        W29975  10.518  11.084   0.308  0.3785  0.1715 -0.1214
13128W        W29976   8.542   2.568  15.592 -0.1844  0.2264  0.1157
13129W        W29977  15.962   0.238  11.791  0.1847 -0.2144  0.2109
13130W        W29978   6.429  15.419  15.701 -0.1293  0.1831  0.0474
13131W        W29979   6.460   3.764   0.064  0.4296 -0.0784 -0.0204
13132W        W29980  12.740   9.105  15.144 -0.5531 -0.1971 -0.0551
13133W        W29981   4.896  11.148   4.332 -0.1754  0.0781  0.0188
13134W        W29982   5.223   9.952  16.354  0.3054 -0.1177 -0.1532
13135W        W29983   8.496   6.332  16.014  0.0082  0.0595  0.0752
13136W        W29984   4.400   8.994  11.683 -0.1843 -0.0877 -0.0501
13137W        W29985   5.514  11.717  11.839  0.1326  0.0761 -0.0839
13138W        W29986  11.768   7.423  12.183  0.4985 -0.2554  0.2250
13139W        W29987  15.641   7.344   5.408  0.0572 -0.1970  0.5176
13140W        W29988  12.189  13.218  13.695  0.2261  0.2602  0.0545
13141W        W29989  14.352   1.905  13.330  0.1262 -0.1261 -0.2599
13142W        W29990   0.720  12.417  15.950 -0.0890 -0.4300  0.2570
13143W        W29991   9.768   9.979   1.052  0.0012 -0.1298  0.0552
13144W        W29992   5.932  11.454  13.863  0.0428 -0.2203 -0.0993
13145W        W29993   4.790  12.465  14.954 -0.1384  0.0203  0.1838
13146W        W29994   0.111   5.790   0.142 -0.1377  0.0478  0.4613
13147W        W29995   1.044  17.336  13.021 -0.1291  0.0764  0.0102
13148W        W29996  14.326   1.267  13.469  0.2861 -0.1271 -0.0713
13149W        W29997   0.457   0.339  11.779  0.0691 -0.0719 -0.3207
13150W        W29998   0.884  14.798  13.818  0.2790  0.1683 -0.0179
13151W        W29999   8.305  14.568   2.124  0.4054  0.1542  0.2615
13152W        W30000  10.602  16.739   4.036 -0.0953  0.0360 -0.1702
13153W        W30001  14.004   0.833  13.521 -0.1354  0.3443 -0.0077
13154W        W30002   1.054  12.776   0.519  0.0431  0.2284 -0.5395
13155W        W30003  11.696   0.374   3.608  0.0359 -0.2206 -0.3137
13156W        W30004   8.589  15.530  14.165 -0.1925 -0.1935  0.1107
13157W        W30005   1.280   1.105  14.985 -0.4902  0.0007 -0.2635
13158W        W30006   1.664  16.296   0.421  0.1700  0.1237 -0.0909
13159W        W30007  14.062  11.475  13.884 -0.1106 -0.0772 -0.2414
13160W        W30008  14.463   3.877  12.513 -0.2784  0.2620  0.0002
13161W        W30009   1.789  10.096   5.306  0.0182  0.2097 -0.1635
13162W        W30010   7.981  13.157   1.696 -0.0937  0.0613  0.0179
13163W        W30011   3.323  14.799  13.385 -0.1548 -0.0131 -0.1328
13164W        W30012  17.642  15.174   4.546 -0.2744  0.0158 -0.2986
13165W        W30013   2.522  12.176   3.284 -0.1791  0.1713 -0.0428
13166W        W30014  17.453  16.137   2.326 -0.0056 -0.0544  0.0025
13167W        W30015  13.311  10.383  12.256 -0.2425  0.0637  0.1519
13168W        W30016  17.503  10.299  15.388 -0.1909 -0.2229 -0.1530
13169W        W30017   4.972   6.570  13.182 -0.0195  0.2132  0.0295
13170W        W30018   0.232   1.699   1.598 -0.1699  0.3322  0.1470
13171W        W30019   4.248  12.459  15.093 -0.0780 -0.1338 -0.2063
13172W        W30020   3.371  11.336   3.119 -0.2535 -0.0868 -0.2145
13173W        W30021   3.766   5.355   2.865  0.1341 -0.0180 -0.2211
13174W        W30022   5.020  10.380   2.866 -0.0885  0.0261  0.1178
13175W        W30023  15.044   5.936  14.502  0.1213  0.0808 -0.0135
13176W        W30024   5.433   2.535  12.967 -0.1295 -0.2738  0.0625
13177W        W30025   5.453   9.522   1.436  0.0344 -0.0388  0.0548
13178W        W30026  12.906   6.824  11.749  0.1933 -0.1726  0.0442
13179W        W30027  15.727   1.354   5.299 -0.1221 -0.0340  0.0175
13180W        W30028   3.432   6.436   4.237  0.2548 -0.0534 -0.2100
13181W        W30029   9.873  16.849  14.746  0.1592  0.0024 -0.1410
13182W        W30030   1.178  11.562  14.228  0.4275  0.2221  0.2687
13183W        W30031  15.527  11.631   5.796  0.3542 -0.2053 -0.2039
13184W        W30032  11.478   2.755  15.575  0.1469 -0.1665  0.1372
13185W        W30033   5.891  15.014  13.500 -0.1225  0.1460 -0.2146
13186W        W30034   2.772  15.553   3.408 -0.1943  0.1206  0.1509
13187W        W30035   1.776   7.976  12.090  0.0367 -0.1184  0.1427
13188W        W30036  16.376   2.659   0.681  0.1073  0.2424  0.1080
13189W        W30037   1.282   2.962   2.356  0.0727 -0.0608 -0.0073
13190W        W30038   9.026   2.906  12.717 -0.0350 -0.3244  0.0566
13191W        W30039  17.139   2.289  16.051  0.0310 -0.0265  0.2203
13192W        W30040   5.271  14.721  12.862 -0.1336  0.2219  0.2758
13193W        W30041  14.557   7.508   2.920 -0.0230 -0.3280 -0.1367
13194W        W30042  11.435   2.774  13.552 -0.0228  0.0067 -0.0356
13195W        W30043   7.824  16.654   2.594 -0.0231 -0.0020  0.1304
13196W        W30044  17.436  13.331  15.255  0.3487 -0.0908  0.1897
13197W        W30045   8.185  10.993  12.420 -0.2521  0.1336 -0.3251
13198W        W30046  12.285  11.196   3.265  0.2282 -0.0496 -0.1272
13199W        W30047   5.479   6.089   1.117  0.0495 -0.1964 -0.2976
13200W        W30048   4.723   2.771   1.205 -0.0495  0.1194  0.2084
13201W        W30049   0.995   3.604   2.426 -0.1310 -0.0455  0.2577
13202W        W30050   7.578  11.448  11.625 -0.1253  0.1044  0.1390
13203W        W30051   2.317   5.175  12.739 -0.1522 -0.0730 -0.0451
13204W        W30052  16.327  11.219   1.088  0.0274 -0.0254 -0.0069
13205W        W30053   9.844  15.909   1.745 -0.1315 -0.0371  0.0912
13206W        W30054  15.561  11.430  14.786 -0.1258 -0.1406  0.0652
13207W        W30055   2.826   2.015   0.081 -0.0647 -0.0426 -0.1881
13208W        W30056   0.887  11.158  14.408  0.0240 -0.1428  0.1608
13209W        W30057  15.572   6.354  14.394 -0.0148 -0.2223  0.1510
13210W        W30058   6.278  17.040   5.376 -0.1270  0.0854 -0.1298
13211W        W30059  15.321  15.319  11.775  0.1720  0.1934  0.1619
13212W        W30060   5.390   2.125   4.190 -0.0280  0.2014  0.0355
13213W        W30061   8.592   3.958   0.992 -0.1122 -0.1879  0.1496
13214W        W30062   4.328   4.861   5.393 -0.0195 -0.3226  0.0404
13215W        W30063   0.873  13.093   4.181  0.0247 -0.1890 -0.0290
13216W        W30064   1.315  17.582   3.693  0.0605 -0.0650 -0.2373
13217W        W30065  10.140   6.673   1.849  0.0233 -0.1292  0.0103
13218W        W30066   8.297  10.832  13.044  0.0911  0.1498  0.0095
13219W        W30067   4.751   9.693   2.979  0.4680  0.2442  0.3748
13220W        W30068   2.558   6.787   2.447  0.1132 -0.0068 -0.0248
13221W        W30069   4.631   7.859   2.784 -0.0433  0.1903  0.2210
13222W        W30070  13.703   6.870  16.587 -0.3373 -0.1440  0.0482
13223W        W30071   2.008  15.894   3.453 -0.0523  0.1761 -0.0144
13224W        W30072   7.824   7.436   1.609  0.0799 -0.1239  0.0839
13225W        W30073   4.148   2.408   6.590 -0.0348  0.2038  0.1608
13226W        W30074   4.656   4.970  15.441 -0.0424 -0.1822 -0.1870
13227W        W30075  10.764  14.695  15.422 -0.1117  0.2730 -0.2703
13228W        W30076   5.095   8.351  14.648 -0.2644  0.0621 -0.0186
13229W        W30077  10.292  13.737  15.505 -0.2777  0.0211  0.0055
13230W        W30078   7.185   3.935  14.182 -0.1193  0.2131  0.1160
13231W        W30079   5.615   0.385  16.140  0.0008 -0.2955 -0.3157
13232W        W30080  11.418   5.800   1.840 -0.0383 -0.0953  0.1679
13233W        W30081   3.750   7.310  12.565 -0.0128  0.1222  0.0899
13234W        W30082   6.776   4.539  15.447  0.0854 -0.1470  0.3649
13235W        W30083   7.664  10.147  13.131  0.1354 -0.1083  0.1178
13236W        W30084   6.866   9.430   2.257  0.0925 -0.2286 -0.0116
13237W        W30085  11.476   9.156  12.314 -0.4531 -0.1575  0.2896
13238W        W30086  14.853   3.094   1.183  0.0222 -0.0189 -0.0404
13239W        W30087   0.643   9.467   4.783  0.1351  0.1625 -0.2240
13240W        W30088   5.514  12.686   4.724  0.0241 -0.2090  0.3062
13241W        W30089   9.125  16.910   3.019  0.1063 -0.0463  0.1620
13242W        W30090   6.783   3.067   3.881 -0.1021 -0.1722 -0.0234
13243W        W30091   8.768  13.339  11.198 -0.2389 -0.4042  0.1932
13244W        W30092   9.720   0.238   3.743  0.0739 -0.3598 -0.2462
13245W        W30093  11.529  17.694  13.655 -0.0482  0.0339  0.2575
13246W        W30094   1.242   8.925   4.806  0.1714 -0.0471 -0.1531
13247W        W30095  11.270  13.136   1.377  0.0197  0.1333 -0.3130
13248W        W30096   5.972  16.567  14.619 -0.1620  0.0321  0.0590
13249W        W30097   7.431  16.388   0.555 -0.1467  0.2062  0.2001
13250W        W30098   5.904  11.643   2.111  0.1084 -0.0758  0.0733
13251W        W30099   1.404   9.384  15.903 -0.1117  0.1535  0.1088
13252W        W30100  16.877  12.896   4.927 -0.0544 -0.1532 -0.0974
13253W        W30101  16.196   7.804  14.492  0.0420  0.0987  0.1380
13254W        W30102  13.306   8.355   3.320 -0.1293  0.1562  0.0461
13255W        W30103  15.378   8.976  16.320  0.0338  0.5560  0.1483
13256W        W30104   0.734   7.878  12.163 -0.0689  0.0704  0.0183
13257W        W30105  10.667  10.855  11.418 -0.4537  0.1082  0.0341
13258W        W30106   8.812   9.246   0.082  0.0288  0.2449 -0.0171
13259W        W30107  12.130   2.114   4.065  0.0807 -0.1132 -0.3723
13260W        W30108  10.069   3.349  10.929  0.2535 -0.0509 -0.1295
13261W        W30109  13.359   4.698  12.253 -0.0072 -0.1107  0.2070
13262W        W30110   2.976  11.327   5.873 -0.0307 -0.0719 -0.4455
13263W        W30111   9.575   9.536  11.315  0.1340 -0.0689 -0.1340
13264W        W30112   0.497  11.626   5.145 -0.1226  0.0860  0.0460
13265W        W30113  14.376  14.931   0.152  0.1694 -0.0704  0.0310
13266W        W30114  17.110  13.441  14.904  0.0970  0.0641  0.1900
13267W        W30115  17.280   1.819   3.915 -0.1046 -0.0855 -0.1501
13268W        W30116   8.309  14.143  16.292  0.0146  0.1981  0.2696
13269W        W30117  16.276  14.880  16.222 -0.1137  0.1852 -0.0497
13270W        W30118   3.371  14.515  15.835  0.1059  0.2855  0.1057
13271W        W30119   0.919   9.358   1.213 -0.0164 -0.1474 -0.3708
13272W        W30120   5.880   0.004   0.264 -0.0399 -0.1491 -0.2892
13273W        W30121   7.814  10.787  13.184  0.2250 -0.1650 -0.0787
13274W        W30122   5.133   0.480  16.223  0.3824 -0.0292  0.0191
13275W        W30123   7.310   3.148  12.662 -0.0480 -0.1320  0.1597
13276W        W30124   7.863   0.576  12.771  0.0760 -0.0298 -0.1027
13277W        W30125   6.943  16.152   5.766 -0.0280  0.5406  0.3739
13278W        W30126  10.610  12.463   2.603 -0.0383 -0.0948  0.1943
13279W        W30127   4.229   2.236   4.248  0.2093  0.1583  0.0938
13280W        W30128  17.579  12.455  16.502  0.1373 -0.1224 -0.1913
13281W        W30129  13.020   1.059   4.295  0.0384 -0.1077  0.2198
13282W        W30130   4.862   5.456  14.788  0.0886  0.0050  0.1153
13283W        W30131  11.637   1.823  12.852  0.0689 -0.1517  0.2377
13284W        W30132  17.331   1.948  14.302  0.1543 -0.2014  0.0193
13285W        W30133  15.618  11.778   4.119  0.1603 -0.0214 -0.1529
13286W        W30134   6.069  12.526   1.422 -0.2572  0.0595  0.1669
13287W        W30135   9.633  16.146  16.667 -0.0849  0.0015  0.1011
13288W        W30136   2.794   8.912   1.264 -0.2809 -0.0768  0.4737
13289W        W30137  11.167   2.817   5.083 -0.0180  0.0439  0.3563
13290W        W30138  13.825  13.165  12.229 -0.2620  0.4214 -0.3134
13291W        W30139   3.366   1.002   1.214 -0.0061 -0.3216  0.2112
13292W        W30140   9.624   8.460  13.539 -0.3414  0.0998 -0.0406
13293W        W30141  10.721   1.841   2.995  0.0424  0.2549  0.0340
13294W        W30142   3.464   6.317  13.083  0.0826  0.0717  0.0626
13295W        W30143  10.879   5.851   4.251  0.0031 -0.2676  0.0117
13296W        W30144  12.850  10.858  15.889  0.0893 -0.1061 -0.2824
13297W        W30145  10.738  10.999  15.178 -0.0580  0.1472  0.0527
13298W        W30146  12.651   5.794  12.627  0.1569 -0.0676  0.0134
13299W        W30147  11.359  11.451   2.411  0.3582  0.0537 -0.1412
13300W        W30148  15.071  11.508  11.940 -0.1489  0.0562 -0.0372
13301W        W30149  15.833  16.498  16.072 -0.1348  0.1327 -0.0571
13302W        W30150   8.133   6.461  14.380  0.1987  0.1027 -0.2991
13303W        W30151  10.073  15.892  16.550 -0.3365 -0.5109 -0.1388
13304W        W30152   7.576   7.413  15.725  0.4066  0.0094  0.1847
13305W        W30153   0.088   5.737   3.388  0.0797  0.4090 -0.0741
13306W        W30154   0.028   6.847   1.595  0.0572 -0.3015  0.0680
13307W        W30155   7.457   2.062  15.913 -0.0830 -0.0554  0.0177
13308W        W30156  11.158  11.882   3.788  0.1473  0.0235 -0.3565
13309W        W30157   5.150  11.983  10.601  0.0529 -0.1680  0.0578
13310W        W30158   3.170  15.745  13.628  0.1044  0.0197 -0.0648
13311W        W30159  16.172  13.251  12.411  0.2194  0.2564  0.0957
13312W        W30160   4.458   4.262  13.200  0.4888 -0.0478  0.1987
13313W        W30161   8.071   9.809  15.526  0.1800  0.1753 -0.0010
13314W        W30162   6.449   9.698  11.593 -0.0559 -0.1611 -0.0636
13315W        W30163   2.297   9.964   5.410 -0.1122 -0.1772  0.0191
13316W        W30164   9.273  10.882  11.374  0.0662 -0.0999 -0.3606
13317W        W30165   9.491   6.958  14.534 -0.1976 -0.0718 -0.2760
13318W        W30166   7.034  13.253   3.600  0.0429  0.0516 -0.1757
13319W        W30167   5.804   4.266  13.768  0.0398 -0.1740 -0.0460
13320W        W30168  16.292   6.956   3.382  0.0154  0.0151 -0.0618
13321W        W30169   3.088  16.753   0.599  0.2669 -0.1592 -0.0079
13322W        W30170  10.917  16.810   4.880 -0.1001 -0.2476 -0.1616
13323W        W30171   8.811   9.033   3.428  0.0147 -0.3152 -0.0054
13324W        W30172  13.024  13.738   2.553 -0.0444  0.3319 -0.0506
13325W        W30173  16.255   1.431   3.300 -0.3227 -0.2232 -0.2040
13326W        W30174   6.722  11.237   3.065 -0.0169 -0.2136  0.1339
13327W        W30175   8.353   6.659   0.617  0.0189 -0.1112  0.1690
13328W        W30176  12.454   3.350   5.554  0.0852 -0.3349  0.1085
13329W        W30177   2.946   2.818   1.624  0.2599 -0.1369 -0.0076
13330W        W30178   2.715   3.827  15.479 -0.1907 -0.2383 -0.2567
13331W        W30179  10.175   5.684   5.172  0.3056  0.1315  0.1557
13332W        W30180   5.291  10.878  15.260 -0.0652 -0.0901 -0.0482
13333W        W30181   7.293  11.788  11.839  0.4182 -0.0452  0.1828
13334W        W30182   5.743   3.968  13.336 -0.5519 -0.1127  0.0446
13335W        W30183  14.934   7.313   4.792  0.0365 -0.0372  0.1506
13336W        W30184  16.460   3.406  11.323  0.0533  0.2630 -0.0836
13337W        W30185  13.727   7.223   2.435  0.3191  0.0871 -0.3931
13338W        W30186  12.572  16.715  13.400  0.0848 -0.0009  0.2395
13339W        W30187   0.789  11.048   1.932 -0.0432 -0.1221  0.0116
13340W        W30188   2.653  12.990  13.569 -0.2154  0.0657  0.0417
13341W        W30189   9.070   6.097  12.331  0.1641  0.2219  0.1443
13342W        W30190  15.863  12.067  15.309  0.0170 -0.0441 -0.3455
13343W        W30191  12.593  15.805  12.185 -0.1891  0.0013  0.1241
13344W        W30192   6.608  15.387  11.330  0.2385  0.0233 -0.1386
13345W        W30193   6.778  13.269   2.212  0.1721  0.1550  0.1902
13346W        W30194  12.986  15.575  12.974 -0.0506  0.3380  0.0685
13347W        W30195   2.327  10.277  10.925  0.1550  0.0133 -0.0859
13348W        W30196   5.307   8.504   4.726  0.0520  0.0298 -0.1949
13349W        W30197  10.401   5.888   3.318 -0.1950  0.0813 -0.2545
13350W        W30198   0.548   5.537   0.029 -0.0875 -0.1522 -0.1859
13351W        W30199   6.632   3.522   3.395 -0.6269 -0.0265 -0.0441
13352W        W30200   7.073   5.143  13.112  0.1171  0.2221  0.2524
13353W        W30201   8.241   3.477   0.527 -0.0487  0.1581 -0.1295
13354W        W30202   6.927   2.522   0.026 -0.0368 -0.3433 -0.3587
13355W        W30203   2.105   3.792   0.507 -0.1300 -0.1485 -0.0677
13356W        W30204  12.417  13.634  12.521 -0.0326  0.0264  0.0895
13357W        W30205   0.196   3.314   2.917  0.0632  0.0074 -0.1756
13358W        W30206   5.392  14.574  14.986  0.1192  0.0964 -0.2873
13359W        W30207  14.415   9.247  13.223  0.1841 -0.1416 -0.0033
13360W        W30208   3.775  17.581   3.597  0.1267 -0.1743 -0.1740
13361W        W30209   3.794   4.721  12.505 -0.0560 -0.1901  0.2083
13362W        W30210  10.663   0.413   0.000  0.2185  0.0147 -0.0328
13363W        W30211   3.719  11.050  15.302  0.2466 -0.3234 -0.0924
13364W        W30212  13.151   4.341   3.770 -0.0030 -0.2282 -0.0167
13365W        W30213  15.023  15.854   5.421 -0.2011  0.1258 -0.0779
13366W        W30214  13.600  17.146   2.939 -0.0506 -0.0689 -0.0190
13367W        W30215   3.856   7.783   2.518 -0.1341  0.0173 -0.2322
13368W        W30216  11.662  16.980   2.267 -0.0066  0.5299 -0.1677
13369W        W30217  16.913   6.679  12.265 -0.0063  0.1168 -0.0463
13370W        W30218   0.429  14.254  14.846 -0.2808  0.0100 -0.0219
13371W        W30219  15.559  14.966  11.986  0.2345  0.0577  0.1850
13372W        W30220   8.480  16.641  12.918  0.1000  0.0713 -0.2169
13373W        W30221   6.343  12.886   4.683 -0.0977 -0.3309 -0.2633
13374W        W30222  10.722   1.830  12.791  0.1245  0.1672 -0.0465
13375W        W30223   4.445   3.398  14.579  0.1017 -0.2434  0.1198
13376W        W30224  15.897  15.545  12.598 -0.1814 -0.1933  0.0298
13377W        W30225   1.718   1.870  14.554  0.1437  0.1458 -0.1746
13378W        W30226   9.372  17.143   0.989  0.1317 -0.0809  0.4753
13379W        W30227  17.362  16.705   2.791 -0.0587  0.0566  0.0939
13380W        W30228   4.349  16.628   5.677  0.1902 -0.0624 -0.1644
13381W        W30229   0.425   5.395   1.099 -0.0298  0.1295  0.2367
13382W        W30230  13.104   3.805   4.623 -0.2626 -0.3088  0.4453
13383W        W30231   3.645   7.395   2.186 -0.0507 -0.2345 -0.1013
13384W        W30232   8.426  12.217  14.130  0.2426  0.1722  0.1360
13385W        W30233  13.372   1.437   0.853  0.2559 -0.2382 -0.0601
13386W        W30234  15.091   9.955  14.229  0.2042  0.2113  0.2320
13387W        W30235   0.199  13.499  16.382 -0.2672  0.1009 -0.0093
13388W        W30236  12.471   1.369  15.204  0.0253  0.1676  0.1035
13389W        W30237   3.983   7.293  13.025 -0.0888  0.0352  0.0883
13390W        W30238   3.190   4.142   3.174  0.1312  0.0757  0.1329
13391W        W30239  11.643   3.571   2.653 -0.2371  0.0594 -0.0768
13392W        W30240  13.031  12.366   0.668  0.3315  0.0738  0.0772
13393W        W30241  14.462   8.245  15.850  0.0509 -0.2071 -0.3076
13394W        W30242  12.968   7.508   2.389  0.1367  0.0795 -0.0582
13395W        W30243  16.361   6.373   1.665 -0.1342 -0.1013  0.2532
13396W        W30244   5.715   8.831   0.465  0.0986 -0.0547 -0.2929
13397W        W30245   2.478  15.991   1.207 -0.1687  0.2461  0.3204
13398W        W30246   6.801   2.761  12.664  0.0461  0.1725  0.2339
13399W        W30247  15.282   4.971  14.085  0.0312  0.2269 -0.2897
13400W        W30248  12.781   9.710  14.760  0.1126  0.1355  0.0652
13401W        W30249  10.405   9.602   1.691  0.0279  0.0723  0.1257
13402W        W30250   4.362   9.860  10.580  0.0909  0.0703  0.0418
13403W        W30251   7.120   2.899  15.073  0.0680  0.0341 -0.2063
13404W        W30252   3.889   3.687   4.261  0.0565 -0.1117 -0.0003
13405W        W30253   4.581   4.875  12.573 -0.0908 -0.0521 -0.1609
13406W        W30254   4.572   0.074   2.964  0.1837  0.1262  0.1669
13407W        W30255  13.381   6.074   3.332  0.2994 -0.2374 -0.0444
13408W        W30256   7.392   4.926  12.799  0.4373 -0.0887  0.0342
13409W        W30257  17.136   6.667  14.905 -0.3355  0.0644 -0.0717
13410W        W30258   9.929   7.521   0.800 -0.0465 -0.0380  0.1650
13411W        W30259  17.338  10.739   5.331 -0.0691 -0.0596  0.1325
13412W        W30260   9.249   3.755  14.970  0.0275  0.2407  0.0792
13413W        W30261   3.701   6.417   1.957  0.1142 -0.3780  0.1797
13414W        W30262   6.644   6.552  11.869 -0.0505  0.2162 -0.0582
13415W        W30263   4.481   1.591   0.615 -0.0939  0.4160  0.0673
13416W        W30264   3.788   5.905   4.559  0.2870 -0.0081 -0.2346
13417W        W30265   0.198  17.335   2.050 -0.4041 -0.0094 -0.1778
13418W        W30266  10.511  16.626  11.511  0.4043 -0.0131 -0.0841
13419W        W30267   5.058   4.596   3.031 -0.1321 -0.0547  0.1047
13420W        W30268   7.986  14.944  10.531  0.1392 -0.3768  0.0134
13421W        W30269   4.783   6.343   2.797  0.0570  0.0014 -0.0589
13422W        W30270  17.689  12.505  13.588 -0.1610  0.2279 -0.0262
13423W        W30271  10.357  16.603  10.989  0.0461 -0.4479  0.1523
13424W        W30272   8.318  16.782  11.216 -0.2838 -0.0668 -0.0201
13425W        W30273  16.578  10.683  13.204  0.4795 -0.0559  0.1589
13426W        W30274   8.775   2.384  13.339  0.3145  0.2678 -0.1674
13427W        W30275   4.888  14.270  13.059 -0.2172 -0.0602 -0.0861
13428W        W30276  16.045   5.182  14.850 -0.1863  0.0694 -0.2427
13429W        W30277   0.786   0.105  12.072  0.0972  0.0034 -0.0294
13430W        W30278   1.109  14.759  15.514 -0.0219  0.0941 -0.0859
13431W        W30279   8.874   4.053   0.557  0.2239  0.2583 -0.2361
13432W        W30280   2.623  10.073   0.461  0.1040  0.3205 -0.0953
13433W        W30281   1.961  12.461   1.523  0.0491 -0.0280 -0.2773
13434W        W30282  14.295  14.300  12.874  0.2189  0.4261  0.0393
13435W        W30283   1.731  11.373  16.067 -0.1882  0.3328 -0.4760
13436W        W30284   5.210  10.945   3.115 -0.0444  0.0854  0.1751
13437W        W30285   6.536   7.827   4.593  0.3083 -0.2768  0.2421
13438W        W30286  10.655  10.444  11.081 -0.2334  0.1109  0.1213
13439W        W30287   4.262   1.797  12.264 -0.1824 -0.2053 -0.2674
13440W        W30288   7.975   1.145  12.173  0.0590  0.0552  0.0120
13441W        W30289   2.434   0.095   3.642 -0.0239  0.1705  0.0101
13442W        W30290  13.421   6.009  16.078  0.0003 -0.1562  0.2011
13443W        W30291   1.500   1.945  14.098 -0.2549  0.0515  0.1407
13444W        W30292  17.168   4.579  16.496 -0.2159  0.0282  0.2350
13445W        W30293  13.511   6.827  13.892  0.1126 -0.1165  0.0777
13446W        W30294  14.116  15.783  13.896 -0.0941  0.0124 -0.3344
13447W        W30295   6.281  11.881   5.315 -0.0434 -0.1682 -0.0500
13448W        W30296  10.793  13.051   4.701 -0.4311  0.0222 -0.4044
13449W        W30297   3.259  16.786   3.015  0.0892  0.2077 -0.2066
13450W        W30298  12.036  17.591   0.376  0.2915  0.1297  0.0320
13451W        W30299   4.493  15.305  16.132  0.1153 -0.3331 -0.2871
13452W        W30300  16.848   5.560  13.103  0.2715  0.1762 -0.2706
13453W        W30301   7.131   5.295   2.898 -0.1139 -0.2966  0.2888
13454W        W30302   0.672   0.614  12.204 -0.4295  0.1110 -0.0286
13455W        W30303  13.442  14.946   4.785 -0.2947 -0.1069  0.0154
13456W        W30304  14.000   7.277  12.144  0.1256 -0.0651 -0.0652
13457W        W30305   1.821   9.850  13.224 -0.1403 -0.0561 -0.1205
13458W        W30306   4.335  11.047   2.393 -0.1952  0.2227 -0.0027
13459W        W30307  14.870   5.549  14.856 -0.2706  0.1905  0.3040
13460W        W30308  16.642   2.306  14.192  0.3461 -0.1018 -0.0858
13461W        W30309   3.169   8.322  13.761 -0.3491  0.1565  0.0474
13462W        W30310  15.388  11.866  15.298  0.0855 -0.2645  0.0742
13463W        W30311   8.150  15.900  16.127 -0.0273 -0.1486  0.1011
13464W        W30312   4.074   6.227  15.414  0.1072  0.2862 -0.6180
13465W        W30313  16.400  15.691  12.396  0.2191  0.0708 -0.0055
13466W        W30314   6.733  15.267  11.802 -0.0764  0.0113 -0.4343
13467W        W30315  12.881  15.859  14.158 -0.0365  0.0020 -0.1678
13468W        W30316  11.130  13.837   5.284  0.2211  0.2802 -0.0007
13469W        W30317   7.871   0.000   0.986  0.0985 -0.2418 -0.1075
13470W        W30318   5.254   0.259  15.809  0.0425  0.3794 -0.0618
13471W        W30319   7.612   7.170  13.747  0.3152 -0.2119 -0.0497
13472W        W30320  11.398  15.074   2.939 -0.5222 -0.1216 -0.1964
13473W        W30321   2.983   8.843   5.325  0.1201 -0.1195 -0.0597
13474W        W30322   6.201   2.294  15.272  0.1523 -0.2170 -0.4304
13475W        W30323  14.559  16.089  15.576 -0.1738  0.1645 -0.0543
13476W        W30324   4.498  15.242   0.499 -0.1338  0.2287  0.0571
13477W        W30325   1.418  11.326   0.629  0.1149 -0.1856 -0.2050
13478W        W30326  13.327  11.848  15.935  0.2367  0.2231  0.0330
13479W        W30327   5.720   4.968   4.244  0.0881 -0.0585 -0.1890
13480W        W30328   5.774  12.843   5.443 -0.1226  0.1661  0.0309
13481W        W30329   4.454   0.127  12.233  0.1640  0.1225 -0.1137
13482W        W30330  15.967  11.478   4.071  0.1020  0.2354  0.1373
13483W        W30331  12.754   0.994  14.980 -0.0741 -0.1931 -0.0273
13484W        W30332   8.085  15.073  14.061  0.0924 -0.0116  0.0277
13485W        W30333   7.196  12.016  10.659  0.0944  0.0245  0.1197
13486W        W30334  11.795   9.879  13.652  0.3300  0.2789 -0.0415
13487W        W30335  17.277  16.890  14.599 -0.1756  0.0097 -0.2976
13488W        W30336   4.994  15.907  14.374 -0.0117 -0.0630 -0.4898
13489W        W30337   5.976   3.725  13.849 -0.3347  0.1456  0.3750
13490W        W30338   2.365  14.867   3.229  0.1397 -0.0471  0.1519
13491W        W30339   9.543  11.317   2.124 -0.0872 -0.0572  0.0553
13492W        W30340  15.615   9.855  14.144 -0.2480 -0.0186  0.1760
13493W        W30341   4.818   9.703   0.045 -0.0920  0.1861  0.0867
13494W        W30342   5.161   5.710   1.347  0.0799 -0.0744 -0.1205
13495W        W30343  15.191   2.529   4.000 -0.1045 -0.1824 -0.1223
13496W        W30344   2.007   4.538   3.249  0.0968  0.1196  0.1422
13497W        W30345   3.085  10.765  12.119 -0.0588 -0.1690  0.0361
13498W        W30346  14.731   1.425   0.505  0.1219  0.0924 -0.0245
13499W        W30347  17.455  17.612  12.852  0.0108 -0.0274 -0.0701
13500W        W30348   4.748   9.049   1.487 -0.0285  0.6309 -0.3300
13501W        W30349   5.160  14.608  16.528 -0.0219 -0.1605 -0.0018
13502W        W30350  15.573   6.194   3.543 -0.2323  0.2120 -0.2292
13503W        W30351  12.226  15.895   3.225 -0.0947  0.2317  0.1407
13504W        W30352   3.938  14.655  15.214 -0.1842 -0.0029 -0.0092
13505W        W30353   0.221  15.438   4.910  0.1284 -0.0105 -0.3572
13506W        W30354  15.447   8.966   0.535 -0.0916  0.1282 -0.0291
13507W        W30355   3.890  12.386   4.037  0.0557 -0.0210  0.0418
13508W        W30356  16.027   3.425   4.171  0.1990 -0.0979 -0.0865
13509W        W30357  17.476  12.511  15.510 -0.0630  0.0286  0.1703
13510W        W30358  17.650  16.688  13.801  0.0625  0.2339  0.1053
13511W        W30359   8.695   3.124   3.096  0.0973 -0.1934  0.1657
13512W        W30360  17.045  17.250   4.846  0.2521  0.2498 -0.1255
13513W        W30361   3.220  13.097   4.950 -0.0053  0.1234  0.0469
13514W        W30362   8.861  13.188   3.770 -0.1742  0.1348  0.2592
13515W        W30363  11.235  11.991  14.105  0.0789  0.0284  0.4571
13516W        W30364   9.162   2.546  11.803 -0.1659  0.1642 -0.1041
13517W        W30365   9.886  13.290   1.496  0.1271  0.1717 -0.0516
13518W        W30366   9.394   4.171   3.961 -0.2301 -0.1071  0.0469
13519W        W30367   7.905  10.973  15.818  0.0874  0.1051 -0.1284
13520W        W30368   9.565  15.887  13.231 -0.0206  0.0201  0.1106
13521W        W30369  14.293  15.320   3.509 -0.3425 -0.1137  0.0611
13522W        W30370  13.931   4.149   6.281  0.3240 -0.1067 -0.0838
13523W        W30371  15.163  15.701   1.674 -0.2180  0.2584 -0.0113
13524W        W30372   8.436   9.626   0.833  0.2012 -0.1855  0.0964
13525W        W30373  13.504   7.740   1.697 -0.0431 -0.4699 -0.4612
13526W        W30374  10.076  16.390  11.403  0.0243  0.1550  0.0866
13527W        W30375   6.132  12.748   1.869 -0.0712 -0.1541 -0.0899
13528W        W30376   1.383  12.088  11.537  0.1250 -0.0669  0.0247
13529W        W30377   9.086   1.205  11.959  0.2128 -0.0564 -0.3482
13530W        W30378   9.227   6.174  14.076  0.2195  0.0927  0.0569
13531W        W30379  12.229   5.602  13.675  0.1224  0.1848 -0.0103
13532W        W30380   0.202  11.653  11.452 -0.0980 -0.5000  0.1098
13533W        W30381  14.761   1.850   6.219  0.1750 -0.0373  0.2156
13534W        W30382   0.133  17.315   3.851  0.1782  0.0103 -0.3346
13535W        W30383   5.744  10.451  13.782  0.2154  0.0021 -0.3194
13536W        W30384  17.194   0.850   3.227 -0.2118  0.0038  0.1636
13537W        W30385   4.807  12.835   1.780  0.1345 -0.0262  0.1057
13538W        W30386   9.396  12.271   2.827  0.1721 -0.0061 -0.2422
13539W        W30387   7.385   5.957  12.751  0.4077  0.3822  0.0080
13540W        W30388  15.390   6.042   3.989 -0.1656  0.4262  0.1331
13541W        W30389  14.407   6.136  16.441  0.0294  0.0414 -0.0391
13542W        W30390  11.756  14.701   3.779  0.0661  0.2133 -0.1767
13543W        W30391   5.200  13.999   2.039 -0.0606  0.0345  0.1639
13544W        W30392  11.225   5.986  14.261  0.2646  0.4404 -0.0800
13545W        W30393   1.170  17.045   3.010 -0.0465  0.0719 -0.1174
13546W        W30394   9.174   8.117  13.099 -0.1878  0.2065 -0.0792
13547W        W30395  15.862   5.788  16.468  0.2534  0.1157 -0.3118
13548W        W30396  16.068  11.910   0.695 -0.2373 -0.1801 -0.0930
13549W        W30397  16.905  16.378  11.813  0.0889  0.0814  0.3309
13550W        W30398   8.026  14.643   4.265 -0.0448 -0.0214 -0.3502
13551W        W30399  16.144   6.968  12.796  0.2611  0.1889 -0.0566
13552W        W30400   3.773   9.544  13.238  0.1386  0.2009  0.1414
13553W        W30401   4.298   6.415   4.284  0.0819  0.1396 -0.0294
13554W        W30402  11.295  15.609   2.747 -0.1385 -0.0403 -0.0678
13555W        W30403   1.813   9.988   3.439 -0.1544 -0.0456 -0.2707
13556W        W30404  16.552  10.396   3.110 -0.3472  0.1094  0.1631
13557W        W30405   2.914   9.406   5.211 -0.1165  0.0843  0.0425
13558W        W30406  12.879   6.067   5.050  0.0862  0.1017  0.2331
13559W        W30407   0.304   4.063  14.330 -0.0013  0.3366  0.0522
13560W        W30408  14.261   8.127   3.667 -0.4096  0.2265 -0.2731
13561W        W30409   1.417   3.675   4.164 -0.2177 -0.0756 -0.0848
13562W        W30410   7.115   1.722   4.130  0.3150  0.2186 -0.1322
13563W        W30411  17.647  15.827   1.395 -0.1403  0.1013  0.0746
13564W        W30412   5.930   1.771   0.631  0.1980  0.2121  0.3102
13565W        W30413  12.582   2.089  14.518  0.5966 -0.1981 -0.2001
13566W        W30414   0.823  14.508   4.134  0.1739  0.1168  0.0692
13567W        W30415   6.095  13.722  14.857  0.1324 -0.0399 -0.1557
13568W        W30416  15.516   5.773   0.220 -0.2475 -0.0029 -0.1918
13569W        W30417  15.885  10.093  10.813  0.0476 -0.0534  0.0608
13570W        W30418  13.707   5.726   4.666 -0.4117  0.1140 -0.2920
13571W        W30419   4.201   9.699   2.827 -0.0014 -0.0634 -0.0297
13572W        W30420   3.739   5.870  12.927 -0.0711  0.1459  0.0539
13573W        W30421   9.273   8.457   4.982  0.0680 -0.1011  0.3083
13574W        W30422  12.579   2.858   5.095  0.1887 -0.0016  0.2651
13575W        W30423  14.724   6.666   0.795  0.0018 -0.0578  0.1566
13576W        W30424  12.264   5.942   0.274 -0.1125 -0.0941  0.2597
13577W        W30425   1.221   8.894  15.317 -0.1850 -0.1397  0.0995
13578W        W30426   1.887  13.305   1.473 -0.2785 -0.1268 -0.1991
13579W        W30427  15.711  10.921   1.661 -0.0486 -0.1178 -0.1781
13580W        W30428   9.908   4.197  16.205  0.1719 -0.0613 -0.1424
13581W        W30429  15.899   9.935   0.614  0.0689  0.2514  0.0435
13582W        W30430   6.097  13.810  14.334 -0.0936  0.1263 -0.2968
13583W        W30431   9.692  11.163  14.606 -0.0231 -0.3165 -0.0505
13584W        W30432   9.729   5.879   4.518  0.0097 -0.0110  0.0886
13585W        W30433  13.228   1.156   1.418 -0.0456  0.0511  0.2029
13586W        W30434   2.204   9.568  13.446  0.0033  0.0059 -0.1942
13587W        W30435  11.823  16.483   2.490  0.3394  0.0084 -0.0121
13588W        W30436   3.469   7.328  13.078  0.2079 -0.3821 -0.1188
13589W        W30437  16.152   6.562   0.762  0.2738  0.2445 -0.0561
13590W        W30438   6.586   8.239  14.251 -0.1276  0.0080 -0.0946
13591W        W30439   1.390   8.514  16.622 -0.0047 -0.1225 -0.3974
13592W        W30440   0.769   6.586   4.169 -0.0660  0.1586  0.4088
13593W        W30441  12.210   7.833  15.565 -0.0602  0.0927  0.0168
13594W        W30442  12.321   0.023   0.843  0.0697 -0.0093 -0.0464
13595W        W30443  14.791   7.205  11.629  0.0297 -0.0210  0.3478
13596W        W30444  15.928  14.445   0.131  0.1614  0.1578  0.1350
13597W        W30445   9.199   6.644   4.561  0.2723  0.1359  0.1536
13598W        W30446  15.199   1.757  12.732 -0.0202  0.1805  0.1989
13599W        W30447   5.585  10.310   0.437 -0.2739 -0.0626 -0.1411
13600W        W30448   0.282   3.777   5.127  0.2174  0.0539 -0.0975
13601W        W30449   4.568   2.434  15.713 -0.4276  0.2241 -0.1759
13602W        W30450   0.699  12.857  15.561  0.3329  0.1810  0.0089
13603W        W30451   2.237   6.995  13.274  0.1288  0.1541 -0.0559
13604W        W30452   0.893   1.839   5.008 -0.3731 -0.0686  0.2838
13605W        W30453   7.138  10.400  15.630  0.2438  0.0194 -0.0095
13606W        W30454  13.346  11.593  13.798  0.1720  0.0597  0.2941
13607W        W30455   8.593   2.528   4.888 -0.0306  0.1337  0.2097
13608W        W30456   6.014   0.772   5.687  0.1124 -0.0828  0.1247
13609W        W30457  10.907  16.775   0.387  0.3056  0.2249 -0.2110
13610W        W30458   0.402  15.703   3.450 -0.0203 -0.0160  0.1000
13611W        W30459   7.001  10.558   0.051 -0.0815  0.0278  0.0925
13612W        W30460   8.314  10.659   2.454 -0.1083  0.0643  0.1049
13613W        W30461  14.195   8.355   2.809 -0.2836 -0.2564 -0.2216
13614W        W30462  12.429  15.241  10.976 -0.2780 -0.0435  0.1424
13615W        W30463   3.113  16.370  14.880  0.2497  0.1610  0.1046
13616W        W30464   2.628  10.464  13.156  0.0199 -0.0736  0.0066
13617W        W30465   9.720   2.117  15.230 -0.0283  0.0080 -0.2308
13618W        W30466   8.767   6.791   2.570  0.0978  0.0059  0.0517
13619W        W30467  10.610  14.791   2.038 -0.0335 -0.0147 -0.1905
13620W        W30468  15.720   6.615   3.938  0.2406  0.1400  0.2204
13621W        W30469  13.559  12.129  12.189  0.0740  0.1181  0.0324
13622W        W30470   8.579   7.976   3.706 -0.0266  0.0202 -0.3726
13623W        W30471   6.408  10.489   3.274  0.0858 -0.1007  0.1707
13624W        W30472   8.556   4.943  11.867 -0.0525 -0.1355 -0.0791
13625W        W30473   3.050   9.416   1.346  0.1207  0.3760  0.0301
13626W        W30474   2.301   0.925  14.666  0.2743 -0.1213 -0.1868
13627W        W30475   7.415  15.023  13.374 -0.0650  0.0076  0.0697
13628W        W30476   1.886  15.908  11.684 -0.2942  0.0590 -0.1618
13629W        W30477  15.307  10.956   3.054 -0.3600  0.1186 -0.0672
13630W        W30478  10.012   8.613  12.418  0.0663 -0.1118 -0.0104
13631W        W30479   7.296   4.275   0.058  0.1856 -0.0739 -0.4242
13632W        W30480   8.075   2.948   4.197  0.0715  0.1763 -0.0508
13633W        W30481  15.587   8.573   0.929 -0.0898 -0.1982  0.1195
13634W        W30482   9.428  11.631   4.704  0.0949  0.0755 -0.1149
13635W        W30483  12.543  15.063   1.756 -0.1400  0.1550  0.1522
13636W        W30484   4.790   0.771  14.304 -0.0117 -0.1291 -0.1554
13637W        W30485   3.891  12.628  14.355 -0.0754 -0.0257 -0.3142
13638W        W30486  15.071   7.003   1.639  0.1058  0.2758  0.0544
13639W        W30487   9.843  14.797   3.452 -0.3071 -0.0779 -0.0876
13640W        W30488   1.625   6.816   2.463  0.0482  0.1024  0.2072
13641W        W30489   4.003  14.347  12.895 -0.0947 -0.0461  0.0199
13642W        W30490   8.878   8.180  14.505 -0.0646 -0.2414 -0.0538
13643W        W30491  16.829  10.316   0.274  0.3613  0.0998 -0.0852
13644W        W30492   7.310   9.314   3.504 -0.2715  0.1076  0.1296
13645W        W30493  13.600   1.084   1.839  0.1269  0.0687 -0.0686
13646W        W30494  14.165  15.563  16.263 -0.4102 -0.4425  0.0839
13647W        W30495  15.978   7.009   0.512  0.2343  0.1803 -0.0099
13648W        W30496   3.036   1.606   3.043 -0.1534 -0.0089  0.0793
13649W        W30497  13.090   8.296  13.057  0.1091 -0.0996 -0.3351
13650W        W30498   4.093   3.818  12.559  0.0278  0.2002  0.0300
13651W        W30499   7.835   8.477  13.698 -0.0403 -0.1736 -0.3106
13652W        W30500   0.165  11.396   4.766 -0.1644  0.0724  0.0987
13653W        W30501   4.941   8.165  15.952  0.0560 -0.1252  0.0586
13654W        W30502  12.839   4.874  10.800  0.0338 -0.3754  0.0291
13655W        W30503   0.350   4.479  11.837  0.1704 -0.0014  0.2176
13656W        W30504  13.757  11.433  13.470  0.0139 -0.3686  0.1053
13657W        W30505   7.684  11.867  12.572  0.0488 -0.0292 -0.0805
13658W        W30506  13.625  16.705   1.057  0.2121  0.2063 -0.1007
13659W        W30507   9.001  13.146   1.746  0.0778 -0.2930  0.1330
13660W        W30508   2.981  12.455   0.222  0.1326  0.1151 -0.0751
13661W        W30509   7.313   8.175   3.973 -0.5722 -0.2050  0.2650
13662W        W30510   3.562  14.279  16.349  0.1538  0.2577 -0.1309
13663W        W30511   0.431  13.910   4.610 -0.1959  0.1451  0.0284
13664W        W30512   2.111   4.040   1.368  0.1608 -0.5018 -0.0988
13665W        W30513   8.343   6.920  11.794  0.1536  0.0340 -0.0049
13666W        W30514   5.406  16.782   1.514 -0.0548 -0.0421 -0.0308
13667W        W30515  14.070   6.660   1.922 -0.3119  0.1246 -0.0043
13668W        W30516  12.119   3.288  15.045  0.3871 -0.1634  0.0323
13669W        W30517  11.070   0.493  12.905 -0.1773  0.0560  0.0752
13670W        W30518   3.960   7.582   0.572 -0.2763  0.3343  0.0223
13671W        W30519   9.659   9.970   0.323 -0.1921  0.0378 -0.0433
13672W        W30520   8.367  17.468   2.490  0.3617  0.3071 -0.0394
13673W        W30521   9.235  15.780  12.866 -0.0417 -0.1072  0.0023
13674W        W30522  16.754   4.843   4.135 -0.0277 -0.1050  0.0737
13675W        W30523  15.329  13.937  14.513 -0.0439 -0.1554 -0.1255
13676W        W30524   8.774  14.520  12.605  0.0735 -0.0326  0.0994
13677W        W30525   0.495   7.184  15.108  0.4250  0.0165  0.1859
13678W        W30526   6.741   0.241  14.357  0.1526 -0.2235 -0.3728
13679W        W30527   4.159  11.953   4.929  0.0329  0.1093  0.2197
13680W        W30528   1.629   9.079  11.823 -0.0514 -0.0175 -0.1790
13681W        W30529   8.830   4.061   4.646 -0.1478  0.0629 -0.2220
13682W        W30530   0.310  12.441  12.719  0.0890 -0.1892 -0.2427
13683W        W30531  13.477   2.742  13.061 -0.2993 -0.1406  0.1310
13684W        W30532   1.590  10.142   0.351  0.0493  0.1083 -0.0888
13685W        W30533   6.609  12.295   0.577  0.3485  0.1158 -0.0078
13686W        W30534  17.314  10.320  15.881  0.0770  0.1608 -0.2036
13687W        W30535  10.264   0.435  15.465  0.0626 -0.1745 -0.0692
13688W        W30536   0.693   9.254   5.490 -0.3915 -0.0188  0.1861
13689W        W30537   0.849  15.876   1.461 -0.1704  0.0344  0.0424
13690W        W30538  13.538  16.047   3.279  0.1540  0.3633 -0.2402
13691W        W30539   2.405  14.179  11.925  0.1378 -0.2436 -0.0914
13692W        W30540   2.529   4.159  11.880 -0.0899  0.1121  0.2032
13693W        W30541   5.231   8.571  14.178 -0.3243  0.2200  0.4397
13694W        W30542  10.455   4.158   0.772 -0.0337  0.1970  0.3502
13695W        W30543   8.862   6.254   4.497  0.0041 -0.0698 -0.0570
13696W        W30544   1.749  16.329   3.914  0.0312  0.0471  0.1582
13697W        W30545   1.692   8.222  16.339  0.3680 -0.1437  0.0899
13698W        W30546   8.191   6.160   0.544  0.0424  0.0348 -0.0752
13699W        W30547  14.662  13.996   4.046  0.0642 -0.0317 -0.0333
13700W        W30548   3.513  11.573   4.338  0.2320 -0.0231  0.4241
13701W        W30549  12.083   7.368  13.136  0.1503 -0.0384  0.0870
13702W        W30550  16.778  17.438  13.271  0.0207 -0.0419  0.0233
13703W        W30551  16.390  11.486   2.517  0.0972 -0.0483  0.0097
13704W        W30552   0.827  13.423  11.470  0.0446  0.3943  0.1156
13705W        W30553   1.378   0.917   3.933 -0.1287 -0.3683  0.0110
13706W        W30554  15.207  15.651  12.094 -0.1578 -0.1940 -0.1258
13707W        W30555   4.006   4.732  14.807 -0.2298  0.2406 -0.0756
13708W        W30556   1.671  17.122   0.026 -0.0461  0.0218  0.0641
13709W        W30557   5.553  12.478  13.076 -0.1280 -0.0687 -0.1247
13710W        W30558   5.049   1.752  11.736 -0.0335 -0.2564  0.0227
13711W        W30559  11.590   4.333   2.163 -0.1713 -0.0512  0.2680
13712W        W30560   0.575   5.813   3.569 -0.1365  0.0032  0.5395
13713W        W30561   7.514   7.966  11.934  0.5059  0.1124 -0.0591
13714W        W30562   3.207   9.839   3.197  0.1176 -0.1262  0.3424
13715W        W30563   9.816  11.492   0.777  0.2074 -0.1176  0.2410
13716W        W30564  13.670   0.482  11.782 -0.0757  0.2117 -0.1115
13717W        W30565  12.161  10.942  10.463  0.1249 -0.1036  0.1304
13718W        W30566   0.866  10.332  12.197  0.0176  0.2687 -0.0165
13719W        W30567   5.429   1.561   3.657 -0.0294 -0.0981  0.2842
13720W        W30568   8.356  11.424   4.688 -0.0927  0.2618 -0.1133
13721W        W30569   2.498   1.391   2.975 -0.1260 -0.1053 -0.0382
13722W        W30570   3.858   1.186  14.271 -0.0565  0.1350 -0.0173
13723W        W30571   1.825  16.368   3.421  0.0538 -0.0925 -0.2310
13724W        W30572  16.195   5.486  16.247  0.0777 -0.1661 -0.3751
13725W        W30573   9.477  15.533   5.340  0.0170 -0.0264 -0.3079
13726W        W30574   3.425   1.263  13.912  0.0441 -0.1988 -0.2419
13727W        W30575   9.235   7.163   4.442 -0.2816 -0.1834  0.0019
13728W        W30576   7.653   7.176   1.228  0.1072 -0.1253 -0.3068
13729W        W30577  15.197   2.606  12.241  0.0084 -0.1046 -0.2800
13730W        W30578  10.403   4.828   5.821  0.0948  0.2006 -0.2207
13731W        W30579   4.372   5.682   5.845 -0.1614  0.0411 -0.0511
13732W        W30580   5.542   1.185  15.550 -0.2121  0.1571  0.1863
13733W        W30581   4.948  16.179  15.254  0.1895  0.2149  0.0276
13734W        W30582  12.925  12.369   3.201  0.0228  0.3236 -0.0705
13735W        W30583   0.941   8.096  13.065  0.3155  0.2928 -0.1648
13736W        W30584  11.455  10.974  16.627  0.0144  0.2724  0.0143
13737W        W30585  17.090  13.844   2.983  0.0125 -0.0043  0.0108
13738W        W30586   8.258  14.629   4.828 -0.2370 -0.0755  0.1326
13739W        W30587   8.242   7.654  12.508 -0.1034  0.0458  0.0760
13740W        W30588  12.458   8.613  11.388 -0.1483 -0.1013  0.3113
13741W        W30589   4.367  14.589   1.919 -0.5347 -0.3275 -0.2109
13742W        W30590  10.015   9.126   2.113  0.1095  0.1504  0.0548
13743W        W30591   3.679  10.846  12.544  0.1842  0.0571 -0.1487
13744W        W30592   7.285   7.032   3.959  0.0504 -0.0994  0.1168
13745W        W30593   6.940   3.997   5.113  0.1504 -0.1929 -0.2425
13746W        W30594   6.357  15.898   4.529  0.0419  0.1243 -0.0248
13747W        W30595  13.242   9.443  16.420  0.1264  0.1655  0.0955
13748W        W30596   6.130  14.233  15.126 -0.0011  0.1966  0.1320
13749W        W30597   1.656   6.553  12.810  0.2096 -0.2143 -0.0783
13750W        W30598  17.108  17.462  12.486 -0.2239  0.0300  0.1814
13751W        W30599  10.787   0.461   1.427  0.1203 -0.2897  0.0589
13752W        W30600   4.973   7.277   1.428 -0.1211 -0.0358  0.3694
13753W        W30601  14.418   2.174  12.424  0.0352 -0.2082  0.0449
13754W        W30602   0.624  11.689   1.092  0.1582 -0.0543 -0.2262
13755W        W30603  14.183  15.493   1.687 -0.0331 -0.3678  0.2485
13756W        W30604   4.481   6.362   3.258  0.3052 -0.1126  0.0880
13757W        W30605   4.415  13.879  16.594 -0.0998 -0.1348 -0.0916
13758W        W30606   9.076   6.628  16.048 -0.0279  0.0918 -0.1143
13759W        W30607  10.746   3.913  16.067 -0.2541 -0.1135 -0.1170
13760W        W30608   0.275   1.903  11.493 -0.0454 -0.0505 -0.1963
13761W        W30609   0.883   0.266   5.722 -0.2109  0.3676  0.0788
13762W        W30610   9.085  10.395   0.609 -0.0907  0.0510 -0.1572
13763W        W30611   6.393   4.808  15.173 -0.1910  0.1238 -0.1400
13764W        W30612   1.760  14.976   3.980  0.2147  0.1495  0.1405
13765W        W30613   6.652   2.333   2.479  0.1953  0.1615  0.2824
13766W        W30614   5.919   4.554   2.778 -0.0597 -0.3838 -0.0034
13767W        W30615   0.307   3.218   1.247 -0.4541  0.1616 -0.1335
13768W        W30616  14.040   5.091  15.308  0.1393 -0.0156  0.0084
13769W        W30617   7.955   4.939   3.823 -0.0103  0.4376  0.1786
13770W        W30618   9.447   8.036   0.174  0.1000 -0.1408  0.1749
13771W        W30619   7.573   5.044  11.621 -0.2003 -0.2992  0.1935
13772W        W30620   5.182  15.901   0.518 -0.0241 -0.0078 -0.1637
13773W        W30621   8.077   8.799   3.852  0.2122  0.2898  0.2319
13774W        W30622   2.931   4.446  12.802  0.1988  0.2001  0.3923
13775W        W30623  13.994  13.421  13.911  0.4469  0.1484  0.2503
13776W        W30624  14.588   2.712  13.056  0.2430 -0.3413 -0.0519
13777W        W30625  12.869  16.819   3.283  0.1750  0.0506 -0.0043
13778W        W30626   6.983  10.997   1.726  0.3072  0.3130 -0.2647
13779W        W30627   3.521   6.262   3.769  0.0980  0.0775 -0.0496
13780W        W30628   2.875  13.875   0.210 -0.1086  0.1422  0.0074
13781W        W30629   5.886   8.763  13.490 -0.3121 -0.3873  0.0649
13782W        W30630  12.356  10.512  14.955 -0.2722  0.1910  0.3786
13783W        W30631  13.957   6.051  12.632  0.2038  0.1205 -0.1440
13784W        W30632   3.193   6.025  12.771 -0.1044 -0.0583  0.0925
13785W        W30633  11.214   6.021   1.303 -0.1300  0.1167 -0.2292
13786W        W30634   1.860  15.443  14.575  0.0079 -0.2731 -0.1621
13787W        W30635   6.465   0.662   4.799  0.1357 -0.1363 -0.0083
13788W        W30636  16.462  13.717  12.817 -0.0778 -0.1655  0.1407
13789W        W30637   3.293  15.794   0.522 -0.0274 -0.3252 -0.2229
13790W        W30638   7.905   4.949   3.341  0.3038  0.2511  0.1511
13791W        W30639  10.738   1.417   1.759 -0.4401  0.0734  0.0977
13792W        W30640   8.765  15.530  14.784 -0.2189 -0.0536 -0.0346
13793W        W30641   6.524  10.210   2.658 -0.1644  0.0692 -0.1258
13794W        W30642   0.656   5.773  15.992 -0.1691 -0.1809  0.0683
13795W        W30643   7.500   7.106  13.242 -0.2186  0.2340  0.0520
13796W        W30644  15.742   2.187  11.256  0.1234 -0.1930  0.1017
13797W        W30645   7.613   3.859   1.866 -0.0318 -0.2244  0.1350
13798W        W30646   2.804  11.817  11.694 -0.1366 -0.0490  0.1268
13799W        W30647   5.586  14.189   1.858  0.1094  0.1250  0.0445
13800W        W30648   4.870   9.780  10.578 -0.1285 -0.1418  0.1429
13801W        W30649   3.943   8.450   4.196 -0.4326 -0.0161 -0.1964
13802W        W30650   4.637  11.604  11.995  0.0002  0.0651 -0.0232
13803W        W30651  17.236  12.769   4.507  0.1689  0.0144  0.0992
13804W        W30652  13.202  13.011  13.339  0.1648 -0.0171 -0.0282
13805W        W30653  11.992  12.810   3.835  0.0251  0.0225 -0.3466
13806W        W30654   1.215   8.996   2.601 -0.2987  0.4284 -0.0591
13807W        W30655   2.803   8.616   1.722  0.0191 -0.0956 -0.3940
13808W        W30656  14.360  13.577  14.585  0.2444 -0.2580 -0.0543
13809W        W30657   8.140  11.830  14.262  0.1170 -0.2476 -0.1325
13810W        W30658  10.027   3.475   2.510 -0.1773  0.2461  0.2195
13811W        W30659   5.574   2.648   1.592  0.0592 -0.0095 -0.2403
13812W        W30660  14.336   6.766  14.427 -0.0651 -0.0483  0.0545
13813W        W30661  14.377  16.652   0.999  0.1043  0.0410 -0.1029
13814W        W30662   2.134   3.157   6.158 -0.0067  0.1512  0.1325
13815W        W30663   9.108   8.957   0.759 -0.0255 -0.0490 -0.3059
13816W        W30664  12.722   1.847   1.897  0.3379  0.0292 -0.1418
13817W        W30665  13.435   3.517  15.153  0.0914  0.2076 -0.0160
13818W        W30666   4.056   6.754  15.519 -0.1065 -0.1818 -0.0269
13819W        W30667   4.626  10.100   2.706  0.1717 -0.0675 -0.2615
13820W        W30668   5.984  12.868  15.855  0.1414 -0.0254 -0.0256
13821W        W30669   2.861  17.280   2.258 -0.1131  0.1574  0.3086
13822W        W30670   6.962  17.111   4.062 -0.1019  0.1372 -0.0745
13823W        W30671  11.641   7.099   1.749  0.1372  0.1287 -0.1088
13824W        W30672   3.868  15.948   5.795 -0.0382  0.2330  0.0316
13825W        W30673  10.828  11.906  15.025  0.1098 -0.3902 -0.0033
13826W        W30674   1.718   9.352  13.202  0.0869 -0.0651 -0.0222
13827W        W30675   6.836   6.150  13.048 -0.1319 -0.3812 -0.1826
13828W        W30676  12.337  12.589  16.508 -0.0906  0.0802  0.0153
13829W        W30677   4.013  15.727  11.674  0.0160  0.0662 -0.2977
13830W        W30678  11.781  12.850   4.925 -0.0450  0.2172 -0.1760
13831W        W30679  11.483   7.714  14.010 -0.1083 -0.0244 -0.0418
13832W        W30680  14.523  10.322   5.527  0.2780 -0.1880  0.0085
13833W        W30681  13.422  15.829   3.705 -0.2393  0.1080 -0.0445
13834W        W30682   9.846   3.495   1.349  0.0053  0.0062  0.2426
13835W        W30683   4.300  12.645   5.556 -0.1244  0.1912 -0.0265
13836W        W30684   5.435  11.823  12.658  0.0709  0.1369 -0.2518
13837W        W30685  10.209  10.869   1.877  0.1159  0.1028 -0.0721
13838W        W30686   1.193  16.104   4.467  0.2414  0.1506  0.1417
13839W        W30687   6.660   7.353   4.377 -0.0340  0.0124 -0.2683
13840W        W30688   5.910   8.886  11.571  0.3405 -0.2647  0.2825
13841W        W30689   8.928   2.272  15.413  0.2828 -0.0132 -0.1322
13842W        W30690  15.743   2.256  12.942  0.1092 -0.1546 -0.0664
13843W        W30691   8.425  14.116   4.972 -0.3451 -0.0413  0.0282
13844W        W30692   5.999  16.956  13.529  0.3441 -0.0033  0.1851
13845W        W30693  15.192   4.942  11.839 -0.1172  0.1777 -0.2119
13846W        W30694   7.584   0.779   2.553 -0.3883 -0.2394 -0.1032
13847W        W30695   5.360  13.864   4.889 -0.0001 -0.1347  0.2253
13848W        W30696   6.233   2.910  12.131 -0.4046 -0.4968 -0.2883
13849W        W30697  14.338  17.269  14.641 -0.0393  0.0496  0.4076
13850W        W30698  11.451   7.650  12.809 -0.0767  0.2932  0.2397
13851W        W30699   1.812  14.190   0.325  0.0849  0.2823 -0.1689
13852W        W30700   9.687   2.759  11.290 -0.0734 -0.1620 -0.2987
13853W        W30701   9.226  16.327  12.065  0.3723 -0.1045 -0.3195
13854W        W30702  14.704  12.584   0.668 -0.0787  0.0603 -0.2736
13855W        W30703   5.350  17.106   6.371  0.0284 -0.0289 -0.2403
13856W        W30704   8.992   1.407  13.882 -0.0715 -0.2345  0.3046
13857W        W30705   2.063   6.773   4.573  0.2525  0.0198  0.3188
13858W        W30706  12.933  14.539   2.871  0.0377  0.0473  0.2404
13859W        W30707   5.927  14.743   2.692 -0.0410  0.1433 -0.2247
13860W        W30708   7.566  15.325   0.221 -0.1167  0.0837  0.2092
13861W        W30709  15.527   3.988   4.536 -0.0461 -0.0690 -0.0599
13862W        W30710  16.521   6.047   3.000  0.0873  0.1838 -0.0329
13863W        W30711   6.769   4.416   5.380  0.2261  0.0699 -0.2432
13864W        W30712  11.545   5.627  13.801  0.1826 -0.2170 -0.4088
13865W        W30713  12.701  12.623   3.568 -0.0256 -0.0838 -0.0218
13866W        W30714   2.599  14.851  10.444  0.1666 -0.0704  0.4110
13867W        W30715  14.367   0.923  11.395  0.1469  0.2656 -0.1629
13868W        W30716  16.938  15.279   0.947  0.1765 -0.0147  0.0630
13869W        W30717  12.999   2.343   0.683  0.1857  0.0502 -0.1933
13870W        W30718   6.157   4.500  14.352 -0.0701 -0.0723 -0.0562
13871W        W30719  10.262  10.295   1.168  0.0148 -0.2603 -0.0870
13872W        W30720   2.573  10.542  11.351 -0.0080  0.3520  0.0416
13873W        W30721   3.372  14.739   4.400  0.1461 -0.0599 -0.0093
13874W        W30722   6.236   2.126  12.444  0.0120 -0.3209  0.1149
13875W        W30723   0.127   9.571   4.919  0.0988 -0.0331  0.0072
13876W        W30724   1.122  16.077  11.550 -0.0739  0.3631 -0.1115
13877W        W30725   6.032   0.878  10.724 -0.1186 -0.0690 -0.1213
13878W        W30726   9.904  13.193  15.895 -0.0515 -0.2382 -0.2397
13879W        W30727   9.382  10.401  11.606 -0.2021 -0.0808  0.1041
13880W        W30728  17.662   5.681   5.723  0.1644  0.0988 -0.2143
13881W        W30729  12.425  12.107  16.309  0.1225  0.0775  0.0031
13882W        W30730   2.274   9.054   0.332  0.2318  0.1975  0.0025
13883W        W30731   9.635  16.775   3.000  0.1647 -0.1216 -0.0547
13884W        W30732   5.708   0.283  15.610  0.0164 -0.0181  0.1791
13885W        W30733  11.707  10.812  11.847  0.0785 -0.0178  0.1129
13886W        W30734   0.879  13.849   0.045  0.1444  0.0612  0.0088
13887W        W30735   8.222   9.515   3.236 -0.1808  0.0988  0.2018
13888W        W30736   3.691   2.175   2.486  0.2012 -0.3629 -0.1574
13889W        W30737  13.611   8.067  12.850 -0.0228 -0.0305  0.2152
13890W        W30738   3.696  14.888   3.989 -0.1787  0.2027  0.2417
13891W        W30739   2.666  14.961   3.608 -0.0794  0.0947 -0.3331
13892W        W30740   8.329   5.129   2.114 -0.0421 -0.2440 -0.1789
13893W        W30741  13.621   5.847  12.984  0.3460 -0.0792  0.1539
13894W        W30742   1.503  17.196  15.941  0.1014 -0.1130  0.0372
13895W        W30743  15.669  12.955   3.595 -0.0582 -0.0660 -0.0557
13896W        W30744   3.112  16.877  11.686 -0.3321  0.1204 -0.1548
13897W        W30745   1.606  14.582  15.585 -0.0781 -0.1584 -0.1188
13898W        W30746  12.645  17.620  16.481 -0.0439 -0.0428 -0.5137
13899W        W30747  12.712  17.189   0.407 -0.1407  0.0888  0.1273
13900W        W30748  10.613   6.073   0.339 -0.0057 -0.1432  0.1459
13901W        W30749  13.667   1.650  12.760 -0.1487 -0.0928  0.2518
13902W        W30750  13.561  12.595   6.281 -0.0353 -0.2045 -0.2412
13903W        W30751  16.267   7.240  15.164  0.0713 -0.1446 -0.1226
13904W        W30752   1.263  14.541   3.196  0.0023 -0.1182  0.3102
13905W        W30753   2.514  10.537  10.041  0.2892 -0.3730 -0.0025
13906W        W30754  11.572  17.049   2.788  0.0332  0.1623 -0.1896
13907W        W30755   7.182   2.269   3.863 -0.0269 -0.2229 -0.0551
13908W        W30756  16.977  13.032   4.057 -0.0653  0.1335  0.0710
13909W        W30757  15.619  10.016   1.140  0.1923 -0.1846 -0.1113
13910W        W30758   2.438   9.395  14.851 -0.0260  0.3046  0.0490
13911W        W30759   0.403   1.562   4.169  0.0839 -0.0253  0.0971
13912W        W30760   8.986  15.856  15.189  0.1373 -0.0387  0.2608
13913W        W30761   7.958  13.489   3.527 -0.1474  0.2830  0.1387
13914W        W30762  16.619   7.202  16.558  0.1458 -0.0608  0.0107
13915W        W30763  14.228   6.460  16.128 -0.1229 -0.2455 -0.0725
13916W        W30764   8.496  15.901  11.750 -0.0635  0.0448 -0.0255
13917W        W30765   4.432   4.766   3.568  0.0574  0.1427 -0.1682
13918W        W30766  11.826  10.743  16.244 -0.0209 -0.1105  0.0422
13919W        W30767   3.461   4.225   1.433  0.1538  0.1546 -0.0877
13920W        W30768  13.989   4.764   3.507  0.1562 -0.1593 -0.0562
13921W        W30769   3.207   5.761  11.670  0.1161 -0.0053  0.0587
13922W        W30770   1.236   5.477   3.566  0.0702  0.1778  0.0150
13923W        W30771   7.146   5.501  12.733 -0.1323  0.4642  0.3175
13924W        W30772   4.278   1.929   5.134 -0.2070  0.1617 -0.0631
13925W        W30773   2.754   3.177  15.690 -0.2845 -0.1029 -0.0690
13926W        W30774  10.189  12.749  11.457  0.1151  0.1965  0.0735
13927W        W30775   2.993  14.405   4.592  0.2060  0.3516 -0.0086
13928W        W30776   7.892  16.879  13.876  0.2636 -0.2016  0.1698
13929W        W30777  11.521   7.059  12.857  0.1801  0.2269 -0.2416
13930W        W30778   9.763   3.008   2.443 -0.1182 -0.1075  0.0561
13931W        W30779   5.893   0.480   0.215  0.0401  0.1552  0.3478
13932W        W30780   7.056   3.223   3.398 -0.1415 -0.2664  0.2927
13933W        W30781   6.526  13.279  13.653  0.0191 -0.3100 -0.1591
13934W        W30782   9.519   1.659   1.410  0.1156  0.1296 -0.0342
13935W        W30783   7.137   2.751   3.002  0.2177 -0.0604  0.1279
13936W        W30784  10.725   8.547  13.290 -0.2532 -0.0354 -0.1396
13937W        W30785  16.028   8.786   5.463 -0.1454  0.2297  0.0437
13938W        W30786  13.927  10.716   1.387  0.1839 -0.0173  0.0845
13939W        W30787   1.699   1.875   2.854 -0.0310 -0.2843  0.3475
13940W        W30788   5.412   0.088   1.619 -0.2074 -0.2052 -0.1532
13941W        W30789   0.391   1.918   2.046 -0.2673  0.1489  0.0619
13942W        W30790  12.322  14.210  14.031  0.2470  0.2705 -0.1814
13943W        W30791  15.391  17.093   2.798 -0.0423  0.0028  0.0858
13944W        W30792   4.704   8.284  14.234  0.2859 -0.0232 -0.2043
13945W        W30793   7.623   2.811  15.179 -0.2610  0.0579 -0.2153
13946W        W30794  11.041   8.645   4.768  0.1464  0.0415  0.0275
13947W        W30795   1.974  10.899   2.757 -0.1075  0.0286  0.0411
13948W        W30796   7.428   8.422   5.247  0.1558 -0.0632 -0.1838
13949W        W30797   4.897   7.171   3.359  0.0640 -0.3398  0.0876
13950W        W30798   2.270  16.941   0.393 -0.1599  0.0684 -0.2009
13951W        W30799   1.453   9.247   1.446  0.2214  0.0191 -0.0911
13952W        W30800   4.812   1.570  13.100  0.1958 -0.0169  0.1884
13953W        W30801  14.872   2.921  14.159 -0.1353  0.1308 -0.0121
13954W        W30802   6.050   6.488   1.961  0.1836  0.4922 -0.0607
13955W        W30803  13.526  12.970  14.627  0.1277  0.0746 -0.1820
13956W        W30804   6.848  14.740  16.145 -0.1396 -0.0170  0.0105
13957W        W30805   9.797   8.804  13.252  0.0873  0.0447  0.1879
13958W        W30806  15.853   7.447  16.417  0.1233 -0.1016 -0.0320
13959W        W30807   5.635   5.873  14.211 -0.3333 -0.1348 -0.0429
13960W        W30808  10.741   4.457   2.065  0.1834  0.0742  0.0428
13961W        W30809   4.970   2.574  11.890  0.2600  0.2440  0.1800
13962W        W30810   9.942   4.350   3.965 -0.0342 -0.0505 -0.0194
13963W        W30811  16.192   0.968  14.604 -0.0273 -0.0830 -0.0678
13964W        W30812   7.265   0.771   5.316 -0.3792 -0.1706  0.2466
13965W        W30813  17.061  11.639   1.404 -0.0081  0.1416  0.2338
13966W        W30814  16.826   6.104  11.870  0.0833 -0.3324 -0.3737
13967W        W30815   8.267  14.894  16.607  0.0330 -0.2531  0.1086
13968W        W30816   0.072   3.170  15.383 -0.1712  0.1962 -0.1606
13969W        W30817  13.963   1.653   2.452  0.0944 -0.1202  0.1466
13970W        W30818   4.161  17.677   2.097  0.2861 -0.1065 -0.1490
13971W        W30819   8.312   1.089   3.088  0.1929 -0.0510  0.0519
13972W        W30820   6.966  10.738  13.650 -0.2237  0.5785  0.0154
13973W        W30821   3.088  13.892   4.556 -0.1648 -0.1203 -0.0720
13974W        W30822  15.296   7.953  11.936  0.0629  0.2800  0.2398
13975W        W30823   4.567  12.968   2.516 -0.0443 -0.0195  0.2928
13976W        W30824   9.098   8.206  13.606  0.0273  0.3442 -0.2037
13977W        W30825   6.573  13.959  14.499  0.1482 -0.2653 -0.0276
13978W        W30826   3.760   6.389   6.177  0.3270  0.1058 -0.1093
13979W        W30827  15.160  16.137   0.658  0.0467  0.2220 -0.0115
13980W        W30828   4.715   1.427   4.542  0.3577 -0.2060  0.2495
13981W        W30829  13.379   8.004   2.087 -0.0678 -0.1321  0.0998
13982W        W30830   0.004  16.090   4.651  0.0732  0.1465 -0.2164
13983W        W30831  14.306   4.165  15.828 -0.1528 -0.1977  0.1129
13984W        W30832  15.172   4.284   3.586 -0.1322  0.0801  0.0216
13985W        W30833   9.774  14.030   4.899  0.0696 -0.2764 -0.0686
13986W        W30834   0.683   5.317   3.487  0.2652  0.0958 -0.2012
13987W        W30835   9.029  17.665  15.654  0.0024 -0.2121  0.0716
13988W        W30836   5.838   1.823  14.979 -0.0060  0.1151 -0.1195
13989W        W30837   0.382   8.207  13.041 -0.1752 -0.0925 -0.0593
13990W        W30838  15.455  11.367  15.495  0.2766 -0.0996  0.0013
13991W        W30839  11.923   1.341  13.393 -0.2976  0.2632 -0.1970
13992W        W30840  12.759  15.424  14.453 -0.4739 -0.4383  0.1072
13993W        W30841   3.643  10.124  13.650 -0.0048  0.1083 -0.1144
13994W        W30842   7.314   0.936  16.650  0.0821  0.2209 -0.1914
13995W        W30843   8.520   7.298   5.317 -0.2405  0.4541 -0.2434
13996W        W30844  15.304  15.479  14.424 -0.2421 -0.0906 -0.0187
13997W        W30845   3.742  13.740  12.460  0.0236  0.0688 -0.2426
13998W        W30846   6.246   9.116  15.801 -0.3206  0.0701  0.0869
13999W        W30847   4.704   5.212  16.469  0.0053  0.0817  0.1142
14000W        W30848   9.893   1.004  12.835 -0.0899  0.0838 -0.0492
14001W        W30849  10.384  12.084   1.289 -0.0720 -0.1905  0.2419
14002W        W30850  10.499   1.755  15.279 -0.0169 -0.0827 -0.1605
14003W        W30851   0.450   5.109  13.698 -0.0317  0.0567 -0.2309
14004W        W30852   2.346  15.289  12.676 -0.0963  0.0995 -0.0203
14005W        W30853   8.561  13.803  16.048 -0.0735  0.1400 -0.0357
14006W        W30854   6.185  14.988  15.763 -0.0529 -0.0567 -0.3350
14007W        W30855  17.515   8.506   0.211 -0.0111  0.0831  0.1282
14008W        W30856   5.084  10.237   5.148 -0.3022  0.1955  0.1563
14009W        W30857  12.512   9.578  15.190 -0.1008 -0.1285  0.0634
14010W        W30858   2.490  12.729  13.965  0.2808 -0.2527  0.1311
14011W        W30859   9.403  14.845   6.427 -0.0091  0.0306  0.2302
14012W        W30860   2.878  11.018   2.371 -0.0637  0.2002  0.0112
14013W        W30861   9.816  12.459  16.648 -0.0285  0.3571  0.1613
14014W        W30862  15.676  11.249  11.476 -0.0786  0.1120 -0.0420
14015W        W30863  11.130   2.080   2.834  0.1020 -0.1212  0.1272
14016W        W30864   3.977   7.601   3.956  0.6394  0.0314  0.0363
14017W        W30865  16.215   3.534   4.760 -0.2100  0.3197 -0.0120
14018W        W30866   1.579   5.624   4.462  0.2218  0.1222 -0.0643
14019W        W30867  14.488   1.238  14.248 -0.0132  0.1737 -0.1246
14020W        W30868  16.404   0.187   3.976 -0.2293  0.0106 -0.3044
14021W        W30869   8.296  14.701  13.839  0.2084  0.2560  0.3894
14022W        W30870   5.425  10.986  14.745  0.1812 -0.0770  0.2554
14023W        W30871   5.573  15.991  14.028  0.1121  0.1890  0.0185
14024W        W30872   1.927  10.129  11.206 -0.0031  0.1256 -0.1282
14025W        W30873   7.636  14.650   3.965  0.4406  0.0046  0.0486
14026W        W30874   2.134   6.385  12.934 -0.0835  0.1068 -0.2274
14027W        W30875  11.990  14.231  13.207  0.1245  0.1628  0.1374
14028W        W30876  13.361  15.360   2.008  0.0163 -0.2002  0.1820
14029W        W30877   6.209   4.917   0.363  0.1222  0.1088 -0.2568
14030W        W30878  10.734   2.440   2.883  0.3516  0.0358 -0.1286
14031W        W30879  10.476  12.688  15.534  0.0133 -0.0208 -0.1697
14032W        W30880   9.257   0.548   2.067  0.1680  0.2098 -0.0022
14033W        W30881   9.673   4.964  13.802  0.1349  0.1108  0.0813
14034W        W30882  16.905  13.112   1.083 -0.1186  0.0062  0.0165
14035W        W30883   6.369  17.574   1.706 -0.2160  0.1144  0.1473
14036W        W30884  12.244   5.816  13.220 -0.3470 -0.0542  0.1133
14037W        W30885   7.268  15.982  13.266 -0.0402  0.0002 -0.2027
14038W        W30886   8.608   5.721  11.259 -0.0009  0.1941 -0.4112
14039W        W30887   5.096  13.427   0.036 -0.0081 -0.0811  0.2297
14040W        W30888   5.670  15.311   3.454  0.0561 -0.3281 -0.1192
14041W        W30889   7.249   2.485  12.836 -0.1681 -0.0118  0.2110
14042W        W30890   6.185  14.555   3.084 -0.0021  0.0996  0.2253
14043W        W30891   6.082   7.782   4.889 -0.2884 -0.1117  0.0687
14044W        W30892   3.593   6.305   1.400  0.2506 -0.1590 -0.1112
14045W        W30893  14.008   0.057  11.800  0.0110  0.1590  0.0808
14046W        W30894  16.790  11.776  13.122  0.0847  0.0534 -0.1872
14047W        W30895  14.284   6.330  12.410  0.0536 -0.0729  0.1441
14048W        W30896   4.180   6.215   0.465  0.2326 -0.4848 -0.2765
14049W        W30897  15.084  11.523  13.300 -0.3131  0.0464  0.0652
14050W        W30898   8.549  11.533   5.124 -0.2009  0.1025 -0.1201
14051W        W30899  13.326   0.631   4.312 -0.1281 -0.0249 -0.0664
14052W        W30900  16.518  15.316  11.599 -0.1899  0.4491 -0.0290
14053W        W30901   2.758  10.323   4.370  0.0589  0.0515  0.0743
14054W        W30902   8.789   7.592  11.924  0.0573 -0.0491  0.1225
14055W        W30903   5.608   4.347   5.511 -0.2732 -0.1494  0.0805
14056W        W30904   4.986   1.612  15.288 -0.3914  0.3014  0.1649
14057W        W30905  12.932   9.877   2.101  0.3420  0.0199 -0.0554
14058W        W30906   6.846   2.268  12.473 -0.3105 -0.3084 -0.0151
14059W        W30907  11.637   7.426  11.576 -0.1408 -0.5035 -0.0855
14060W        W30908  16.408   1.053   4.484  0.1185 -0.1495 -0.1231
14061W        W30909   1.970   6.477   3.312 -0.0132 -0.2304 -0.1255
14062W        W30910  15.343  17.015  14.966  0.1673 -0.2031  0.4099
14063W        W30911   8.884  15.382  16.440 -0.0468 -0.2885  0.1164
14064W        W30912  11.351   4.788  12.376  0.0678  0.0512 -0.2783
14065W        W30913  13.052  15.052   3.060  0.0387  0.1196 -0.0207
14066W        W30914  14.117   6.946   0.253 -0.0520  0.3304  0.1456
14067W        W30915   4.012   5.451   1.129 -0.0235  0.4126 -0.0568
14068W        W30916  12.626  11.941  11.322  0.3000  0.2924 -0.1259
14069W        W30917   3.747  10.593  13.540  0.0901  0.0494  0.0686
14070W        W30918   9.641   4.621  16.235 -0.3112 -0.4150  0.0892
14071W        W30919  11.828  12.300   1.643  0.2784 -0.1348 -0.1889
14072W        W30920   2.169   1.439  11.583 -0.1742 -0.4284  0.1673
14073W        W30921  17.573   1.460   0.886  0.2795  0.0221 -0.2337
14074W        W30922  17.118  17.114   1.552 -0.1540  0.0622  0.0423
14075W        W30923   8.531   3.480  12.233  0.1415  0.1579 -0.1925
14076W        W30924   3.629   4.887  15.741 -0.0572  0.0693  0.0834
14077W        W30925  13.729   8.509   5.176 -0.0812 -0.0074 -0.5473
14078W        W30926   2.592   7.423   3.185  0.0129  0.0511  0.0879
14079W        W30927   1.216   1.231  16.140 -0.0374  0.1711 -0.2340
14080W        W30928  13.667  11.548   0.649  0.0567 -0.1156 -0.2298
14081W        W30929   4.553   2.175   3.921  0.0208  0.2847  0.0242
14082W        W30930  13.291   1.329  12.976  0.3229 -0.0387  0.0318
14083W        W30931   5.593   9.073  13.137 -0.0004  0.2390 -0.4984
14084W        W30932  10.029   3.506   3.371 -0.1143 -0.1060  0.3183
14085W        W30933  14.140   6.675  12.846  0.0129 -0.0794  0.1594
14086W        W30934   4.859  17.007  12.094  0.0543 -0.3214 -0.0094
14087W        W30935   7.906   7.771   1.231  0.0196 -0.0178  0.0384
14088W        W30936  14.065   9.191  14.746  0.1769  0.3706 -0.3003
14089W        W30937  14.888   3.596   1.204  0.0732  0.0914  0.5204
14090W        W30938  17.534   1.310   1.666 -0.3054  0.2270 -0.1533
14091W        W30939  17.626  16.932   1.878  0.0097 -0.0749  0.0146
14092W        W30940   6.225   7.040   0.867 -0.2095  0.0043 -0.1725
14093W        W30941   8.926  15.278  13.750 -0.0808 -0.2321  0.1055
14094W        W30942  16.167  10.798  12.111  0.2963 -0.1668  0.1254
14095W        W30943   8.917   1.581  13.012  0.3213  0.0658  0.0720
14096W        W30944  14.472   4.971   3.629 -0.4276  0.0884  0.0455
14097W        W30945   3.237   6.119   4.684 -0.1308  0.1937 -0.1765
14098W        W30946   2.223   8.244  13.417 -0.2436 -0.1087 -0.0618
14099W        W30947   3.943  11.607   1.909 -0.2713 -0.0037 -0.0480
14100W        W30948  13.968  10.415  12.113  0.0114  0.1759  0.0189
14101W        W30949  14.105   9.610  13.570 -0.1291 -0.1240  0.1132
14102W        W30950  13.979   9.493   4.201  0.0119 -0.3212  0.1452
14103W        W30951   4.262   2.958  16.633  0.0992  0.1810  0.0486
14104W        W30952   5.385   5.241  14.792 -0.2166 -0.0093 -0.0868
14105W        W30953  14.229  17.554  12.288 -0.0880  0.2059 -0.0863
14106W        W30954  17.153   2.904  11.276 -0.3293  0.2100  0.0978
14107W        W30955  12.976   8.748   4.104  0.0708 -0.1201  0.1971
14108W        W30956   3.246  15.767   3.422  0.1340  0.3028  0.1092
14109W        W30957   7.068   2.151  14.042 -0.1437 -0.1022 -0.1624
14110W        W30958  16.460  10.583   0.527 -0.0696  0.3200  0.0435
14111W        W30959   7.873   5.300   1.913  0.3238  0.0432 -0.0881
14112W        W30960   0.727   9.155   0.358  0.1408 -0.1416 -0.0929
14113W        W30961  12.859   1.338  11.873  0.0455  0.1178 -0.2220
14114W        W30962  14.440   9.027   3.242  0.2884  0.0169 -0.0883
14115W        W30963   7.146   6.107   0.364  0.4587 -0.0245 -0.0132
14116W        W30964  11.465  16.421   1.134 -0.2424  0.1233  0.1503
14117W        W30965  13.535   7.401  16.062 -0.0761 -0.0837 -0.0559
14118W        W30966   4.489   2.720   1.665  0.0035  0.0065 -0.0949
14119W        W30967  11.400   6.474   4.658  0.0202 -0.3272  0.1246
14120W        W30968  17.135  12.699   3.632 -0.0396  0.0635  0.0728
14121W        W30969  11.840   6.696  13.059 -0.1114  0.1046  0.2507
14122W        W30970   0.304  13.419  10.831 -0.0053 -0.1948  0.0747
14123W        W30971  10.517   4.009   2.728  0.0187  0.2355 -0.2421
14124W        W30972  13.946  16.034  13.163  0.0037  0.2344 -0.2244
14125W        W30973  12.659   4.378  14.662  0.0458 -0.0423 -0.2271
14126W        W30974   9.530   8.014  13.774 -0.1561 -0.1251  0.1656
14127W        W30975  12.259  15.577  13.541  0.1473  0.0355 -0.1434
14128W        W30976   3.314  12.817  16.582  0.2076 -0.2330 -0.2728
14129W        W30977  14.459   5.876   0.964 -0.0300 -0.1602  0.1094
14130W        W30978   3.569   2.597  12.053  0.0446 -0.0165  0.0595
14131W        W30979   6.505   8.755  13.294 -0.0506  0.1606 -0.0014
14132W        W30980   9.080   3.359  11.520 -0.0389 -0.2919  0.0252
14133W        W30981  12.771  10.907   1.903 -0.3321  0.0379  0.0393
14134W        W30982  13.960   4.044   2.019 -0.1955 -0.0778  0.1339
14135W        W30983   0.125  15.103  14.287 -0.0654 -0.0227  0.0811
14136W        W30984  17.556   0.528   3.032 -0.2344  0.1918  0.1744
14137W        W30985   6.547   3.130   0.670  0.0240  0.1993 -0.3716
14138W        W30986   8.456   1.179  16.002 -0.2500  0.1823  0.1811
14139W        W30987   6.491   3.117  12.565  0.2039 -0.0127 -0.2688
14140W        W30988  16.465  10.693   1.628 -0.0354  0.3856  0.1051
14141W        W30989  14.053  14.801   0.915  0.3232 -0.1850  0.1084
14142W        W30990   4.656  13.853  13.657  0.1745  0.2368 -0.0070
14143W        W30991  17.247   7.064   1.514  0.2911 -0.0206 -0.2442
14144W        W30992  17.297   3.598   0.595 -0.0780 -0.0627 -0.0311
14145W        W30993   3.663  16.769  11.518  0.0152  0.1790 -0.0002
14146W        W30994   3.634  13.945   2.241  0.0557  0.4511  0.0882
14147W        W30995   2.332  12.465   5.064 -0.0903  0.2523 -0.2835
14148W        W30996  16.610  15.908   3.653  0.0460  0.2536  0.1771
14149W        W30997   4.348   3.095   0.814  0.2036 -0.2741 -0.0868
14150W        W30998   3.497   3.928  15.993 -0.1278  0.2036 -0.0807
14151W        W30999  14.973   9.289  13.461  0.2271  0.0213 -0.0874
14152W        W31000  11.910   3.525  14.542  0.0391  0.2701 -0.1802
14153W        W31001   7.682  16.769   4.356 -0.1530 -0.2869 -0.1426
14154W        W31002   8.457   1.630   5.120  0.1607 -0.2247 -0.3569
14155W        W31003   6.327  16.258   1.024 -0.0417  0.0776  0.0121
14156W        W31004  11.043  13.424  12.631 -0.1140 -0.4001 -0.0662
14157W        W31005   5.214  10.725   1.439  0.0182  0.4304  0.0847
14158W        W31006  15.928   5.081   1.345 -0.0897  0.0730 -0.1232
14159W        W31007  15.451  15.343  12.920 -0.0091  0.1831 -0.3941
14160W        W31008  16.082  16.025   5.214 -0.1963  0.2342 -0.1315
14161W        W31009   3.312  13.319  14.172 -0.0062 -0.2069  0.2377
14162W        W31010   0.646   3.467   5.084  0.0135 -0.0922 -0.0152
14163W        W31011  13.497  15.086   0.094 -0.1118 -0.0373 -0.1518
14164W        W31012   4.817  17.559   3.886  0.0095 -0.1499  0.2200
14165W        W31013  16.887   9.662   2.505 -0.0387 -0.1362  0.0802
14166W        W31014  11.557  13.517   5.019  0.0448  0.0094 -0.1158
14167W        W31015   3.371  15.098   4.793  0.0504  0.2074 -0.2309
14168W        W31016   4.205  13.334   3.732  0.2539 -0.1749 -0.1781
14169W        W31017   0.901   0.117  13.058  0.5969 -0.0792  0.1506
14170W        W31018  16.956   2.828  11.788  0.0513 -0.0132 -0.0080
14171W        W31019  10.741   2.291  10.582  0.1479  0.0127 -0.0217
14172W        W31020   1.611  15.175  15.988 -0.0472  0.1268 -0.1821
14173W        W31021   9.625  16.951   4.221  0.0120 -0.4032  0.1778
14174W        W31022  14.817  10.928   0.143  0.2136  0.0996 -0.1637
14175W        W31023   1.246  16.056  15.870 -0.0615 -0.1274  0.3819
14176W        W31024   8.416  15.997  14.101  0.1645 -0.0210 -0.3076
14177W        W31025   2.266   6.217   2.954 -0.0571  0.1196 -0.2485
14178W        W31026  13.333   3.214  16.446  0.0045  0.1804 -0.2413
14179W        W31027  16.700   3.824  13.992  0.2605  0.1695  0.1174
14180W        W31028  17.019   5.453  14.414 -0.0182  0.1374  0.1509
14181W        W31029   6.473  11.380  11.539 -0.1466 -0.4139  0.3090
14182W        W31030  15.394  14.886  16.080 -0.0890  0.0276 -0.1356
14183W        W31031  15.936   8.327   4.640 -0.0004 -0.0220  0.0807
14184W        W31032  17.372   3.397   5.237  0.1985  0.1225  0.2859
14185W        W31033  14.199  15.514  14.907  0.0681  0.0143 -0.3123
14186W        W31034   1.893   8.219   4.760  0.1668 -0.0012 -0.1932
14187W        W31035   5.939   2.668  12.967  0.2015  0.0549 -0.1602
14188W        W31036  11.993  13.638   1.551  0.4583 -0.1305 -0.3358
14189W        W31037   4.048  13.483   0.139 -0.2323 -0.1741  0.1310
14190W        W31038   0.318  16.986  15.410  0.1985 -0.0813  0.0313
14191W        W31039  13.922   4.791  13.010  0.1954  0.0978  0.1156
14192W        W31040   3.823   9.272  14.851 -0.0804  0.1056  0.0658
14193W        W31041   5.961  16.801  13.984  0.5243 -0.0990  0.0737
14194W        W31042  16.918  13.579   0.670  0.0423  0.1556 -0.2079
14195W        W31043  15.145  12.949   0.611  0.0550 -0.0354 -0.1138
14196W        W31044  10.224   4.886  11.174  0.1076  0.1259 -0.0235
14197W        W31045  15.787   3.828   4.938  0.1114  0.2375  0.0845
14198W        W31046  13.786  14.281  16.516 -0.2236 -0.2910  0.1061
14199W        W31047   9.202  16.573   4.525 -0.1176  0.2485 -0.1524
14200W        W31048  16.931   9.794  12.248  0.1283 -0.1254  0.2144
14201W        W31049   0.162   0.169   4.435  0.2159  0.1161 -0.0903
14202W        W31050   9.430  14.713  14.265  0.1029 -0.0319 -0.0458
14203W        W31051  16.980   7.460  13.266 -0.3217 -0.2214 -0.5250
14204W        W31052   4.004  12.709  10.862  0.0729 -0.1971  0.0443
14205W        W31053  14.916   2.015   1.396 -0.0504 -0.0846 -0.1448
14206W        W31054   9.418   3.573  13.289 -0.2015  0.1597 -0.1986
14207W        W31055  11.205   7.803  12.317  0.1178  0.1512 -0.2320
14208W        W31056   1.752   3.227   2.415  0.2143  0.4169  0.3654
14209W        W31057  11.391  14.516   1.231 -0.1011  0.2189  0.4029
14210W        W31058   3.645  12.121   2.040  0.2408 -0.1046  0.0710
14211W        W31059  13.747   9.233   1.115  0.0290 -0.0777  0.1867
14212W        W31060  15.780   1.856   1.351  0.2196  0.1517 -0.0063
14213W        W31061   1.027  12.800  10.198 -0.0550 -0.4295 -0.1617
14214W        W31062   5.538   0.904  10.796  0.4347 -0.0572  0.3908
14215W        W31063   1.415   8.399  11.775  0.0666  0.3447  0.0671
14216W        W31064   7.413   5.588   0.489  0.1963 -0.2607  0.3208
14217W        W31065   8.802  14.757  12.151  0.2018 -0.0851  0.1160
14218W        W31066   9.289   1.839   4.998 -0.0600  0.0160  0.2216
14219W        W31067  10.006   6.046  16.274 -0.0290  0.2352 -0.1095
14220W        W31068   0.409  10.691   3.691  0.1645 -0.0438 -0.2438
14221W        W31069  17.429   9.704  15.223  0.2013 -0.2656 -0.2704
14222W        W31070  15.708   0.569  15.068 -0.0213  0.1731  0.0584
14223W        W31071  15.687   8.550  14.872 -0.0044 -0.1437  0.3453
14224W        W31072   4.369  12.260  15.568  0.1733 -0.1964 -0.3141
14225W        W31073  12.129   6.523   1.063  0.2479 -0.0875  0.2374
14226W        W31074   3.609  13.148   4.584 -0.1572 -0.1589  0.1300
14227W        W31075   1.225   1.606   0.146 -0.3347  0.1066  0.0387
14228W        W31076  16.486   8.238  12.340 -0.3376  0.0295 -0.0399
14229W        W31077   0.142  16.115  13.496 -0.1196 -0.1153  0.0572
14230W        W31078  12.250  16.871   1.367  0.0254 -0.1201 -0.2187
14231W        W31079   9.258  10.906   2.296  0.3143 -0.1988  0.1304
14232W        W31080  10.127   7.078  14.508 -0.0049 -0.0376 -0.3150
14233W        W31081   1.923  15.863   1.277  0.0657 -0.0451  0.3814
14234W        W31082  13.588  16.374   4.007  0.0022 -0.1224 -0.1275
14235W        W31083  15.933   7.096   5.821 -0.0606 -0.0508 -0.1704
14236W        W31084   5.222   4.618  14.379  0.0388  0.1897 -0.3974
14237W        W31085  15.158  17.105   4.162  0.4553 -0.2908 -0.1899
14238W        W31086  16.537   2.422   4.140  0.1932  0.1702  0.0682
14239W        W31087   8.640   0.183  14.426  0.1221  0.0842  0.2901
14240W        W31088   0.542  17.396  12.294 -0.2022  0.0314  0.2012
14241W        W31089  13.248   7.299   0.804  0.1017  0.1945 -0.1073
14242W        W31090   3.608   1.819  14.769  0.2137  0.0596  0.1990
14243W        W31091   0.903  14.570  13.272  0.2275  0.1902 -0.1255
14244W        W31092  10.790  15.160  14.557 -0.2084  0.0420 -0.3470
14245W        W31093   7.057   7.319  14.454 -0.0240 -0.1780 -0.1640
14246W        W31094   7.899  14.064  11.205  0.0509 -0.0170 -0.1679
14247W        W31095   3.374   1.167   0.366 -0.0616 -0.2022 -0.0219
14248W        W31096  14.069  13.775   1.090  0.0132 -0.1409 -0.0469
14249W        W31097  11.150   0.581  15.992  0.1750 -0.0895  0.1228
14250W        W31098  16.423   1.113  10.640 -0.2085 -0.3765 -0.3216
14251W        W31099   6.854   0.358  13.095  0.0067 -0.1662 -0.2151
14252W        W31100  16.450   3.456   1.980  0.1185 -0.1811 -0.0758
14253W        W31101  15.918  11.167   4.492  0.0969 -0.4446  0.2428
14254W        W31102  11.951  10.969   1.639 -0.0489  0.0218 -0.1959
14255W        W31103   0.436   3.126  14.998  0.2042  0.2490  0.3258
14256W        W31104  17.427   7.366  13.541  0.0598  0.0445 -0.1603
14257W        W31105   8.699   5.917  11.707  0.0755  0.0939 -0.0158
14258W        W31106  17.455   2.313  15.606  0.1242  0.0938 -0.2658
14259W        W31107   6.887  10.878  14.714  0.1033  0.0459  0.1391
14260W        W31108   7.805  17.428   2.849  0.2468 -0.0273  0.0683
14261W        W31109  13.339   4.822   5.055  0.0514  0.0759  0.0110
14262W        W31110  13.065   3.147  15.119 -0.0155 -0.3162 -0.0783
14263W        W31111   0.396   2.454   4.013 -0.1269  0.0334 -0.1933
14264W        W31112  16.054   0.423  15.429 -0.5162  0.0898 -0.2821
14265W        W31113   8.871   0.782   1.179 -0.2555  0.0689  0.0974
14266W        W31114   0.950   5.505   3.140 -0.0310  0.0413 -0.3184
14267W        W31115   2.157  10.689   0.168 -0.2099 -0.2129  0.0136
14268W        W31116   1.899   3.277   5.681 -0.1410 -0.1832 -0.2807
14269W        W31117   0.559  16.453   1.064  0.1633 -0.0561 -0.0647
14270W        W31118   7.430  10.569   4.573  0.0422  0.2185  0.1005
14271W        W31119  16.728   4.126   0.782  0.0542 -0.0528  0.0577
14272W        W31120  10.884  10.900  16.574  0.0610  0.1453 -0.0981
14273W        W31121  14.072   8.660   4.849 -0.1604  0.0103 -0.1553
14274W        W31122  17.662   2.169  11.823 -0.2469  0.0653  0.0112
14275W        W31123   4.912   9.748   5.197  0.1015  0.0000 -0.1827
14276W        W31124   4.461   3.978   0.798  0.0086  0.1695 -0.1510
14277W        W31125   0.605   5.938  16.432  0.0742 -0.3451  0.2166
14278W        W31126   4.212  15.884  11.177  0.0559 -0.1348 -0.1478
14279W        W31127  13.584  13.894  13.469 -0.0900  0.0041 -0.2423
14280W        W31128   5.050  12.536   0.561  0.1208 -0.2187 -0.2318
14281W        W31129   7.092  11.245   1.287  0.1354  0.0686 -0.1961
14282W        W31130   2.805   8.864  15.837 -0.1227  0.0726  0.2643
14283W        W31131  16.348   6.582   2.667  0.0501 -0.1872 -0.2960
14284W        W31132   5.395  15.033  16.634 -0.5846 -0.0367  0.3320
14285W        W31133  15.254   0.381  14.978  0.1256 -0.3368  0.1465
14286W        W31134  10.531  16.036   3.527 -0.2141  0.0653  0.0616
14287W        W31135  11.291   9.745   3.632  0.1915  0.1429 -0.1273
14288W        W31136   7.262   6.400  16.604  0.1235  0.0276  0.1085
14289W        W31137   3.422  15.548   1.932 -0.0556  0.1446 -0.1848
14290W        W31138   3.242  13.146   1.879  0.1236  0.1610  0.0019
14291W        W31139  15.765   5.700  15.904 -0.1616 -0.0948 -0.4306
14292W        W31140   4.904  12.593   0.028  0.0662 -0.1765  0.2044
14293W        W31141  11.285   9.227   0.635  0.2353 -0.0929 -0.0156
14294W        W31142   3.947  12.363  16.485  0.3397 -0.0149 -0.2821
14295W        W31143  11.183  13.540   0.047  0.0656  0.0182 -0.0663
14296W        W31144  16.312  10.243  12.169  0.0511 -0.1696  0.0729
14297W        W31145   4.754   0.225  12.664  0.2698 -0.1191  0.3303
14298W        W31146   4.415  14.347   3.590 -0.2212 -0.2215 -0.0078
14299W        W31147  12.206   7.841  12.356 -0.1483 -0.2105 -0.0103
14300W        W31148   2.633   0.310  16.384 -0.1363  0.0290  0.1035
14301W        W31149  17.504  14.512   5.465  0.0328  0.2739 -0.0744
14302W        W31150  13.280   2.193   4.923  0.0471 -0.0722 -0.1256
14303W        W31151   5.033  13.057   4.797 -0.2601  0.0970  0.2088
14304W        W31152   0.562  14.901  16.247 -0.1434 -0.1463 -0.0019
14305W        W31153   8.598  16.214  12.478  0.1511 -0.1118  0.1178
14306W        W31154  17.170   8.065   2.729  0.1589  0.0729 -0.0129
14307W        W31155  13.003  13.278  16.394  0.1245  0.3236  0.2167
14308W        W31156   6.300  14.781   0.307  0.2914 -0.1176  0.0235
14309W        W31157   5.212   8.212  11.924 -0.0779 -0.1060 -0.0117
14310W        W31158   2.400  15.523  14.161  0.0076  0.2318  0.0857
14311W        W31159   4.605  15.476   1.616  0.1243 -0.1345 -0.0380
14312W        W31160   9.127  10.352  14.037 -0.0063 -0.1513  0.4463
14313W        W31161  16.951   3.664   4.968 -0.4881  0.1314  0.1773
14314W        W31162  12.372  16.032  15.025  0.0261  0.2452  0.0616
14315W        W31163  13.386   6.996  14.842 -0.3018 -0.0572 -0.0905
14316W        W31164   8.104  17.357  16.231 -0.1677  0.1803  0.0250
14317W        W31165  13.288  11.996   3.021 -0.1186 -0.0081 -0.2227
14318W        W31166  12.674   7.808  15.160  0.0319  0.0875 -0.1831
14319W        W31167  13.855  11.765  11.674  0.0191 -0.1007 -0.1621
14320W        W31168  11.513  11.409  15.655 -0.1421 -0.0962  0.1512
14321W        W31169  12.762   7.102   2.523  0.0581  0.3343  0.0910
14322W        W31170   3.144   0.541  15.931  0.2210  0.0128  0.0153
14323W        W31171   2.170   3.129  13.440  0.3592 -0.0843  0.2554
14324W        W31172   5.347   2.368  12.460 -0.2774  0.2373 -0.0815
14325W        W31173   3.689  14.351   1.492 -0.0359 -0.2898  0.3144
14326W        W31174   0.307   2.623  15.406  0.0050  0.0234  0.1703
14327W        W31175   5.895   7.507   0.961  0.1906 -0.1329 -0.1455
14328W        W31176   7.501   9.957  13.550 -0.0733 -0.0736  0.1206
14329W        W31177   5.848  12.082  11.805 -0.0025  0.0818  0.1112
14330W        W31178  12.744   3.138   0.945 -0.1648 -0.1455  0.0968
14331W        W31179   7.629  14.843  14.527 -0.1148 -0.0238  0.0625
14332W        W31180   5.276   8.121   5.054  0.0221 -0.0076 -0.0327
14333W        W31181   4.299   7.350   0.230  0.0618 -0.1020 -0.1632
14334W        W31182   5.034   7.607   3.654 -0.2947  0.1447 -0.1798
14335W        W31183   7.107   4.132   5.632 -0.2099 -0.0494  0.0149
14336W        W31184   3.008   9.749  15.625  0.0528 -0.1031  0.2286
14337W        W31185  17.137  12.097  11.394  0.0523 -0.0841 -0.1374
14338W        W31186   2.302   6.531  13.466  0.0907 -0.0257 -0.4125
14339W        W31187   4.194  11.015   4.283  0.0153  0.1959  0.1821
14340W        W31188   6.474  14.564  15.844 -0.0150 -0.0041 -0.0116
14341W        W31189  13.761   0.008  12.398 -0.1169  0.1480  0.2186
14342W        W31190   7.592  11.074  15.434  0.2561 -0.1279  0.1926
14343W        W31191  16.911  13.570   3.794  0.1998  0.0126 -0.0451
14344W        W31192   9.152  12.176   5.262 -0.0624 -0.2165 -0.0028
14345W        W31193   2.207   1.239  12.927  0.2513  0.0803  0.2865
14346W        W31194   6.918   0.940  12.890  0.0865 -0.0208 -0.2123
14347W        W31195   7.865   7.517  13.365 -0.2411  0.1243 -0.0968
14348W        W31196  11.400  17.615   2.910  0.0051 -0.1316  0.0859
14349W        W31197  12.114   5.275   2.393  0.0614  0.3822  0.1514
14350W        W31198  12.280  11.315  16.435  0.1045  0.0199 -0.2610
14351W        W31199   8.608   7.204   1.026 -0.3300 -0.2398  0.1326
14352W        W31200  16.997   2.417  15.082 -0.1471 -0.1600  0.3827
14353W        W31201   1.034   8.308   0.765 -0.0920  0.1384  0.3458
14354W        W31202   9.700   1.847   5.806  0.2235  0.0882  0.0557
14355W        W31203  17.439   4.858   0.779  0.2988  0.0155  0.1695
14356W        W31204   6.545  13.679   0.849 -0.4919 -0.1084 -0.0674
14357W        W31205   0.558  17.102   3.165  0.0209 -0.1364  0.1668
14358W        W31206   7.004   4.781  14.378 -0.1184 -0.0811  0.2608
14359W        W31207   1.461   6.132  13.189  0.2011 -0.3752  0.1345
14360W        W31208  10.759   9.862   4.212  0.1250  0.4094 -0.1780
14361W        W31209  15.662  13.386   1.292 -0.1471  0.2575 -0.1560
14362W        W31210  12.074  17.257   2.035  0.0012 -0.1051 -0.0101
14363W        W31211  13.406  14.819   3.476 -0.0554  0.1367  0.0263
14364W        W31212  17.019   2.281  12.025  0.2869 -0.0271 -0.1366
14365W        W31213   6.094   4.063  11.802  0.0411  0.0794  0.2630
14366W        W31214  12.139  13.797   4.280  0.1128  0.1739  0.0882
14367W        W31215  10.745   3.359  12.196 -0.1585  0.1851 -0.0297
14368W        W31216   3.319   6.593  11.635 -0.2714  0.3882  0.3124
14369W        W31217   0.747  12.444  13.972  0.0128  0.0863  0.0472
14370W        W31218   7.332   8.367   2.529 -0.1592  0.0072  0.0334
14371W        W31219   3.662  11.176   3.567 -0.1234 -0.0776 -0.0134
14372W        W31220  14.924   0.326   0.197  0.0573 -0.1377  0.1758
14373W        W31221   2.494  13.440  13.019  0.0111  0.0237  0.0828
14374W        W31222   4.453  10.144  11.525  0.0676  0.4809 -0.0644
14375W        W31223   8.159   3.845   1.928  0.1722 -0.0934  0.1389
14376W        W31224   1.282   9.400  13.778 -0.1331 -0.0245 -0.2288
14377W        W31225  14.470   1.543   2.540  0.0346 -0.2754  0.2615
14378W        W31226  14.386   2.703   2.911  0.1363 -0.1734  0.2236
14379W        W31227  12.516   7.008  15.900 -0.2078  0.1166  0.1536
14380W        W31228   6.691   4.075   4.659  0.1978 -0.2798  0.1023
14381W        W31229  17.407  15.511  13.877 -0.1157 -0.2669 -0.0055
14382W        W31230  10.781  13.193   5.210 -0.2544  0.2689 -0.0577
14383W        W31231   2.109  13.597   3.933  0.4263 -0.0763  0.0849
14384W        W31232  10.983  14.934  11.317 -0.1372  0.0906  0.2327
14385W        W31233   4.995  10.778  11.426 -0.1212 -0.3026  0.3353
14386W        W31234   5.871   2.946   4.896 -0.0313 -0.0338  0.0727
14387W        W31235   7.675  13.097  15.679  0.1309 -0.0373 -0.3198
14388W        W31236   1.476  12.251  12.541 -0.1828 -0.3633  0.0161
14389W        W31237   6.693  14.428   1.244  0.3726 -0.0827 -0.0333
14390W        W31238  17.392  16.560   2.075 -0.0195  0.2072  0.1501
14391W        W31239   1.277  10.156  15.720 -0.1695 -0.0687  0.2150
14392W        W31240  11.671   0.179  12.292  0.3593  0.1093  0.4671
14393W        W31241   8.053   7.970   3.635 -0.0947 -0.0088 -0.0685
14394W        W31242  11.087   3.656  13.947  0.1189 -0.2371 -0.3711
14395W        W31243   3.667   4.887  16.238  0.1458 -0.0827  0.2412
14396W        W31244  14.975  13.147  15.109  0.4442 -0.3006  0.0861
14397W        W31245  16.454   8.665   0.515  0.4489 -0.3828  0.0323
14398W        W31246  12.987   2.902   0.005 -0.3008  0.3010 -0.0644
14399W        W31247   2.624  14.906  11.397 -0.1261 -0.1698  0.2287
14400W        W31248   7.974  17.295  14.143 -0.3206 -0.0180  0.0947
14401W        W31249   0.139  13.059   3.013 -0.1026 -0.0918 -0.0976
14402W        W31250   6.050  16.431   5.483 -0.0508  0.1624 -0.1498
14403W        W31251   9.544   8.214  12.574 -0.1010 -0.1515  0.1056
14404W        W31252  15.888  16.497   1.761  0.1910 -0.2962 -0.3233
14405W        W31253   3.548  10.817   0.968 -0.1968 -0.0496 -0.1706
14406W        W31254  13.084  15.816   4.535  0.1836 -0.1557 -0.2480
14407W        W31255   3.854  15.153   4.957 -0.1415  0.1155  0.1714
14408W        W31256   0.089   2.879   3.140 -0.3419 -0.0668 -0.0406
14409W        W31257  16.483  11.625  14.210  0.0842  0.0447 -0.0888
14410W        W31258  17.638   2.621  12.381  0.0665 -0.2712 -0.4276
14411W        W31259   0.571   2.809   1.047 -0.1150 -0.0494  0.1845
14412W        W31260  10.860  12.175  15.476  0.0562 -0.2936  0.1268
14413W        W31261  13.775   9.841  13.863 -0.4286 -0.1214 -0.0972
14414W        W31262   3.757  12.696   4.401  0.0805  0.3189 -0.0342
14415W        W31263  11.970  17.225  11.771 -0.2133 -0.0287  0.1430
14416W        W31264  10.573  16.673   3.559  0.1095 -0.2698 -0.1359
14417W        W31265  16.055   1.782  14.462 -0.0472 -0.1711 -0.0627
14418W        W31266   7.140   0.382  12.679 -0.1713 -0.0911  0.0449
14419W        W31267  12.389  14.064  12.268  0.1855  0.2616  0.1043
14420W        W31268   2.175   4.462  12.279  0.3000 -0.4571 -0.1099
14421W        W31269  10.193   9.183   4.777 -0.5402 -0.0984 -0.2312
14422W        W31270  16.778   0.214   1.747  0.0952  0.0753  0.1953
14423W        W31271   2.534  16.014   2.685  0.3623 -0.3058  0.0700
14424W        W31272   1.625  12.840   1.466  0.0735 -0.0982  0.1127
14425W        W31273   8.657   0.117   5.188 -0.0744 -0.0743 -0.1700
14426W        W31274  11.505   5.755  15.157 -0.1281 -0.0165  0.0891
14427W        W31275   5.598  14.655  12.460  0.0231 -0.1858  0.2982
14428W        W31276  10.196   7.680  13.631  0.0205  0.1822 -0.1368
14429W        W31277   8.283   6.836   1.850 -0.1413 -0.0739 -0.3070
14430W        W31278  11.002   9.055   3.989 -0.0115 -0.1362  0.1671
14431W        W31279   4.721  17.359  12.451 -0.0837 -0.1621 -0.0189
14432W        W31280  10.693  10.499   5.318  0.3649 -0.0873  0.0973
14433W        W31281  15.592   6.241   4.871  0.0434 -0.1299  0.0515
14434W        W31282  13.095  12.214   2.013  0.1592 -0.0263  0.2602
14435W        W31283  16.757  14.627   3.386  0.1535  0.2519 -0.2543
14436W        W31284   9.525  10.333   3.542 -0.3796 -0.0628 -0.1031
14437W        W31285   5.365   4.118   5.143  0.1104 -0.0253 -0.1647
14438W        W31286  13.535  13.853   2.422 -0.0588  0.0335  0.0840
14439W        W31287   9.324   0.541  13.017 -0.0017 -0.0527  0.0841
14440W        W31288  12.540  17.667   3.492  0.2038 -0.0666 -0.0566
14441W        W31289   3.312   9.466   4.917 -0.0296  0.1195  0.1706
14442W        W31290   1.931   9.899   4.074 -0.0999 -0.3473 -0.2488
14443W        W31291   5.974   5.980   5.412  0.1096 -0.1750 -0.2570
14444W        W31292  15.437   5.886   4.440 -0.2334 -0.0305  0.2090
14445W        W31293   1.319  10.318   4.599  0.1308 -0.3789 -0.0498
14446W        W31294  17.682   4.565  15.435 -0.0262  0.0661  0.3800
14447W        W31295   1.445  11.719   4.943  0.2880 -0.3663  0.1429
14448W        W31296  12.615  11.277  15.993  0.0347 -0.1623 -0.4207
14449W        W31297   5.471  14.053   3.781  0.1437 -0.0319 -0.0917
14450W        W31298  14.648  15.094  15.547  0.2708  0.0336  0.1405
14451W        W31299   4.534   9.402  11.928 -0.1062  0.0238 -0.1746
14452W        W31300   9.914   8.145   1.869  0.2723  0.1345  0.0932
14453W        W31301  14.230   1.851   2.089  0.0073  0.0817 -0.0583
14454W        W31302   5.797  14.464  16.308  0.0064  0.0452 -0.1031
14455W        W31303   8.752   6.619  16.459  0.1684 -0.1215  0.2340
14456W        W31304   8.903   7.708   5.165 -0.2239 -0.1110 -0.1738
14457W        W31305   1.180   0.369  12.471 -0.1996 -0.1370 -0.0258
14458W        W31306   0.880  14.030  16.042  0.1745 -0.1438 -0.0538
14459W        W31307   2.132   3.603   3.463  0.2155 -0.4279 -0.2059
14460W        W31308   1.653   4.521   1.940 -0.0623  0.0399  0.0316
14461W        W31309   3.996  14.087   4.724 -0.0030  0.3052 -0.3020
14462W        W31310   7.594  12.582  14.333  0.1136  0.1542  0.1125
14463W        W31311   1.365   5.531   1.646  0.0646  0.0755 -0.0913
14464W        W31312   6.851  15.078   4.675  0.1133  0.2382 -0.1326
14465W        W31313  17.094   8.040  16.192  0.3680  0.1952  0.1002
14466W        W31314   0.940  16.797   0.896 -0.1311  0.0121 -0.0256
14467W        W31315  13.412   0.465  14.766  0.0703  0.0200 -0.1296
14468W        W31316   4.612   7.477  13.823  0.2676  0.1026  0.4912
14469W        W31317   6.407   5.738   3.534  0.1938  0.0999 -0.1969
14470W        W31318  14.442   5.448  14.586  0.0195 -0.0863  0.0888
14471W        W31319   7.034   3.940  16.385  0.3393  0.1872 -0.0969
14472W        W31320   8.937  16.227   1.859 -0.1443 -0.2716  0.1128
14473W        W31321  12.665  14.041   2.796 -0.1125  0.3003  0.0036
14474W        W31322   1.790  14.693   3.267  0.1507  0.1951  0.3406
14475W        W31323   6.420  12.746  13.603 -0.2230 -0.0725 -0.1833
14476W        W31324  10.833  15.464   2.282 -0.3942  0.1211  0.0329
14477W        W31325  10.568   5.844   0.826  0.1056 -0.0336  0.0210
14478W        W31326  13.980  10.266  11.658 -0.0361  0.0480  0.3278
14479W        W31327   6.093   3.813   3.792 -0.0344 -0.0385  0.0098
14480W        W31328   2.754  16.752   4.811 -0.2575 -0.0177 -0.0365
14481W        W31329   6.584  14.929  14.613 -0.0884  0.0998 -0.1086
14482W        W31330   4.732  16.412   1.757  0.3231  0.0712  0.2480
14483W        W31331  15.292   5.903  12.088  0.1401  0.1804  0.0826
14484W        W31332   1.176  11.224   4.482 -0.1147 -0.1283 -0.0829
14485W        W31333   8.763  13.150  12.725  0.2030  0.0082 -0.1082
14486W        W31334   5.931  15.708   0.746 -0.0915  0.1799 -0.1953
14487W        W31335   0.093   7.364  14.807  0.1563  0.0181 -0.0878
14488W        W31336  11.166   5.673  12.436 -0.0975  0.2371 -0.0008
14489W        W31337   7.268   1.142   2.314  0.0413  0.0249  0.2243
14490W        W31338  14.888   1.095   2.666 -0.0922  0.1156  0.0732
14491W        W31339  12.548  16.038  11.501  0.0507 -0.4526  0.0262
14492W        W31340   4.120  11.464  14.564 -0.1075  0.2068  0.0426
14493W        W31341  10.794  11.054   4.427  0.2419 -0.0995 -0.1057
14494W        W31342  10.848   8.625   1.987 -0.0276 -0.0614 -0.0065
14495W        W31343   9.195  13.838  14.259 -0.0536  0.0198  0.2470
14496W        W31344  16.295  16.482  13.759 -0.0670  0.0351 -0.0091
14497W        W31345  17.633  10.945  16.650  0.0868 -0.0801  0.3860
14498W        W31346  15.733  14.699  14.105 -0.1511  0.2884  0.1178
14499W        W31347   1.548   8.075   5.405 -0.0012  0.1271  0.0935
14500W        W31348   2.593   1.571  15.712 -0.0407  0.2518 -0.2253
14501W        W31349  12.292   3.805  11.572  0.1092 -0.3451  0.2940
14502W        W31350   5.520  15.572  14.911 -0.0377 -0.1050  0.0676
14503W        W31351  10.476   2.222  12.391 -0.2219  0.1557 -0.0592
14504W        W31352   6.443   1.483  13.511 -0.0635 -0.0899  0.1649
14505W        W31353   1.000   1.087   1.518 -0.3972 -0.0699 -0.2979
14506W        W31354  17.059   2.026   1.228 -0.0054  0.0849  0.0816
14507W        W31355  14.460   0.953  13.129 -0.0008 -0.1163  0.2147
14508W        W31356   9.589  15.260   4.380 -0.0644 -0.3938  0.1077
14509W        W31357   5.177   4.913   1.524 -0.2118 -0.4348 -0.0744
14510W        W31358  17.491  12.493  11.145 -0.1396  0.1016 -0.1365
14511W        W31359  12.047   3.699   5.205 -0.2306 -0.2490  0.0456
14512W        W31360   9.696   6.532  15.756  0.0995 -0.3254  0.2510
14513W        W31361   4.300   0.347   5.395 -0.3287 -0.0730 -0.1174
14514W        W31362   8.466  11.922   2.650  0.1567  0.1952 -0.4273
14515W        W31363  15.582  13.113   5.326  0.2474 -0.0204 -0.2585
14516W        W31364  13.858  16.948  16.285  0.0781  0.1798 -0.1482
14517W        W31365   0.739  17.641  14.104  0.3786  0.1547  0.3237
14518W        W31366   2.366  12.899  16.184  0.0528  0.1563  0.2009
14519W        W31367   9.457  11.100  11.923  0.0265 -0.2565 -0.0142
14520W        W31368   9.868   1.538   3.942  0.0548  0.1013  0.1400
14521W        W31369  14.585   8.781   0.107 -0.1121 -0.3911  0.2555
14522W        W31370   3.111   7.669   2.232  0.0213 -0.0659  0.2821
14523W        W31371   3.443   5.648   1.246 -0.0988 -0.0721 -0.1435
14524W        W31372   8.205  10.761   4.000  0.0701  0.0329  0.3348
14525W        W31373  12.111   4.207  16.129 -0.1469 -0.1826 -0.3360
14526W        W31374  14.689  12.862   4.420 -0.0949  0.0381 -0.0467
14527W        W31375   3.995   7.569   3.410  0.0085 -0.3713  0.0439
14528W        W31376  16.325   1.906   4.140 -0.2463 -0.4314  0.0339
14529W        W31377   6.024   9.405  14.981 -0.0594  0.1175  0.1537
14530W        W31378  11.995   9.310   1.274 -0.1411  0.0450  0.0342
14531W        W31379   2.972  13.833   2.291  0.1151 -0.1179  0.2816
14532W        W31380  11.906  14.063  15.567  0.0764 -0.0665 -0.1104
14533W        W31381  12.673  16.229  13.787  0.0381 -0.0953 -0.0052
14534W        W31382   5.970   7.812  13.846 -0.0941  0.0724 -0.5429
14535W        W31383   9.415   1.779   2.352 -0.2640 -0.1809 -0.0699
14536W        W31384   0.308   0.755   5.072  0.0224  0.0660 -0.0524
14537W        W31385   1.541   7.234  15.781  0.1948  0.0921  0.3782
14538W        W31386  11.691  13.566   3.026  0.1197  0.3947 -0.3697
14539W        W31387   0.132  15.078   4.058  0.0367  0.0415  0.3144
14540W        W31388   6.709   0.045  12.609 -0.1851  0.0777 -0.4241
14541W        W31389  12.644   2.309  14.015 -0.2020 -0.1053  0.0889
14542W        W31390  15.858  12.353   0.815 -0.2124 -0.0586  0.1268
14543W        W31391  13.014   7.635   0.009  0.0079  0.2976 -0.1256
14544W        W31392  10.281   5.885  15.914 -0.2666 -0.1660  0.2239
14545W        W31393   0.684  10.632  11.170  0.1632  0.1226 -0.2979
14546W        W31394  10.318   9.483  16.537 -0.0685 -0.0410  0.2056
14547W        W31395   2.144   1.230   3.459  0.1752  0.1114 -0.0429
14548W        W31396   8.161  12.583  14.349  0.0839  0.0553 -0.1024
14549W        W31397   2.955  14.931  12.071  0.1533 -0.0498 -0.1185
14550W        W31398   4.423   8.968   3.494 -0.3717  0.1595  0.0237
14551W        W31399   8.959  13.517  11.670 -0.3759  0.0235  0.0629
14552W        W31400   7.460  11.530   0.120 -0.1055 -0.0662  0.0845
14553W        W31401   2.827  15.040   3.110  0.3080  0.0318 -0.0626
14554W        W31402   5.315   0.530  11.527 -0.2223  0.0352 -0.0317
14555W        W31403   5.691  10.768   3.791 -0.0159  0.1047 -0.2955
14556W        W31404   2.911   3.940   3.736 -0.0527  0.3247  0.1112
14557W        W31405   6.386   4.315   5.083 -0.0371 -0.0894 -0.1654
14558W        W31406  16.340  13.853  12.028  0.1729  0.0155 -0.2766
14559W        W31407  12.526  13.367  15.547  0.2480  0.4609 -0.0145
14560W        W31408  13.629   2.342  16.566 -0.0863  0.2550 -0.2411
14561W        W31409  11.110   2.634   3.827  0.1900  0.0994  0.1362
14562W        W31410   3.128  10.504  11.659  0.3445  0.1245 -0.0758
14563W        W31411   7.797  15.770   2.117 -0.0274  0.0071  0.1687
14564W        W31412   0.346   2.099   2.639  0.0812  0.3859 -0.2310
14565W        W31413  13.994   5.930  14.791  0.0932  0.4280 -0.1537
14566W        W31414   2.372  11.625  13.272  0.1753  0.1753 -0.0801
14567W        W31415   3.386   3.789  14.831  0.1824 -0.1018 -0.0178
14568W        W31416  10.168  14.068  14.127  0.0582  0.3442 -0.2034
14569W        W31417   6.186   3.223   2.209  0.1764 -0.2627  0.0612
14570W        W31418   0.377   7.870   2.171 -0.1736 -0.0404 -0.1579
14571W        W31419   5.543   3.454   4.346 -0.3752 -0.1466 -0.4154
14572W        W31420   2.528   4.652  13.648  0.0958  0.3027 -0.0506
14573W        W31421  10.614   9.854   1.113 -0.2894  0.0538  0.0168
14574W        W31422   2.211   3.066   2.187 -0.2861  0.2014 -0.0410
14575W        W31423   7.099   9.009  14.473  0.1838  0.1249 -0.2913
14576W        W31424  13.496   1.528  14.871 -0.0090  0.1843 -0.1296
14577W        W31425  10.687  14.617  16.541 -0.2046  0.1823  0.0233
14578W        W31426   0.585   0.785   1.583  0.2911  0.3210  0.1014
14579W        W31427   4.958  11.181   0.760 -0.2452 -0.0077  0.1455
14580W        W31428  15.942   4.786  16.625 -0.1131 -0.1746 -0.0644
14581W        W31429  10.462   1.951  10.293 -0.2141  0.0442  0.0774
14582W        W31430   7.244   9.872   3.143  0.1396 -0.2478 -0.4183
14583W        W31431  16.953   2.304   4.769  0.0173  0.0757 -0.0195
14584W        W31432   5.127  17.618  13.590 -0.0200 -0.1122 -0.1353
14585W        W31433  17.423   1.444  14.089  0.0818  0.0468  0.0750
14586W        W31434   9.353   2.237  13.393 -0.1731  0.0666 -0.0798
14587W        W31435   1.562   5.319  16.342 -0.1941 -0.0449 -0.0970
14588W        W31436   2.646  12.402  11.649  0.0288  0.1094 -0.2978
14589W        W31437   2.240  11.875  12.853 -0.0430 -0.0134  0.1250
14590W        W31438  14.608   7.293   4.351  0.0195  0.0225 -0.1549
14591W        W31439  11.891  16.786   1.725  0.0937 -0.0113 -0.3064
14592W        W31440  15.632  10.887  16.422  0.1773 -0.0545 -0.1051
14593W        W31441   6.316   4.194   0.944  0.1314 -0.1108 -0.0186
14594W        W31442   9.936   2.372  12.544  0.2273  0.3128  0.2604
14595W        W31443  12.946   2.073   0.214 -0.0303 -0.3062 -0.3562
14596W        W31444   1.411  12.329   1.152  0.1296  0.1209 -0.2101
14597W        W31445   5.740   8.158  13.626  0.2123  0.1075 -0.1130
14598W        W31446  10.304  14.669   2.369 -0.1764  0.1338 -0.0269
14599W        W31447   5.064  15.271   1.711 -0.0484  0.0225  0.1827
14600W        W31448  17.137   4.145  14.180  0.0828  0.0149  0.0391
14601W        W31449  14.042  13.113  15.519 -0.1038 -0.3373  0.0604
14602W        W31450  12.350   9.057  13.746  0.2037 -0.0640  0.2547
14603W        W31451  13.090  16.419  16.654  0.0218 -0.1412 -0.1233
14604W        W31452   0.031  10.344  16.122  0.0916 -0.1710  0.4408
14605W        W31453   7.478  13.494  16.144  0.1552  0.1377 -0.3659
14606W        W31454   2.437   9.222  15.813 -0.0691  0.0001 -0.2192
14607W        W31455   4.765   8.107   0.832 -0.2341 -0.0919  0.2608
14608W        W31456  16.763   0.120  13.622 -0.1432 -0.0629  0.0396
14609W        W31457  11.905   6.954  10.549  0.0319 -0.2404  0.2466
14610W        W31458   5.949   2.656   3.697  0.0836 -0.0095 -0.1363
14611W        W31459  11.692  10.666   3.957  0.0138  0.0656 -0.0124
14612W        W31460  13.285   2.399   0.292  0.0743 -0.0233 -0.0055
14613W        W31461   6.664   2.584   1.876  0.0535 -0.1584 -0.0015
14614W        W31462   5.558   4.692   3.888 -0.0664  0.2265 -0.2573
14615W        W31463   8.366  10.640   2.946 -0.2627  0.2044 -0.3186
14616W        W31464  10.765   8.491   0.742  0.3116  0.0412 -0.0998
14617W        W31465   5.201   4.555  12.692 -0.0219  0.1193  0.1100
14618W        W31466   8.091   5.991  16.331 -0.0284 -0.3220  0.4124
14619W        W31467  16.560  17.526   5.468 -0.1094 -0.2787 -0.3001
14620W        W31468  16.872  17.324   5.821 -0.0332  0.2753 -0.0479
14621W        W31469   5.990   5.979   3.336  0.2403 -0.1880 -0.1836
14622W        W31470  10.326  11.525  16.074 -0.0768  0.0162 -0.1949
14623W        W31471   5.576  13.343  12.196 -0.2279 -0.1179  0.2600
14624W        W31472   7.129   0.495   4.852  0.3263  0.0755 -0.3596
14625W        W31473   2.668   3.290   0.764 -0.2058 -0.1740  0.0383
14626W        W31474   2.680   7.008  10.596  0.1873 -0.1892 -0.3033
14627W        W31475   2.955  13.801  14.863  0.2985  0.3275  0.3708
14628W        W31476  15.542  11.516   1.322  0.1959 -0.0917  0.1489
14629W        W31477  15.750   7.507   3.596  0.0204  0.1109 -0.0552
14630W        W31478  11.021  17.319  15.005  0.0956 -0.1396  0.2034
14631W        W31479  12.833  16.854  16.537 -0.3746  0.0340  0.0447
14632W        W31480   2.858   5.765  13.076  0.0284 -0.1239  0.0449
14633W        W31481  16.049   9.407   3.733 -0.0620 -0.2110 -0.1932
14634W        W31482  16.587   7.283  14.036  0.1265  0.1880  0.2282
14635W        W31483  17.636  12.981   4.228  0.1094  0.2167  0.0586
14636W        W31484  11.376   3.253   0.224  0.1720 -0.1915 -0.0338
14637W        W31485  16.675   1.954   4.511  0.2429  0.0115 -0.2342
14638W        W31486   7.436   5.436  14.419 -0.0983  0.3037 -0.0689
14639W        W31487   9.602   9.280  13.544 -0.2324  0.2384  0.1453
14640W        W31488  13.102   0.988   2.963  0.2518  0.3815  0.0421
14641W        W31489   4.922   3.213   1.399 -0.1311 -0.1683 -0.0923
14642W        W31490   8.756   1.600   3.042  0.1093 -0.1062 -0.0286
14643W        W31491  11.973  17.265   1.545  0.1224 -0.2123 -0.2152
14644W        W31492   3.520   4.127   5.397 -0.1282  0.1138  0.0250
14645W        W31493   3.378   9.479  15.303 -0.0731 -0.1464  0.3787
14646W        W31494  16.831   2.682   2.007 -0.1153 -0.0707  0.0690
14647W        W31495   8.379  11.491   5.680  0.1097  0.2663  0.0512
14648W        W31496   0.079   1.582   3.828 -0.0853 -0.0500 -0.0276
14649W        W31497  11.348   5.136   4.931  0.0680 -0.2520  0.1063
14650W        W31498  17.404   5.927   3.167  0.0487  0.1402  0.0105
14651W        W31499   5.600   0.055  15.102  0.1678 -0.0346  0.0553
14652W        W31500  10.913   9.330  11.544  0.0821 -0.3473 -0.0900
14653W        W31501   1.053   4.721  13.149 -0.1210 -0.2598  0.0723
14654W        W31502   4.745   3.266   2.391 -0.0950  0.0339 -0.0985
14655W        W31503   1.273   1.678  13.616 -0.0317 -0.0693  0.2064
14656W        W31504  14.177  13.339  14.979 -0.1901  0.0823 -0.0991
14657W        W31505   2.057   7.658   3.394  0.0898  0.2654 -0.1427
14658W        W31506  14.248  12.754   4.669 -0.0387 -0.4805  0.0851
14659W        W31507   4.915  12.169   4.537 -0.0839 -0.2919 -0.0462
14660W        W31508   4.237  17.351   2.664 -0.0102  0.1659 -0.0019
14661W        W31509  13.829   9.431   1.914  0.0331 -0.0586  0.2579
14662W        W31510   4.891  15.390  15.421 -0.0099  0.0611  0.2024
14663W        W31511   7.637  13.767   3.194  0.0953 -0.1103 -0.2931
14664W        W31512  10.910  11.945   4.833  0.1376 -0.0605  0.1165
14665W        W31513  17.339  17.495   2.247  0.2190  0.2138  0.0263
14666W        W31514  11.324   6.915   1.008  0.2037  0.0846  0.2045
14667W        W31515  11.904  11.851   1.192  0.1405  0.1027 -0.3683
14668W        W31516  15.272   8.060   5.129  0.1152 -0.2782  0.1836
14669W        W31517   0.273   3.099  16.124 -0.0840  0.1489 -0.0345
14670W        W31518  11.107   4.995   1.753 -0.0052 -0.2446  0.0627
14671W        W31519   5.514  11.286   5.575 -0.1141  0.1833  0.1469
14672W        W31520   9.811  15.879   2.246 -0.4241 -0.2651  0.4268
14673W        W31521   6.635   5.153  14.237 -0.1823 -0.0819 -0.2149
14674W        W31522   4.854  15.210   5.819 -0.1877  0.1313 -0.0911
14675W        W31523  10.576  11.032   6.124 -0.1728 -0.0144 -0.1108
14676W        W31524   6.704   0.862  14.350 -0.0674 -0.3026 -0.0301
14677W        W31525   2.181  14.325   2.977 -0.1783 -0.0701  0.3270
14678W        W31526   8.792   1.711   6.237  0.2909 -0.2886  0.1925
14679W        W31527   3.384  14.914  12.450  0.4380  0.2003 -0.2037
14680W        W31528  16.813  15.494  12.226 -0.0691  0.0914  0.0139
14681W        W31529  11.666  11.196   3.302  0.0138  0.0761 -0.3127
14682W        W31530   2.923   6.261  13.173  0.1359 -0.2060  0.1498
14683W        W31531   0.695   1.098  13.463 -0.2160 -0.1747 -0.1907
14684W        W31532   0.910  10.301   2.007 -0.0820 -0.0696 -0.0997
14685W        W31533   7.981  17.595  15.296  0.2029  0.0309 -0.0866
14686W        W31534   2.834   5.279  15.118  0.1328  0.0501 -0.1066
14687W        W31535   7.920   4.159   2.193  0.0278 -0.1202 -0.1849
14688W        W31536   1.956  13.373  12.920 -0.1370 -0.0340  0.0691
14689W        W31537   2.151  10.110  14.878  0.1064  0.2874  0.1576
14690W        W31538   9.864   9.945   2.405  0.0099  0.0763 -0.1941
14691W        W31539   4.345  13.947   1.011  0.2097 -0.2458  0.1006
14692W        W31540   1.016  15.920   2.218  0.0883  0.0657  0.2266
14693W        W31541  16.757   5.397   1.533 -0.1630 -0.0367  0.2295
14694W        W31542  13.593  16.135   1.277  0.0642 -0.1678 -0.0284
14695W        W31543  16.750   5.782  13.906 -0.2705  0.1794  0.1912
14696W        W31544   6.361   2.523   6.351  0.1294  0.1203 -0.2092
14697W        W31545   1.805  10.272  10.257  0.1483 -0.3127  0.1131
14698W        W31546   9.655   3.793   4.310 -0.0671  0.0135 -0.2074
14699W        W31547   7.237   6.050   3.603  0.0110 -0.0038  0.0402
14700W        W31548   2.851  15.060  15.437 -0.1585 -0.1068 -0.1175
14701W        W31549  12.920   8.250   2.959 -0.1154  0.1115  0.2181
14702W        W31550   3.634  13.825   3.070 -0.0508 -0.0223  0.0912
14703W        W31551   7.497   5.034   2.108  0.0019 -0.2391 -0.1647
14704W        W31552   1.261  15.696  12.387  0.0575  0.1105  0.0113
14705W        W31553   3.972   5.787  14.465  0.0779  0.0054  0.0833
14706W        W31554  13.517  11.535   1.685  0.0109  0.0818  0.0597
14707W        W31555   8.551  13.977   1.724  0.1106 -0.2606 -0.0612
14708W        W31556   6.483  17.655   3.289  0.1560  0.1086 -0.1497
14709W        W31557   6.679   4.061   2.665 -0.1162  0.0710  0.0684
14710W        W31558   2.454   0.665  15.577  0.1555 -0.2391  0.3015
14711W        W31559  13.574   1.531  15.358  0.3641  0.0192  0.1793
14712W        W31560   5.961   2.989   5.395  0.0169 -0.2670 -0.4072
14713W        W31561  10.370  17.222   3.350 -0.0847  0.1503  0.1418
14714W        W31562  11.047   6.160  11.105  0.1311  0.0253 -0.2336
14715W        W31563  15.033  16.148  14.887  0.0122 -0.2718 -0.1305
14716W        W31564   9.259  14.250   3.101  0.2665 -0.2468  0.0424
14717W        W31565   6.657   5.984   0.012  0.1235  0.1217  0.1251
14718W        W31566   6.454  15.333   4.440 -0.0297 -0.1310 -0.0245
14719W        W31567  10.181   9.809  13.954 -0.1741  0.2525  0.0353
14720W        W31568   7.067   1.698  12.524 -0.1034 -0.0168  0.0353
14721W        W31569  15.231  13.348  12.208 -0.2506 -0.1771 -0.0897
14722W        W31570   8.120   0.015   4.034 -0.0030 -0.1343  0.1631
14723W        W31571   5.705   7.167  15.223  0.1560 -0.1702  0.1255
14724W        W31572   1.558   8.921   3.971  0.0506  0.0571 -0.0288
14725W        W31573   2.489   9.666  12.590 -0.1861  0.2875 -0.1316
14726W        W31574   4.153   4.461  13.965  0.2086 -0.3429  0.1564
14727W        W31575  16.536   3.552   4.388 -0.2753 -0.1532  0.2468
14728W        W31576   4.251  16.918   3.074  0.0750  0.2453  0.1569
14729W        W31577   9.250  15.110  11.671 -0.1042  0.2610  0.0147
14730W        W31578   0.553   6.679   3.339 -0.1958  0.2987  0.3297
14731W        W31579  10.362   7.654   0.459 -0.5896 -0.0786 -0.2842
14732W        W31580  17.283   9.183   1.842 -0.0377  0.0420  0.0398
14733W        W31581   6.265   5.551  12.322 -0.1011  0.2765  0.2209
14734W        W31582  11.121   2.503  15.299 -0.2824  0.0882 -0.0023
14735W        W31583  12.461   3.469   2.278  0.0697  0.1682  0.1100
14736W        W31584   2.073   2.259  16.209 -0.2014 -0.1439  0.0104
14737W        W31585   3.655  14.613   0.094 -0.1853  0.1385  0.1812
14738W        W31586   7.341   3.407   2.493 -0.0907  0.0344  0.1929
14739W        W31587  10.708  17.102  12.162  0.0121 -0.0450 -0.1885
14740W        W31588   8.350  11.582   3.728 -0.2063  0.0170 -0.1694
14741W        W31589  11.878   5.732   3.239  0.0382  0.1704 -0.2165
14742W        W31590  15.796  16.267  14.870  0.0756 -0.1750 -0.0265
14743W        W31591   2.759   2.131  12.078 -0.2830  0.1809 -0.2561
14744W        W31592  17.240   2.289   0.304  0.2818 -0.0826  0.0123
14745W        W31593   6.305  11.672  16.605 -0.1432  0.3752 -0.2680
14746W        W31594   1.664  14.002  11.559  0.3084 -0.0827 -0.1430
14747W        W31595  16.225   3.119   3.135  0.1476  0.4948  0.1145
14748W        W31596   6.909  12.106   1.551  0.1167 -0.0148  0.0614
14749W        W31597   5.349   6.067   1.648 -0.0480  0.0408  0.0339
14750W        W31598  16.128   5.588  15.266  0.0051  0.0734  0.0034
14751W        W31599  12.262   7.313   3.752 -0.1163 -0.0610 -0.2609
14752W        W31600   6.400   8.464   1.116 -0.2150 -0.0050 -0.0537
14753W        W31601  11.435  16.712   4.943 -0.2062  0.3788 -0.1183
14754W        W31602  16.326  14.912  13.313 -0.2847  0.0314  0.2290
14755W        W31603   5.416   7.009  12.222  0.0021 -0.0194 -0.0475
14756W        W31604   5.781  14.215   4.846  0.0383 -0.0523 -0.1238
14757W        W31605   5.051  15.958   4.064  0.1264 -0.2602 -0.1850
14758W        W31606  11.565   0.598   5.043 -0.0450  0.2619  0.0269
14759W        W31607   3.981   9.079  16.374 -0.0795 -0.1036  0.0636
14760W        W31608  13.147  12.806   3.186  0.0942 -0.0889  0.0345
14761W        W31609  11.987  11.992   3.487  0.0305 -0.0154 -0.1277
14762W        W31610  15.812   5.039   2.396 -0.2517  0.1277  0.0302
14763W        W31611  12.596   9.046  11.738 -0.0098 -0.3819  0.0538
14764W        W31612  11.453   7.813  15.299  0.0142 -0.0726  0.0107
14765W        W31613   0.597   1.289  12.967 -0.0406  0.0249  0.3043
14766W        W31614   0.471   8.843  15.486 -0.1277 -0.2376  0.2587
14767W        W31615  13.879  15.465  12.585 -0.0871 -0.0188  0.0240
14768W        W31616   2.893  15.483  16.382  0.2525  0.3168  0.2239
14769W        W31617   1.139  13.058   3.362  0.2199  0.0698  0.0623
14770W        W31618   9.035  13.557  13.415  0.0572 -0.0658 -0.0062
14771W        W31619   1.808   5.027  16.673  0.0345  0.0115 -0.3510
14772W        W31620  16.798  10.389   1.349  0.2215 -0.1982 -0.0786
14773W        W31621  10.075  16.815  15.257 -0.3993 -0.1608  0.0036
14774W        W31622  14.136   0.062   1.509 -0.0936 -0.0039  0.0666
14775W        W31623   1.777  14.234   1.712 -0.0108  0.2229  0.1767
14776W        W31624   6.632  13.421  11.400 -0.2142  0.2831 -0.3083
14777W        W31625  14.295  15.907   4.042 -0.0140  0.0229  0.3565
14778W        W31626   4.242   4.591   0.660  0.3734 -0.1468 -0.1249
14779W        W31627  14.386  17.551   0.626  0.0187 -0.0485  0.2474
14780W        W31628   1.865  15.385   1.610 -0.0108  0.0158 -0.1806
14781W        W31629   7.671   7.338   3.942 -0.0785 -0.1853  0.2388
14782W        W31630  10.673  15.704   4.839  0.0997 -0.1653 -0.3851
14783W        W31631   1.672   9.451   3.632  0.1141 -0.3823  0.0834
14784W        W31632   8.278  17.247  11.427 -0.3933 -0.5247 -0.0573
14785W        W31633  17.542  12.354   3.647 -0.2882  0.0230 -0.0147
14786W        W31634   6.819  10.775  12.320 -0.2781 -0.2668 -0.2351
14787W        W31635   5.750   2.246  12.748  0.1323 -0.0051 -0.0797
14788W        W31636  11.994  14.891  11.939 -0.2951  0.0206  0.1170
14789W        W31637  10.463   7.820  12.634  0.0851  0.3671  0.0518
14790W        W31638   5.408   9.530  13.880 -0.0182  0.1999  0.0402
14791W        W31639  17.523  12.638   3.221 -0.1949  0.2191  0.0629
14792W        W31640   0.917   6.259  15.988 -0.1800 -0.2007 -0.0376
14793W        W31641   4.920   7.276   1.907  0.0630 -0.2362 -0.2071
14794W        W31642  15.562   8.642   3.874 -0.0815 -0.1661 -0.0271
14795W        W31643   7.097   9.758  15.752  0.3434  0.2172  0.1246
14796W        W31644  10.690   2.052   5.557 -0.2743 -0.1503  0.0869
14797W        W31645   7.852   5.819   1.825 -0.1851 -0.2317  0.0279
14798W        W31646   1.849   5.471  14.921 -0.0318  0.0777 -0.0873
14799W        W31647   9.204  16.726   0.532  0.1091 -0.0925  0.2274
14800W        W31648   4.404   5.566   4.810 -0.0241 -0.0907  0.0473
14801W        W31649   2.212   1.479   1.395  0.1215 -0.0354 -0.2696
14802W        W31650  10.218  10.580   5.424  0.1813  0.0471 -0.2687
14803W        W31651  10.259   6.651  11.580 -0.0616  0.0729  0.0897
14804W        W31652   1.275   9.475   4.055 -0.3853  0.0518  0.3211
14805W        W31653   3.753  15.617   2.788  0.1873 -0.1908 -0.2339
14806W        W31654  11.233  13.294   5.349 -0.0680 -0.0756  0.0779
14807W        W31655   4.789  13.725   0.932 -0.0945 -0.0464 -0.0895
14808W        W31656   2.175  12.138  14.621 -0.1033  0.0753 -0.2450
14809W        W31657  11.989   7.523  13.629  0.2416 -0.1101  0.1173
14810W        W31658  13.875   5.713  15.246  0.0153  0.0992 -0.0943
14811W        W31659   3.243  13.853   3.994  0.0063  0.2295 -0.0233
14812W        W31660  12.952  10.815  13.313 -0.1034  0.3128  0.1555
14813W        W31661  17.594   4.377   0.725 -0.3961  0.2481 -0.1165
14814W        W31662  10.162  13.441   1.889  0.2565 -0.0267 -0.0289
14815W        W31663   9.828   5.653  10.600 -0.3316 -0.0100 -0.2410
14816W        W31664   3.873  16.557  14.387  0.1668  0.1275  0.3159
14817W        W31665   3.801  12.269   3.167 -0.2339  0.2239 -0.0933
14818W        W31666  15.413   0.025   3.017  0.2078 -0.0506  0.1273
14819W        W31667   1.057   8.099   2.323  0.0173 -0.0373 -0.1760
14820W        W31668   4.668   8.165  15.427 -0.1281 -0.0804  0.0156
14821W        W31669   0.425   4.274  11.303  0.0476 -0.1741  0.0634
14822W        W31670  16.868   0.270   2.263  0.1363  0.1912 -0.0603
14823W        W31671   4.535   1.898   4.685  0.0121 -0.0679  0.1039
14824W        W31672   0.498   7.268  11.611  0.0239  0.1100  0.0270
14825W        W31673   6.625  14.248   3.069  0.0327  0.1064 -0.2641
14826W        W31674  15.804  15.098   5.244 -0.1003  0.0762  0.0077
14827W        W31675  16.479  14.187   2.614 -0.0647 -0.1654  0.1500
14828W        W31676   0.735  16.418  11.461 -0.0339  0.1116  0.0918
14829W        W31677  17.083   7.436   5.323  0.2437  0.0453  0.0114
14830W        W31678   2.943   1.332  14.197  0.2833  0.0594  0.2434
14831W        W31679  16.171   4.359   0.206 -0.2798  0.1052  0.1159
14832W        W31680   6.302  11.942   3.235 -0.2367 -0.4445 -0.0843
14833W        W31681   6.018   2.846   0.678 -0.3760  0.1972  0.1074
14834W        W31682   7.958   9.673  12.847 -0.3299 -0.2634 -0.1615
14835W        W31683   8.697   2.561   3.912 -0.1068 -0.0905 -0.1026
14836W        W31684   2.519   3.510   4.157  0.2073 -0.1020  0.1583
14837W        W31685   8.757   5.881  14.174  0.1071  0.3372 -0.0130
14838W        W31686   5.225   8.434   4.099  0.0146  0.1320  0.0813
14839W        W31687  16.118   0.451  14.588  0.0460 -0.0309 -0.1476
14840W        W31688   3.131  11.458   2.424 -0.2805 -0.1869 -0.3452
14841W        W31689  16.830  14.748  14.947 -0.0013  0.1573  0.0249
14842W        W31690   0.557   0.540   0.744 -0.1416 -0.2093  0.2102
14843W        W31691  10.063   1.314  15.252 -0.0701 -0.2730  0.3227
14844W        W31692   0.547   3.840   2.162 -0.2048  0.0726 -0.1744
14845W        W31693   3.149   6.306  16.081 -0.0742 -0.2370 -0.0836
14846W        W31694  10.548  11.640  12.936  0.2627 -0.0733 -0.3375
14847W        W31695  15.457  10.826   4.749 -0.1486  0.0533 -0.0775
14848W        W31696   8.618   1.043  11.945  0.1974  0.2064  0.0922
14849W        W31697   8.293   5.321  14.947  0.1071  0.2504 -0.0217
14850W        W31698   0.767  16.314   1.753 -0.0989  0.0331  0.0142
14851W        W31699  15.407   1.157   4.521  0.1594  0.1068  0.2173
14852W        W31700  11.204   6.442   1.083  0.1092 -0.0607 -0.1438
14853W        W31701   1.949  12.093   1.201 -0.1542 -0.1158  0.0601
14854W        W31702  12.327  13.672   1.844 -0.0101  0.0354  0.0755
14855W        W31703  10.035   5.822   3.674  0.0938  0.2269 -0.3968
14856W        W31704  14.464  12.306  15.692  0.0915  0.0910  0.0947
14857W        W31705   6.464  16.803   0.788 -0.1005 -0.0353 -0.0206
14858W        W31706   9.911   6.571  13.793 -0.2792 -0.0285 -0.1935
14859W        W31707   3.041   0.876   0.231 -0.0938  0.2513  0.0945
14860W        W31708  16.141  14.143   3.906  0.0798  0.1135 -0.2201
14861W        W31709   6.930   4.043   4.028 -0.1296 -0.0528  0.0790
14862W        W31710  15.693  15.697   5.071  0.1488  0.2186  0.0722
14863W        W31711   4.530   0.325  13.620  0.1887 -0.2199  0.1262
14864W        W31712  10.723   2.436   5.199  0.2217 -0.2742 -0.0067
14865W        W31713   6.458  11.890  15.934 -0.0936  0.1330  0.0885
14866W        W31714  15.025  14.593  13.087  0.3382 -0.1498  0.2945
14867W        W31715  12.549  14.939  14.854  0.0044  0.0264  0.0574
14868W        W31716   5.715   6.932   5.931  0.0825  0.2414 -0.3784
14869W        W31717   5.401  14.504   3.728  0.0523 -0.4205  0.1861
14870W        W31718   3.011  10.830   3.252 -0.1887  0.0822 -0.1340
14871W        W31719  17.526  15.243   5.092  0.0975  0.0546  0.0057
14872W        W31720   4.407   8.583   0.863 -0.0007  0.0484  0.2972
14873W        W31721   6.412   3.317  11.925  0.0207 -0.3145  0.0839
14874W        W31722  12.963  17.235  11.447  0.0419  0.1385  0.0452
14875W        W31723   8.519   7.829   2.675 -0.1945  0.0327 -0.0799
14876W        W31724  11.282   5.252   2.492  0.2754 -0.0784 -0.1453
14877W        W31725  14.940  14.723  15.862  0.0824 -0.0165  0.1659
14878W        W31726   0.665  10.101   1.592  0.4345 -0.0955 -0.1227
14879W        W31727  11.058   4.816  14.111 -0.5336 -0.2170 -0.1841
14880W        W31728  17.211   5.946   5.628 -0.1552  0.0110 -0.1658
14881W        W31729   1.331   4.650  14.996  0.2147  0.0307 -0.2198
14882W        W31730  11.249  14.199   2.108 -0.0060 -0.1586 -0.0583
14883W        W31731  14.819  17.695   0.932 -0.2286  0.1518 -0.3411
14884W        W31732  11.255   0.203  13.322  0.2416  0.3392  0.2704
14885W        W31733   4.723   3.648   3.007  0.0492 -0.0185  0.1292
14886W        W31734   7.345   6.408   0.808  0.4848 -0.2242  0.0616
14887W        W31735  13.688   7.622  14.197 -0.1353  0.1661 -0.3198
14888W        W31736   3.440  16.708  12.092 -0.1290 -0.2410  0.0373
14889W        W31737   7.301   1.292   1.763 -0.1814 -0.2625  0.0896
14890W        W31738  16.223  14.632  14.069 -0.3434  0.0392  0.0968
14891W        W31739   4.113   6.130   4.833 -0.1742  0.0829  0.1280
14892W        W31740  15.362   0.113   1.616 -0.4163  0.1560 -0.1364
14893W        W31741   0.862   7.494   3.185 -0.1688  0.3336  0.1724
14894W        W31742   6.965   5.077  12.502  0.1470  0.0550 -0.0667
14895W        W31743   0.732   3.299   4.142 -0.0049 -0.0107  0.1520
14896W        W31744   7.981   0.094   1.928 -0.0742 -0.1673  0.0738
14897W        W31745  13.792   7.270   1.944  0.0930  0.1836 -0.0930
14898W        W31746   5.884  12.946  16.307 -0.0638  0.2852  0.0568
14899W        W31747   8.130   9.714  13.919  0.1518 -0.1643  0.0262
14900W        W31748   0.078  12.851   0.758 -0.2111  0.0970 -0.0789
14901W        W31749  15.626   6.437  14.878 -0.2842  0.1740 -0.3332
14902W        W31750  10.989   3.025  16.630  0.2040  0.2532 -0.4451
14903W        W31751   9.186  13.490  14.592 -0.0112  0.3170  0.2725
14904W        W31752   3.533  16.958  16.566 -0.1065 -0.0153  0.0743
14905W        W31753   5.660   1.729   1.506  0.2981  0.3384 -0.1577
14906W        W31754   7.186  14.342   1.414  0.1195  0.0313  0.2520
14907W        W31755   2.348   3.381   4.874  0.0340 -0.2222 -0.2126
14908W        W31756   4.942  11.190  12.845 -0.2067 -0.2386 -0.2325
14909W        W31757  16.039  15.464   1.314 -0.2371 -0.0684 -0.1014
14910W        W31758   0.702  15.929   2.642 -0.0775 -0.0129 -0.2349
14911W        W31759   8.564  11.104   0.305 -0.1045 -0.2265  0.1563
14912W        W31760  13.896   8.094   1.725 -0.1257 -0.2331 -0.3144
14913W        W31761  15.219  17.527   3.838 -0.0410 -0.1017  0.1631
14914W        W31762   2.482   3.995   5.240  0.1573 -0.1324  0.1140
14915W        W31763  11.593  14.453   4.692 -0.0627  0.0687  0.0831
14916W        W31764  13.132   4.391  14.031  0.4688 -0.2546  0.0729
14917W        W31765  16.363  11.066  12.891  0.1387  0.0039  0.3254
14918W        W31766  16.793   4.958  14.448 -0.2156  0.0699  0.0982
14919W        W31767   6.232   8.081  15.545 -0.0863  0.1903 -0.3692
14920W        W31768   4.365  10.548   3.371 -0.0963 -0.4277 -0.0003
14921W        W31769   9.454   0.204   1.774  0.4626 -0.2055  0.1484
14922W        W31770  12.619   3.447  15.137 -0.0333 -0.1907 -0.0430
14923W        W31771   7.168  10.575  15.073  0.2304  0.3759 -0.2143
14924W        W31772  15.504   4.669   3.633 -0.0513 -0.0388  0.0356
14925W        W31773   8.447   5.885  14.963  0.1465  0.0595  0.0640
14926W        W31774  10.356  17.562   0.718 -0.2309 -0.2551 -0.3516
14927W        W31775  15.899   1.223   4.449  0.0132 -0.0587 -0.0872
14928W        W31776   4.344  14.758  16.059 -0.0105 -0.3701  0.0852
14929W        W31777   8.104   9.549   0.437  0.2255 -0.3688 -0.2645
14930W        W31778   3.031   7.173   3.060 -0.0382 -0.0628  0.1855
14931W        W31779  17.237  10.249  12.181  0.0024  0.0681  0.0294
14932W        W31780  12.009   2.930   0.942 -0.1460  0.0588 -0.0715
14933W        W31781  16.660   0.554  12.951  0.1287  0.0320 -0.0814
14934W        W31782  10.566   9.681  11.449 -0.2486 -0.0619 -0.0678
14935W        W31783  17.655   4.627  12.120  0.0843  0.3122  0.0922
14936W        W31784  13.099   6.188  13.546 -0.2820  0.0382 -0.3248
14937W        W31785   1.726   6.211  16.128 -0.0916  0.0625 -0.1536
14938W        W31786  17.090   9.108  13.059  0.1180 -0.0940 -0.1041
14939W        W31787   7.750   5.645  16.391 -0.0987 -0.0423  0.2349
14940W        W31788  15.812  10.262   4.126 -0.1867  0.0669 -0.2222
14941W        W31789  11.436   2.702  14.998  0.1119 -0.1933  0.1198
14942W        W31790   7.162  16.323   4.888  0.0604 -0.0604 -0.0892
14943W        W31791  11.604  11.410   0.932  0.0159 -0.0055  0.1349
14944W        W31792  11.379   6.500  14.618  0.1772  0.0786  0.1722
14945W        W31793  11.560  15.111  15.640 -0.1713  0.0306 -0.0528
14946W        W31794   0.769   1.028  14.390 -0.0573  0.2312 -0.0670
14947W        W31795   2.350   3.480   2.485 -0.0091 -0.0993  0.0732
14948W        W31796   3.126  12.830   2.770  0.0871  0.0700  0.2449
14949W        W31797   7.917  13.814  15.012  0.1451  0.2160  0.0819
14950W        W31798  11.510   0.828   2.083  0.1557 -0.1197  0.2005
14951W        W31799   8.962   9.899  15.666 -0.0774  0.0152  0.2780
14952W        W31800   7.932  15.428   5.928 -0.0145 -0.4952 -0.0752
14953W        W31801   1.627   6.131  14.181 -0.2522 -0.2499 -0.2110
14954W        W31802  12.637  17.298   4.466 -0.3594  0.1195  0.3353
14955W        W31803  11.208  10.150   4.224  0.0117  0.1935 -0.2077
14956W        W31804  12.171   3.798  15.025 -0.0572  0.1093  0.3149
14957W        W31805   2.800   4.399   3.990 -0.1978 -0.1249  0.2852
14958W        W31806   6.226  11.549   1.030 -0.1609  0.0069 -0.3621
14959W        W31807   1.907   8.736  16.447  0.1227 -0.1601 -0.1214
14960W        W31808  12.185   8.742   3.400 -0.0908 -0.3994 -0.0690
14961W        W31809  10.392  17.657  14.546 -0.0450  0.1448 -0.2662
14962W        W31810   2.244   3.578   1.530 -0.1145  0.2280 -0.1251
14963W        W31811   9.300   8.597   2.324  0.0200  0.1557 -0.0976
14964W        W31812   5.933  13.731  16.350  0.0353 -0.1905  0.1723
14965W        W31813  14.745  14.916  13.333 -0.1595  0.3621  0.1912
14966W        W31814   0.740   2.499  16.308  0.0079  0.0355 -0.0457
14967W        W31815   8.731   7.412   3.118  0.2171 -0.0053  0.0898
14968W        W31816  14.298   3.003   3.861 -0.2053 -0.0551 -0.0663
14969W        W31817   6.337  14.293   3.591  0.1363 -0.0975  0.2476
14970W        W31818  10.706   7.356   4.613  0.1501  0.2048  0.0065
14971W        W31819   5.975  13.081   0.528  0.1222  0.0740  0.2317
14972W        W31820  13.801  10.574  14.565  0.2506 -0.0091 -0.2036
14973W        W31821   0.277  14.562  16.537 -0.2225  0.0516 -0.2109
14974W        W31822   2.178   9.722   3.203  0.0893 -0.2652 -0.1636
14975W        W31823  17.322   5.561  15.623  0.3438 -0.0799  0.1366
14976W        W31824  16.244  11.282   4.813 -0.4416 -0.4970 -0.0600
14977W        W31825   1.369   9.856  10.846 -0.3828 -0.1252 -0.0724
14978W        W31826  12.186  12.186   2.002  0.1209 -0.1575  0.1693
14979W        W31827   6.889   0.656  15.504 -0.0630  0.1625  0.1823
14980W        W31828  11.896  16.512  15.463 -0.1973  0.0399 -0.1498
14981W        W31829  15.043   1.420  14.373 -0.2102 -0.0111  0.0768
14982W        W31830  13.514   9.144   0.103  0.2266  0.0234  0.1658
14983W        W31831  17.269   5.803   4.583 -0.0997 -0.1665  0.1523
14984W        W31832   1.282  16.156   4.991 -0.0970  0.0027 -0.1764
14985W        W31833   1.809   0.009  16.037 -0.0547  0.0378  0.0124
14986W        W31834  11.940   5.071   1.953 -0.0857 -0.0581  0.1096
14987W        W31835  16.827   4.143   6.181 -0.0128 -0.1577 -0.3340
14988W        W31836  13.726   0.324   3.313  0.2285  0.3205 -0.1387
14989W        W31837  15.862  12.915  14.645  0.3011 -0.0137 -0.1422
14990W        W31838  15.028   3.123  14.628 -0.2755  0.1671 -0.1941
14991W        W31839  12.298   1.382   5.270 -0.2577  0.0142  0.2181
14992W        W31840   6.695  10.010   4.197  0.2086 -0.0915  0.4913
14993W        W31841  10.362   1.257   2.289  0.0215  0.0321 -0.1349
14994W        W31842   5.608  11.443   2.872 -0.1640  0.1630 -0.0425
14995W        W31843   9.118   2.242  16.536  0.1004  0.0801  0.3293
14996W        W31844   0.809   7.568   3.999 -0.0953 -0.2509 -0.3215
14997W        W31845  17.519  14.190  14.554 -0.0349  0.1558  0.1557
14998W        W31846  12.983  13.801   1.645  0.0700 -0.2147 -0.0856
14999W        W31847  15.811  15.566  15.395 -0.2094  0.3193 -0.0459
15000W        W31848  15.826  14.000  15.517 -0.1523  0.3949  0.1341
15001W        W31849   2.391  13.865   3.440  0.0894 -0.0044  0.1539
15002W        W31850   8.825   5.718   2.739  0.1028 -0.1039 -0.1521
15003W        W31851  12.147  15.079   1.502 -0.1688 -0.0058 -0.0664
15004W        W31852   2.190   6.498  14.226  0.1939  0.1350 -0.1977
15005W        W31853   4.903   1.555  16.072 -0.2335 -0.0164  0.0209
15006W        W31854   4.561   5.868  15.748 -0.1878 -0.3142 -0.0958
15007W        W31855  12.216  17.398   4.706 -0.3062  0.0813 -0.0921
15008W        W31856   3.842   0.140  15.142 -0.1436  0.2255 -0.0555
15009W        W31857   0.382   4.557   4.424  0.0685  0.0595  0.0536
15010W        W31858  14.776  11.379   5.168 -0.2303 -0.0384 -0.0049
15011W        W31859   1.593   9.802  15.500  0.1301  0.0979 -0.0464
15012W        W31860  16.049   2.358  12.069  0.0500 -0.1383 -0.0289
15013W        W31861   9.201   6.988   1.694 -0.0295 -0.1830 -0.1727
15014W        W31862   1.374  14.558  13.170  0.2040 -0.2439  0.0683
15015W        W31863  10.720   6.391   4.956 -0.0154 -0.0786 -0.1368
15016W        W31864   8.272  13.937   1.331 -0.2531 -0.1301  0.4316
15017W        W31865  10.943  15.051   3.832  0.1579 -0.4140 -0.1548
15018W        W31866   1.391   1.372  13.211 -0.1124 -0.1347 -0.0139
15019W        W31867   1.730  11.048   0.261 -0.0368  0.1341 -0.0423
15020W        W31868  11.113  11.386   3.643  0.1913 -0.3250  0.0793
15021W        W31869   1.489  10.807  15.216 -0.2986 -0.1070  0.1145
15022W        W31870  14.344   9.531  14.524 -0.2957 -0.0317 -0.2576
15023W        W31871  16.812  10.333  12.450  0.3495 -0.2324 -0.0549
15024W        W31872   6.296   9.960   2.013 -0.1853  0.0819  0.0558
15025W        W31873   8.931   2.444   1.231 -0.4261 -0.0550 -0.0523
15026W        W31874   2.131  12.345  11.240  0.1655 -0.1773  0.4122
15027W        W31875   4.445  16.901  12.467 -0.3073  0.0860 -0.1150
15028W        W31876   9.608   3.852  14.385 -0.2306  0.0009  0.0334
15029W        W31877  17.390   3.768   3.446  0.0241  0.1984 -0.0849
15030W        W31878   1.385   5.609  15.394 -0.1882  0.2356  0.0362
15031W        W31879  14.982   1.449  15.838  0.1461  0.0074  0.0175
15032W        W31880   1.785   9.146  12.748 -0.0762  0.1156 -0.0092
15033W        W31881   3.892   3.256  11.402 -0.1255 -0.2148 -0.2926
15034W        W31882   9.416   3.660  13.909 -0.0538  0.0963 -0.0053
15035W        W31883   4.127  14.419   0.303 -0.1177  0.1438 -0.0171
15036W        W31884  15.978   5.281   1.912  0.1020 -0.1497 -0.0672
15037W        W31885  10.527   8.244   4.938  0.0789 -0.0642  0.0819
15038W        W31886   1.172   8.925   3.146 -0.2768 -0.0587 -0.0751
15039W        W31887   4.189   8.234  16.191  0.4439 -0.1884  0.0120
15040W        W31888  11.834  10.950  13.297  0.0107 -0.3039 -0.2428
15041W        W31889  12.516   8.098   1.788  0.0476  0.1075  0.3040
15042W        W31890   4.199   0.473   1.137  0.0915 -0.3385  0.1423
15043W        W31891   2.457  16.860  14.217 -0.3559  0.1012 -0.2337
15044W        W31892  17.548   0.469  14.985 -0.0900 -0.1978  0.0262
15045W        W31893  13.812   3.909  13.712 -0.0198  0.1159  0.1523
15046W        W31894   9.395  13.313   4.597  0.1240 -0.1429 -0.0750
15047W        W31895  14.705  10.784  14.448  0.3099 -0.4169 -0.3904
15048W        W31896   6.275  13.997   5.250 -0.0276  0.2057  0.0756
15049W        W31897   8.219  15.011  15.191 -0.3025  0.2127  0.0131
15050W        W31898  11.532  10.089   0.183 -0.2235  0.0464  0.1361
15051W        W31899  11.424   2.427   1.377 -0.1108 -0.2186  0.2408
15052W        W31900   7.704  10.123  13.947  0.0829 -0.0957 -0.2001
15053W        W31901   8.867   9.009  12.498 -0.2833  0.0525  0.1426
15054W        W31902  13.222  13.842   5.029 -0.0472  0.0870  0.0017
15055W        W31903   6.237  12.565  12.443  0.0664 -0.0885 -0.3179
15056W        W31904   1.711   9.276  15.506 -0.1180 -0.2281  0.1299
15057W        W31905  16.234   5.802   4.877 -0.1605 -0.1522 -0.0029
15058W        W31906  12.773  17.139  12.984 -0.3115  0.1455 -0.2250
15059W        W31907   6.941   4.126  11.987 -0.0016 -0.0025  0.1531
15060W        W31908   1.785  17.287   4.300  0.0472 -0.0889  0.1794
15061W        W31909  14.317  16.923   4.817  0.0088  0.0665 -0.2122
15062W        W31910  14.810   0.323  15.406 -0.1801 -0.0491  0.1810
15063W        W31911   9.602  14.739   0.490 -0.0836  0.2362 -0.0994
15064W        W31912   9.211   0.095   2.818 -0.0243 -0.0292  0.0661
15065W        W31913   5.212   5.587  12.623  0.3129 -0.1384 -0.2461
15066W        W31914   7.122  15.654   1.878 -0.0023  0.1333 -0.1102
15067W        W31915  14.874  11.164  10.631 -0.3473  0.1406 -0.2894
15068W        W31916   8.769   8.094   0.835 -0.0734 -0.0962  0.3264
15069W        W31917   1.685   4.521   0.854  0.0502 -0.0575  0.0162
15070W        W31918   0.456  17.406   4.902  0.0306 -0.0352 -0.3846
15071W        W31919  10.980   4.889   2.243  0.0111  0.0199 -0.0215
15072W        W31920   6.008  11.607   4.944 -0.0447 -0.0631  0.0362
15073W        W31921   9.566  11.308   3.999  0.0126  0.0120 -0.1091
15074W        W31922  10.253  12.809  13.237  0.0543 -0.0887 -0.0624
15075W        W31923  11.637   8.099   4.188 -0.0297 -0.1907  0.0163
15076W        W31924  13.553   1.039  13.960 -0.0699 -0.1320 -0.0465
15077W        W31925   3.176   5.899   2.307 -0.0425  0.0610 -0.1545
15078W        W31926   0.881  10.857   3.866 -0.0534 -0.1182 -0.0596
15079W        W31927  15.274   4.975  13.089  0.2429 -0.2279 -0.1426
15080W        W31928  16.200   2.059   4.786 -0.2298 -0.1160  0.3779
15081W        W31929  14.626   7.129  14.930 -0.0811  0.1492  0.2183
15082W        W31930  13.764   6.854   0.789 -0.2090  0.1576  0.3042
15083W        W31931   1.791   8.223  13.129  0.0460 -0.2459  0.0636
15084W        W31932  15.455  16.424  13.273 -0.2112  0.0481 -0.1838
15085W        W31933  11.480   3.237   2.057 -0.2253 -0.1976  0.3902
15086W        W31934   5.219  16.077  14.830  0.0912 -0.0459  0.2424
15087W        W31935   2.136   9.678   3.691 -0.3012  0.1306  0.0824
15088W        W31936   6.993   9.688  12.505  0.0009 -0.3014 -0.1818
15089W        W31937   1.504  14.034   4.541  0.1360 -0.2351 -0.0591
15090W        W31938   2.214   9.680   1.324 -0.1263  0.0558 -0.3588
15091W        W31939   2.023  15.710  15.288  0.0139 -0.0164 -0.0947
15092W        W31940   5.905   6.125  15.704  0.2012 -0.0038  0.0391
15093W        W31941   3.399   6.620  10.768  0.0917 -0.1719  0.0091
15094W        W31942   1.431  10.697  12.683  0.0091 -0.1271  0.1908
15095W        W31943   8.815   3.313   1.494 -0.2889  0.1324  0.0940
15096W        W31944  10.174  17.211   2.454  0.0585 -0.0265 -0.3667
15097W        W31945   8.023   4.438   3.969  0.0803 -0.2348 -0.0034
15098W        W31946  16.096   1.482   2.670  0.3820  0.0465 -0.3541
15099W        W31947   4.988  12.690   4.424 -0.1729 -0.0612  0.0210
15100W        W31948   8.966  10.411  15.608  0.0642 -0.0359 -0.3333
15101W        W31949   9.082   5.872   1.247  0.1240 -0.0786  0.2452
15102W        W31950   5.301   9.354   0.676  0.0672  0.0594  0.1573
15103W        W31951  14.451   7.454  15.371 -0.0855 -0.1968  0.0441
15104W        W31952   4.443   3.154   3.702  0.0942 -0.1320 -0.2276
15105W        W31953   4.742   7.044  13.852  0.0340 -0.1054 -0.1392
15106W        W31954   8.281   0.374  15.427 -0.1542  0.2649  0.1189
15107W        W31955   3.946   7.623   0.053  0.3133 -0.3044 -0.2274
15108W        W31956   9.472   0.956   3.342  0.0452  0.0162  0.2330
15109W        W31957  15.663  13.706   0.812 -0.0762 -0.1838 -0.1115
15110W        W31958  13.974  14.844  11.811 -0.1553  0.1152  0.0214
15111W        W31959  10.910   4.272   1.122  0.2138  0.0139 -0.2470
15112W        W31960  14.116   9.961   3.809  0.0085  0.2119  0.0630
15113W        W31961  17.143   0.681   2.235  0.0737  0.1235  0.0558
15114W        W31962  10.010   0.052   1.513 -0.1159  0.0898 -0.1098
15115W        W31963  17.217  12.032   4.923 -0.1090  0.1441 -0.0027
15116W        W31964  16.501   2.073   1.348 -0.0655 -0.0580  0.0039
15117W        W31965   5.198  17.429  12.222 -0.0787  0.0429  0.1103
15118W        W31966  16.383   2.843  14.309  0.1706  0.2317 -0.3355
15119W        W31967  13.382  13.251  15.179  0.2005 -0.0710  0.0582
15120W        W31968   7.568  16.729   2.145  0.1970 -0.3158 -0.1239
15121W        W31969  10.392  13.043   2.804  0.0043 -0.2588  0.0783
15122W        W31970  10.345  13.548   0.592  0.1315  0.2533  0.0748
15123W        W31971   7.973   6.180   2.443  0.0441 -0.0873  0.2546
15124W        W31972  10.404  12.103   4.615 -0.1013  0.3576 -0.1058
15125W        W31973  11.890  15.948   1.576  0.2345 -0.3852  0.1541
15126W        W31974  10.802   7.744  14.419  0.0971  0.0462  0.1301
15127W        W31975  16.703   3.116   3.250 -0.2409  0.4404  0.0113
15128W        W31976   2.061  10.166   0.400  0.0073  0.0553 -0.0224
15129W        W31977  15.249   7.134  12.703  0.0201 -0.1228  0.2504
15130W        W31978  11.416  11.072  15.303  0.1647  0.1202 -0.0619
15131W        W31979   5.509   9.386   4.752 -0.1516  0.4620  0.0707
15132W        W31980  11.606  13.170   4.614 -0.0731  0.0148  0.1990
15133W        W31981   0.227  10.133  15.705 -0.0852 -0.0412 -0.1134
15134W        W31982   0.671  15.731  16.655 -0.0208 -0.1717 -0.0226
15135W        W31983   1.705  11.314   3.112  0.1238 -0.0091 -0.1022
15136W        W31984  10.602   7.036  16.541  0.0095 -0.1849  0.0989
15137W        W31985   2.340   8.739  15.997 -0.0858  0.1150 -0.4397
15138W        W31986   4.097   7.869   2.980  0.2119  0.2287 -0.1154
15139W        W31987   5.622   2.267   3.746  0.0322  0.1113  0.1182
15140W        W31988  11.793   5.558  12.705  0.0614  0.3148 -0.3801
15141W        W31989  13.639   0.076   3.736 -0.2511 -0.2988 -0.1413
15142W        W31990   9.994   9.526  15.996  0.0094  0.3046  0.1025
15143W        W31991  16.893   3.253  11.499 -0.1573 -0.0221 -0.1466
15144W        W31992  17.564  11.546  15.168  0.1486 -0.3593 -0.0979
15145W        W31993  12.973   0.272  15.615 -0.2619 -0.0258  0.1524
15146W        W31994   1.386   2.195   6.398 -0.2988 -0.1314 -0.1944
15147W        W31995  14.765  12.184  12.716  0.0574 -0.2063 -0.0625
15148W        W31996   3.370   7.237  12.168 -0.1614 -0.1718  0.0038
15149W        W31997   1.775   1.338   1.854 -0.1222 -0.2473 -0.0075
15150W        W31998   3.950   7.614  15.810  0.2560 -0.2226 -0.0144
15151W        W31999   2.898  14.177   4.113  0.1515 -0.2314 -0.2629
15152W        W32000  17.178  10.117   2.191  0.0118  0.1743 -0.1571
15153W        W32001   1.870   5.756   1.871 -0.1574 -0.1587 -0.4495
15154W        W32002   2.247  13.033  14.871  0.0710  0.0568 -0.1956
15155W        W32003  10.340  13.479   4.279 -0.0475  0.0520 -0.0313
15156W        W32004   0.574   9.537   2.290  0.0110  0.1531  0.0303
15157W        W32005   2.332   1.887   2.853  0.3468 -0.1411  0.2854
15158W        W32006  15.936   6.171  14.013 -0.2253  0.1211 -0.0357
15159W        W32007   7.754   8.418   3.975  0.0377  0.1059 -0.1417
15160W        W32008  16.765  16.250  13.849 -0.1042 -0.1843 -0.2335
15161W        W32009  15.646   1.661  11.395 -0.0864  0.1636  0.0578
15162W        W32010  11.248   6.513  14.099  0.1411  0.0415  0.1139
15163W        W32011   5.256   8.048   0.943 -0.0192  0.0891 -0.2826
15164W        W32012   1.418   2.209  15.484 -0.1684  0.1341  0.1539
15165W        W32013   6.749  12.702  12.279  0.0063 -0.0565 -0.2087
15166W        W32014   7.515   8.158  13.935 -0.2127 -0.1363  0.0067
15167W        W32015  17.189   4.816   2.512 -0.1735 -0.2662  0.0261
15168W        W32016   5.495   0.193   2.091 -0.0424 -0.0078  0.0593
15169W        W32017  15.327   5.337  12.761  0.2783  0.0527  0.0879
15170W        W32018   5.655   6.270  11.540  0.0712  0.0891 -0.1833
15171W        W32019   4.175   5.424  13.755 -0.3035 -0.4069 -0.0173
15172W        W32020   6.936  11.598   2.613 -0.1806  0.0848  0.2279
15173W        W32021  12.572   4.858   4.334 -0.2751 -0.0064 -0.0202
15174W        W32022   5.589  13.808   0.713 -0.1093 -0.0537  0.2400
15175W        W32023  10.077  10.654   3.591  0.0273  0.0941  0.0520
15176W        W32024   7.899   4.438   2.605 -0.1505 -0.2202 -0.0372
15177W        W32025   3.851  17.061   4.878 -0.0425 -0.1451 -0.0094
15178W        W32026   1.740   2.408  14.802 -0.0814 -0.0080  0.1772
15179W        W32027  12.276   1.499   5.764 -0.1221 -0.1129 -0.1206
15180W        W32028  14.768   2.355   3.698 -0.2301 -0.2327  0.0859
15181W        W32029   9.290  15.036  13.424 -0.2260 -0.0761  0.0598
15182W        W32030  14.175  17.023  13.063 -0.3338 -0.0541 -0.1374
15183W        W32031   9.827   3.417  12.428  0.2503 -0.1496 -0.1498
15184W        W32032   3.032  16.258   0.413 -0.0383  0.1252 -0.0484
15185W        W32033  14.783  10.150   2.642 -0.0446  0.3161  0.0229
15186W        W32034   6.113  14.382   0.056 -0.0526  0.1502  0.0595
15187W        W32035   0.267   6.484   4.043 -0.2033  0.2324  0.0479
15188W        W32036  10.424  12.891   0.934  0.0145  0.0604 -0.0402
15189W        W32037   0.783  11.611  13.614 -0.1155 -0.0661  0.0714
15190W        W32038   9.698  14.850  16.327 -0.0182 -0.0655 -0.1069
15191W        W32039   4.678  12.630  15.408  0.0691  0.2943 -0.1192
15192W        W32040  13.503   3.487  15.644 -0.1665  0.0168 -0.2236
15193W        W32041   8.770   8.935  13.655  0.0326  0.2839  0.1552
15194W        W32042   2.060   5.519  16.673  0.1141  0.2560 -0.0911
15195W        W32043  12.928  16.002  15.856  0.0277 -0.4556 -0.2071
15196W        W32044   9.313  15.214  15.571  0.0399  0.0856  0.1239
15197W        W32045   4.570   7.726   3.820  0.1190 -0.2160 -0.2246
15198W        W32046  10.872  16.378   3.749 -0.1762 -0.0315 -0.1198
15199W        W32047  13.564  13.984  15.028 -0.3620  0.1393  0.0487
15200W        W32048  10.123  16.595  14.321  0.1825  0.1596 -0.0157
15201W        W32049   3.619   2.589  15.522  0.0905  0.0367 -0.1774
15202W        W32050   0.500   8.848  16.502 -0.1739 -0.0708 -0.1851
15203W        W32051   8.132   4.382   0.397  0.2603 -0.0101 -0.0281
15204W        W32052  10.612  16.076  12.255 -0.0725  0.3321 -0.2024
15205W        W32053   1.969   3.856  10.773 -0.2917 -0.1769  0.0399
15206W        W32054  16.836   5.885   0.158  0.2941 -0.0165 -0.1157
15207W        W32055   9.202  17.135  15.807  0.0377  0.0610  0.0091
15208W        W32056  13.223  11.215   2.598  0.1555  0.2217  0.3285
15209W        W32057   2.747   7.447  13.331 -0.3522  0.0787 -0.3650
15210W        W32058  17.282  13.571   1.685 -0.0286 -0.1158 -0.4374
15211W        W32059   7.918  12.798   2.745  0.1322 -0.0875  0.1249
15212W        W32060  10.985   7.975  13.927 -0.2622 -0.1430  0.3714
15213W        W32061   8.353  12.348   2.058  0.1754 -0.0995 -0.1909
15214W        W32062   5.752  13.083   4.928  0.1637  0.3080  0.2644
15215W        W32063  12.897  11.003  15.343 -0.2163  0.0116 -0.0333
15216W        W32064   3.287  12.575   4.178  0.3633  0.0257  0.0254
15217W        W32065  11.952   0.326   4.033 -0.1713  0.3332 -0.1329
15218W        W32066   4.066   3.342  16.183 -0.0467  0.0521 -0.0522
15219W        W32067  17.062   6.937   4.762  0.4609 -0.3705 -0.1357
15220W        W32068   0.637   9.322  12.125 -0.0608  0.0164 -0.1418
15221W        W32069  16.616  16.605   5.200 -0.1277 -0.1309  0.1013
15222W        W32070  13.223   8.530   2.345  0.2940  0.1517 -0.0703
15223W        W32071  17.387   2.456   4.110  0.4250  0.0263 -0.0659
15224W        W32072  14.169  16.958   2.508 -0.0425  0.2633 -0.0301
15225W        W32073   0.999  12.339  13.239 -0.4220 -0.2779 -0.0105
15226W        W32074   7.324  14.242   5.631 -0.1252 -0.0645  0.1702
15227W        W32075  11.677   3.968   1.792 -0.0818 -0.3191  0.0439
15228W        W32076   7.876   3.932   0.338  0.1296  0.2347 -0.1098
15229W        W32077  14.404   7.909   5.108  0.3571  0.3212  0.3403
15230W        W32078  14.773  10.089   1.649 -0.0511  0.0717  0.0928
15231W        W32079   7.799  14.659  14.054 -0.1224 -0.0284 -0.2386
15232W        W32080  14.639  11.792  11.826 -0.1952 -0.0522  0.1931
15233W        W32081  12.642  10.765  11.662  0.2165  0.4855  0.0573
15234W        W32082   5.285   6.045   4.785  0.2098 -0.0165 -0.1319
15235W        W32083  10.325   1.102  13.152  0.2338  0.2068  0.2219
15236W        W32084   0.371  10.796   3.097 -0.2746 -0.0563 -0.0872
15237W        W32085   9.501  13.295  14.129  0.1937 -0.0773  0.0323
15238W        W32086  12.929   6.466  15.515 -0.2781  0.0047  0.1648
15239W        W32087  12.483  17.337   1.703 -0.1438 -0.1444 -0.1372
15240W        W32088  11.676   8.986  13.924 -0.0593  0.0197 -0.0940
15241W        W32089   9.937  12.903   2.905 -0.3112  0.0417  0.2678
15242W        W32090   4.328   1.427   0.168 -0.1811 -0.0638  0.3080
15243W        W32091   8.322  13.466  15.789 -0.0352 -0.0879 -0.3460
15244W        W32092   3.752  10.242   5.461 -0.1135 -0.0888  0.3220
15245W        W32093   2.805  13.059  13.120  0.0941 -0.2136 -0.1193
15246W        W32094  13.859   5.810   1.070  0.1343  0.1668 -0.4629
15247W        W32095  12.318   3.420   0.575 -0.1695  0.3767 -0.3748
15248W        W32096  11.770   1.961   0.074 -0.1163 -0.0065  0.2875
15249W        W32097  10.894   7.112   2.028  0.0093  0.0034 -0.0009
15250W        W32098  16.031  13.568   2.730  0.0650  0.0982  0.2338
15251W        W32099   0.892   7.373  11.281 -0.3513  0.0194  0.1803
15252W        W32100   2.015   2.226   2.517 -0.1268  0.1746 -0.0276
15253W        W32101   2.830  14.577  15.506  0.0280  0.2391 -0.1579
15254W        W32102   8.342  17.551   0.185  0.0737  0.1628 -0.1837
15255W        W32103   9.866  14.461   3.915  0.2883 -0.0181  0.1283
15256W        W32104  13.855  15.273   2.033  0.2250  0.3498 -0.3760
15257W        W32105   9.903   6.528  11.952  0.4423 -0.0036  0.2665
15258W        W32106   8.187   5.458  12.665 -0.2237  0.0702  0.3169
15259W        W32107  10.354   8.689  13.581 -0.2634 -0.1029 -0.1397
15260W        W32108   7.993   8.842  15.859 -0.1076 -0.1034 -0.1272
15261W        W32109   6.785   1.308  12.578  0.0563  0.1787  0.2020
15262W        W32110  10.781   0.625  13.686  0.5206 -0.0400 -0.0197
15263W        W32111   6.316  13.648  13.948 -0.3294 -0.1544  0.0234
15264W        W32112   6.772  14.420  11.851 -0.0639 -0.0455  0.1456
15265W        W32113  11.515   1.606   0.762  0.0194  0.1850 -0.0666
15266W        W32114   5.917  14.911  16.548  0.0439 -0.1962 -0.0089
15267W        W32115  14.049  13.916  13.909 -0.0913  0.1308  0.0884
15268W        W32116  10.762  15.051   6.109  0.1181 -0.1659  0.0411
15269W        W32117   8.041   4.695  13.459  0.1955 -0.1183  0.2262
15270W        W32118   4.062  10.558   1.693 -0.0678  0.0443  0.1960
15271W        W32119   0.122   4.754  13.907  0.0770  0.0122  0.0143
15272W        W32120   0.840   1.549  15.921  0.0163 -0.1594 -0.1794
15273W        W32121  11.738   2.293  12.986  0.2610  0.4550 -0.3684
15274W        W32122   6.820  16.431   0.907  0.3246 -0.1982  0.1069
15275W        W32123   0.205   9.957   1.451 -0.2297  0.2192 -0.0004
15276W        W32124  13.292  15.544  11.567 -0.3267 -0.0034  0.1056
15277W        W32125  10.916   3.601  14.681 -0.1870  0.1204 -0.1577
15278W        W32126  11.615  17.677   1.682 -0.2408 -0.3069 -0.2060
15279W        W32127  15.209   8.526  15.660  0.1152 -0.4498  0.1131
15280W        W32128  14.739   2.596   1.103  0.0790 -0.2164  0.1611
15281W        W32129  13.503  16.311  13.050  0.0480 -0.3562 -0.0573
15282W        W32130  10.644   5.008   3.832 -0.0172 -0.0374  0.1575
15283W        W32131  17.581  12.850  15.043 -0.0026 -0.1677  0.0471
15284W        W32132  14.926   2.668   1.970 -0.0670 -0.1400  0.2961
15285W        W32133   3.370  12.110  12.666  0.0642 -0.3761 -0.0962
15286W        W32134  16.573   1.564   1.965  0.1286 -0.0291  0.0148
15287W        W32135   5.569  14.041   4.333  0.1825  0.2026 -0.1337
15288W        W32136   3.315  10.334   0.839  0.0038  0.1055  0.0454
15289W        W32137   6.459   9.862   2.975 -0.1751 -0.0340 -0.0078
15290W        W32138   3.170   7.943   5.429 -0.4927 -0.0754  0.0537
15291W        W32139  15.580  13.396   3.893 -0.0084  0.1095  0.2415
15292W        W32140   7.503  15.164  16.294 -0.0649  0.1194  0.1127
15293W        W32141  11.844   4.227   4.844 -0.1921  0.1755 -0.3327
15294W        W32142  12.639   8.029   0.825  0.3370  0.1558  0.0761
15295W        W32143   4.569   2.601  14.055  0.0303  0.0843 -0.0009
15296W        W32144   7.457   8.937  13.773  0.1712 -0.0189  0.2590
15297W        W32145  13.536   0.783   4.807 -0.0687  0.0372 -0.1110
15298W        W32146   6.337  13.566   2.271  0.0799  0.1067 -0.1499
15299W        W32147  14.252  13.747   3.043  0.0378  0.1298 -0.0494
15300W        W32148  12.386   9.615  15.827  0.1600 -0.3797  0.0164
15301W        W32149   8.437   2.772   1.506 -0.1083 -0.1554  0.2006
15302W        W32150  12.301   9.672  13.853  0.0163 -0.0776 -0.0078
15303W        W32151  11.472   5.213   4.431  0.1970 -0.0863 -0.1607
15304W        W32152   5.242   4.797  16.628 -0.2618 -0.3823  0.0367
15305W        W32153  16.661  15.462  12.870  0.1363 -0.0470  0.0150
15306W        W32154  10.122   7.040  12.078  0.1031  0.0166  0.2055
15307W        W32155   2.810   8.509   4.939  0.1136  0.1279  0.1711
15308W        W32156   2.984  17.697   5.011 -0.4638  0.1018  0.2657
15309W        W32157   2.098   7.842  13.032 -0.2251 -0.3792 -0.2090
15310W        W32158   3.549  10.651   3.502 -0.0814  0.2301  0.2364
15311W        W32159   5.972  15.596  15.797  0.2237 -0.1397 -0.0856
15312W        W32160  12.089   6.882   1.941  0.4395  0.0957 -0.0998
15313W        W32161   1.290  12.097   2.726 -0.1061  0.0013  0.0312
15314W        W32162  15.810   7.518   1.330 -0.2433  0.2545 -0.4166
15315W        W32163   3.417   2.201   4.385 -0.3693  0.1311  0.0825
15316W        W32164   3.523   7.243   1.320 -0.0359 -0.1137 -0.2677
15317W        W32165  17.459  15.058   3.432  0.1394 -0.1606  0.0088
15318W        W32166  11.042   2.048   0.473 -0.1773 -0.0263  0.3683
15319W        W32167   5.311  16.755   3.032  0.0959 -0.0699 -0.1626
15320W        W32168  14.519   5.352   2.175  0.1327 -0.0587  0.0194
15321W        W32169  10.801  14.018  13.803 -0.2115  0.2709  0.1183
15322W        W32170  16.621  11.565   3.911 -0.1183  0.0670  0.1150
15323W        W32171  12.561  16.452  16.634  0.0108  0.0204 -0.1268
15324W        W32172   0.715   0.481  14.163  0.0465 -0.0770 -0.0210
15325W        W32173   4.402   0.298   4.620  0.3345  0.0149 -0.2541
15326W        W32174  17.287   3.395  14.630  0.2401  0.1031 -0.0647
15327W        W32175  11.210   3.183   3.967 -0.0738 -0.1564 -0.0679
15328W        W32176  12.914  13.133  12.846  0.0734 -0.1084 -0.0419
15329W        W32177  15.859  13.225  13.775 -0.1935  0.0918 -0.1710
15330W        W32178   1.594   4.619  13.107 -0.1536  0.0315 -0.0977
15331W        W32179   7.842  14.493  10.710 -0.0590  0.1210 -0.1149
15332W        W32180   0.237  17.701  12.830 -0.1722 -0.0992 -0.0661
15333W        W32181   5.445  15.599  15.701 -0.0918  0.0483  0.0826
15334W        W32182  14.356   3.573   1.242 -0.2574 -0.2484  0.1461
15335W        W32183   9.467   7.323   3.609 -0.0128  0.4024  0.1544
15336W        W32184  13.572   9.214  11.554 -0.1767 -0.2801 -0.1736
15337W        W32185   4.785   3.514  15.401  0.2737 -0.2511  0.2095
15338W        W32186   6.167   4.079   4.186  0.1351 -0.0641 -0.2704
15339W        W32187   6.365  14.915  13.472  0.1509 -0.2493  0.4711
15340W        W32188   9.574   9.167   1.635 -0.0189 -0.2217 -0.2656
15341W        W32189  17.120  11.736  11.051  0.0453 -0.2237  0.3876
15342W        W32190   5.562  13.399  16.471 -0.0524  0.0671 -0.0665
15343W        W32191   9.541   6.018  12.611  0.2518 -0.0112 -0.1362
15344W        W32192   3.871  12.366  12.916 -0.0282  0.2183  0.1173
15345W        W32193   9.215  12.940  11.844  0.0383  0.2172 -0.2330
15346W        W32194  14.958  12.658   1.547  0.0983  0.0524  0.4636
15347W        W32195   6.425   5.670  11.789 -0.0722 -0.0896 -0.2941
15348W        W32196   5.144  15.911   5.434 -0.0846  0.0480  0.1893
15349W        W32197   2.686  17.482   4.411 -0.0457  0.0497 -0.0829
15350W        W32198   7.746   7.470   0.408 -0.1803 -0.1939  0.0640
15351W        W32199   3.537   8.534   2.238  0.1348  0.0473 -0.1519
15352W        W32200  13.153   9.602   4.798 -0.0037  0.0200 -0.2999
15353W        W32201  14.420   5.023  11.538  0.2695 -0.0151 -0.0932
15354W        W32202  16.691  11.139   1.484  0.0208  0.0248  0.1449
15355W        W32203  15.934   6.750   1.378 -0.1532  0.0074 -0.1810
15356W        W32204  10.551  13.326   3.750  0.0437  0.0813 -0.1346
15357W        W32205  17.207  11.098   5.813  0.0691 -0.0758 -0.0433
15358W        W32206   8.283   4.858   1.018  0.1131  0.0050  0.1555
15359W        W32207   2.636   0.069   2.517  0.0862  0.0532  0.0448
15360W        W32208   1.426  16.004  11.921  0.0462 -0.0107  0.1197
15361W        W32209   0.529   4.625  15.418 -0.0408  0.0622 -0.1740
15362W        W32210   4.957   6.159   3.227  0.1191 -0.0926  0.1634
15363W        W32211   7.741  11.296  16.306  0.2850  0.0355 -0.2036
15364W        W32212   2.509   8.714  13.284 -0.1205 -0.0498  0.0956
15365W        W32213   9.421  10.774   0.437 -0.1432  0.0273  0.0170
15366W        W32214   1.155  10.605  11.253 -0.1286 -0.1108 -0.1954
15367W        W32215  15.903   6.082   4.060  0.3146  0.1897 -0.1636
15368W        W32216  13.414   3.341   1.267 -0.1247  0.1936  0.1489
15369W        W32217   1.480  12.905  15.691  0.2693 -0.2284  0.1243
15370W        W32218  13.751   1.483  16.559 -0.1163  0.0222 -0.1185
15371W        W32219  13.908   4.720  15.019  0.2464 -0.1629 -0.0841
15372W        W32220  12.388   2.503  15.121 -0.2592 -0.1675  0.2123
15373W        W32221  17.138  11.646   0.855  0.0098 -0.2515 -0.0544
15374W        W32222  11.415   7.750   3.881  0.1238  0.0179  0.1697
15375W        W32223  12.686   1.273   3.203 -0.0463  0.0805 -0.0056
15376W        W32224  11.506   0.445  15.512  0.0489  0.2154 -0.1482
15377W        W32225   4.844   7.768   1.156  0.3414  0.0801  0.2278
15378W        W32226   9.767  11.566  15.099  0.1628  0.0246 -0.0644
15379W        W32227   6.874  16.771  15.951  0.2448  0.0884  0.2585
15380W        W32228   2.706   0.673   0.658  0.2178 -0.2891 -0.0400
15381W        W32229  11.002   5.932  11.574  0.0884  0.1276 -0.3213
15382W        W32230   5.430   1.432  11.973  0.0719  0.0850 -0.0733
15383W        W32231   7.399  13.566  10.217  0.1091  0.1722 -0.0661
15384W        W32232   7.591   1.901   4.092  0.0329  0.0110  0.1364
15385W        W32233   9.434   4.422  13.229  0.0251  0.0274 -0.3251
15386W        W32234   3.165  17.190  12.970 -0.1755 -0.0853 -0.1760
15387W        W32235   6.589  10.714   0.905  0.0481 -0.2630  0.0054
15388W        W32236  12.448  11.007  15.048 -0.2716  0.1131 -0.2072
15389W        W32237  10.618   9.427   3.141  0.0669  0.0379 -0.1151
15390W        W32238  14.619   7.736   3.581 -0.1076  0.0590 -0.0068
15391W        W32239  14.972  13.436  11.252 -0.4160 -0.2183  0.1971
15392W        W32240  11.332   7.700   0.470 -0.0041 -0.1413  0.0169
15393W        W32241   8.467  10.646   4.892  0.2811  0.0746 -0.0005
15394W        W32242   9.723   5.088  12.477 -0.0997  0.2133 -0.0560
15395W        W32243   5.026  13.524   2.097  0.1606 -0.1177  0.0664
15396W        W32244  17.065   8.436   4.933 -0.2175  0.0609  0.1153
15397W        W32245  10.058   1.449  11.562 -0.0148  0.0008 -0.0605
15398W        W32246  13.550  16.539   1.580  0.0520  0.3425  0.0214
15399W        W32247   2.708  14.539   3.847 -0.1102  0.0743 -0.1830
15400W        W32248  11.025   1.989   5.211  0.0483 -0.0875 -0.2268
15401W        W32249  16.626   4.066   0.279  0.0550 -0.0859 -0.2204
15402W        W32250   2.990  17.112   0.931  0.1772 -0.1151 -0.1769
15403W        W32251  17.508  16.518  16.045  0.3056  0.0256  0.2130
15404W        W32252   9.280   3.687   3.788  0.0123  0.0856  0.0891
15405W        W32253   6.002  15.409  13.949 -0.0477  0.0854 -0.0144
15406W        W32254   7.492  15.562   5.698 -0.3539 -0.1074 -0.0917
15407W        W32255  12.670   7.803   5.850 -0.1753 -0.2771 -0.2668
15408W        W32256  12.176   2.952  11.880 -0.0199 -0.2306  0.0570
15409W        W32257   1.883  14.282   2.545  0.0919 -0.1674  0.1203
15410W        W32258   8.017   9.037   5.122  0.1972 -0.0630  0.2258
15411W        W32259  11.628   4.360   1.411  0.1526  0.0261  0.3398
15412W        W32260  16.729  11.126   4.830  0.0226 -0.1438  0.2593
15413W        W32261  13.526  13.460  11.938  0.1247  0.1751  0.1981
15414W        W32262  15.744  12.040  11.783 -0.0959 -0.1130 -0.2228
15415W        W32263  11.646  14.789   0.329  0.0849  0.0993  0.0310
15416W        W32264   3.071  11.432   4.486 -0.0554 -0.0338  0.1871
15417W        W32265   5.472   8.562   3.015  0.0115 -0.0172  0.2006
15418W        W32266   8.011  15.950   1.642  0.3696  0.1502 -0.0217
15419W        W32267  14.605   7.976  13.928  0.3332  0.3458 -0.2618
15420W        W32268   7.963  17.154  14.743 -0.0946 -0.1907 -0.0687
15421W        W32269  12.122   4.418  15.208  0.0849  0.1915  0.1529
15422W        W32270   9.448  13.055   4.064  0.0702  0.1887 -0.0385
15423W        W32271   8.748  14.234  12.207 -0.1922 -0.2251 -0.1461
15424W        W32272  14.858   5.887   2.423 -0.2900  0.2932 -0.0659
15425W        W32273  17.590   4.306  16.284  0.1187 -0.0645 -0.0537
15426W        W32274  15.732   6.086  13.504  0.3167 -0.0891 -0.0660
15427W        W32275   3.142   5.490   5.464 -0.0215  0.1379  0.1340
15428W        W32276   9.423  12.407  13.240  0.0097  0.1774 -0.2347
15429W        W32277  11.535   6.953  12.352 -0.0049 -0.4837 -0.1965
15430W        W32278  15.295   1.143   1.516 -0.0597  0.0642 -0.0061
15431W        W32279  15.338  12.780  13.034 -0.1460  0.2365  0.2057
15432W        W32280  16.541  17.396   4.051 -0.0121 -0.0788  0.3113
15433W        W32281   4.924   6.300   3.702  0.0434 -0.1300 -0.0413
15434W        W32282  13.492  15.821  13.061  0.0223  0.2740 -0.0076
15435W        W32283  15.207  14.801  12.269 -0.2114  0.1402 -0.2405
15436W        W32284   0.884   5.657   1.801 -0.3137  0.0142 -0.2253
15437W        W32285   6.165  10.724  13.119  0.0969  0.0079  0.0415
15438W        W32286   8.456  11.619  12.364  0.2096 -0.1384  0.0607
15439W        W32287   5.066   4.292   5.555  0.0331 -0.0337  0.0723
15440W        W32288   7.295   0.737  15.807  0.0564 -0.2067 -0.0485
15441W        W32289  14.723  16.245   5.261 -0.3152 -0.1820  0.1550
15442W        W32290  12.889  14.503  15.532 -0.0661  0.1728  0.1478
15443W        W32291   8.426   4.772   3.847  0.4667  0.1218 -0.1411
15444W        W32292   9.763   8.143  15.403  0.0060 -0.0926 -0.1052
15445W        W32293  14.848  11.409  15.553  0.2941 -0.2107  0.3360
15446W        W32294  16.669  11.867  11.263 -0.1499  0.2699 -0.0859
15447W        W32295   7.135   9.467  14.762  0.3152 -0.2402 -0.0976
15448W        W32296  16.150   9.058   0.347 -0.1058 -0.0572  0.0675
15449W        W32297  14.126   4.487  15.428 -0.3169 -0.0266 -0.1312
15450W        W32298  13.268   3.846  11.895  0.0653  0.0848 -0.0054
15451W        W32299  10.124   4.594  13.930  0.2347  0.0482  0.0036
15452W        W32300   5.293  12.314  12.706 -0.1000 -0.0731  0.1625
15453W        W32301  14.563  14.165  13.734 -0.2686 -0.3027  0.0911
15454W        W32302   5.519  17.687  13.150 -0.0721  0.0780 -0.2501
15455W        W32303   4.781   9.081  13.642  0.0029  0.5458 -0.2707
15456W        W32304  15.626   3.590   3.287  0.2581 -0.1064 -0.0889
15457W        W32305  16.324   4.607   3.391  0.2645  0.2563 -0.2474
15458W        W32306   8.416  13.427  11.622 -0.0717  0.1308  0.0567
15459W        W32307  15.323   8.460  11.767  0.3009 -0.1155 -0.2527
15460W        W32308  10.445  16.105  15.166  0.0381 -0.0704  0.1986
15461W        W32309   2.095   9.653  11.446 -0.2463  0.1718  0.1476
15462W        W32310   3.972  11.547  12.021  0.0585 -0.1286  0.2051
15463W        W32311  15.483  12.856   2.245  0.0326  0.1728 -0.3221
15464W        W32312   4.112  10.266   4.065  0.1164 -0.4047  0.3652
15465W        W32313  17.551   5.718   2.104 -0.0602 -0.0270 -0.1054
15466W        W32314   5.175   4.280   3.850  0.1189  0.2946 -0.1924
15467W        W32315   2.914   4.321  14.790  0.0158 -0.3227  0.1244
15468W        W32316   7.908   0.277  11.034  0.1786  0.1999  0.1236
15469W        W32317  10.244  15.018  12.438 -0.0512  0.1829  0.0174
15470W        W32318  13.480   9.548   0.367 -0.2568  0.0293  0.2594
15471W        W32319   2.650   7.218   4.160  0.1571  0.1594  0.0689
15472W        W32320   8.033  11.660  11.464  0.1845 -0.2799 -0.0754
15473W        W32321   6.328   8.067  14.758  0.1213 -0.2338 -0.4209
15474W        W32322   1.703   0.687  14.411  0.1448 -0.1014 -0.4020
15475W        W32323  15.639  16.928  11.833 -0.1384 -0.0212  0.1307
15476W        W32324   0.685  14.648   0.120  0.0920  0.2813 -0.0038
15477W        W32325   4.313   3.014   2.853  0.0493  0.0380 -0.2731
15478W        W32326  11.134   0.273   0.229 -0.1496  0.1892  0.0664
15479W        W32327   0.461   9.907   4.817  0.2193  0.2166 -0.0825
15480W        W32328   4.389   6.999   1.031  0.0057 -0.4111 -0.0409
15481W        W32329   9.717  15.496  11.599 -0.2272 -0.0483 -0.2347
15482W        W32330   1.271   6.867  15.644  0.0487 -0.0050  0.0731
15483W        W32331  12.919  16.583   5.618 -0.0388  0.1487 -0.3281
15484W        W32332   1.207   1.156  16.619  0.0898  0.0700 -0.3838
15485W        W32333   2.956   6.785   0.315  0.5102 -0.0508  0.0290
15486W        W32334  15.313   4.046   0.870 -0.0503  0.1060  0.1803
15487W        W32335  10.690  17.245  16.105  0.1736 -0.0904  0.0257
15488W        W32336   3.593   7.052  11.659 -0.1230 -0.3303 -0.1503
15489W        W32337   1.334   1.055  14.492 -0.1404 -0.3717  0.1733
15490W        W32338   9.919  11.012  12.472 -0.0507  0.2529 -0.1184
15491W        W32339  15.229   7.797   3.678  0.0271 -0.3079 -0.3765
15492W        W32340   5.988   2.400   2.536  0.4051 -0.0596  0.0327
15493W        W32341   9.416  16.630  16.502 -0.0854  0.0879 -0.0297
15494W        W32342   4.777   9.051   2.539 -0.1261  0.0710  0.1576
15495W        W32343   7.560   4.965   2.607  0.1697  0.1025 -0.2223
15496W        W32344   7.785  11.803  13.878 -0.1546  0.2810  0.2515
15497W        W32345  12.633   9.970  13.517 -0.0235  0.0108 -0.1464
15498W        W32346  16.373  15.769   4.168  0.2529 -0.0548  0.3265
15499W        W32347  14.539  16.295  15.056 -0.1554  0.4149  0.2060
15500W        W32348  13.029  12.786   4.922 -0.1787 -0.0781 -0.1977
15501W        W32349  12.209   0.150   4.917  0.0733  0.0790 -0.3297
15502W        W32350  11.858   3.353   0.467  0.0541 -0.0242 -0.0425
15503W        W32351  13.016  12.930   3.936 -0.1369 -0.1116 -0.2213
15504W        W32352  15.834  12.195   4.385  0.0369 -0.0754 -0.0589
15505W        W32353   7.998   2.277   2.853  0.0308 -0.1502  0.0841
15506W        W32354  16.374   6.660  12.426 -0.1032 -0.0890  0.1792
15507W        W32355   8.849   1.958   0.840 -0.0047 -0.2126  0.0552
15508W        W32356   8.348   7.633  13.137 -0.0445  0.2853  0.0257
15509W        W32357   8.449  17.513  12.559 -0.0749  0.2434  0.1925
15510W        W32358  10.156   2.732   4.554 -0.1461  0.1775 -0.2578
15511W        W32359  11.313   2.203   0.097 -0.0382 -0.0669  0.3824
15512W        W32360   7.879  15.892  12.425 -0.1299 -0.3311 -0.1166
15513W        W32361   4.421  14.380  16.401 -0.0554 -0.1694 -0.0270
15514W        W32362   4.266   9.215   2.201  0.3742 -0.1107 -0.0711
15515W        W32363   2.801  11.940   2.602  0.0583 -0.1638  0.0399
15516W        W32364   5.803  14.129   0.379  0.1039 -0.2133 -0.3045
15517W        W32365   0.480  10.315  14.693  0.1060 -0.1985  0.3222
15518W        W32366   0.994   5.093   2.537 -0.1779  0.1283 -0.2965
15519W        W32367   1.008  16.860  12.980  0.0413  0.0648  0.2907
15520W        W32368   6.941  10.456  12.738  0.2631 -0.2217  0.0876
15521W        W32369  14.151   1.608   2.930 -0.2196 -0.2575  0.2049
15522W        W32370   2.529  16.070   0.383  0.0434 -0.2244  0.0558
15523W        W32371  17.570  16.256   2.874 -0.3642  0.2969  0.2884
15524W        W32372  11.415   9.029   3.145 -0.1641 -0.0116  0.0602
15525W        W32373  16.671   7.879  10.997 -0.0442 -0.0813  0.1972
15526W        W32374   3.877   2.874   0.824 -0.2105  0.0526  0.3803
15527W        W32375  11.084   8.590  12.281  0.1898  0.2350  0.3516
15528W        W32376  12.103   7.834   2.738 -0.0276  0.2689 -0.0696
15529W        W32377  13.802  16.076  12.625  0.1004 -0.0688  0.0608
15530W        W32378   6.589   5.650  13.093 -0.1614 -0.1585  0.0121
15531W        W32379   1.385  13.309  14.366 -0.2236 -0.0675  0.0269
15532W        W32380   5.423  16.725   2.533 -0.1194  0.2094 -0.0355
15533W        W32381  13.711   2.184   3.614 -0.3333 -0.0295 -0.2216
15534W        W32382   9.926   4.623   3.169 -0.1367  0.2160 -0.3170
15535W        W32383   0.449   8.512   5.949  0.1254 -0.0032 -0.0108
15536W        W32384  16.844  13.385  13.873  0.0565 -0.0370  0.1799
15537W        W32385  14.634   7.369  14.452  0.4665 -0.0962 -0.1553
15538W        W32386   9.319   2.682  16.578 -0.1521  0.1388  0.2225
15539W        W32387  15.994  16.653  14.132 -0.2819  0.2979  0.2486
15540W        W32388   0.113  11.413   1.578 -0.2445  0.2782 -0.1185
15541W        W32389  15.694  13.138  12.113 -0.0946  0.1544 -0.0309
15542W        W32390   6.737  16.347   5.288  0.1343 -0.1927  0.0546
15543W        W32391   4.037   7.280  14.506  0.4569 -0.0241 -0.1024
15544W        W32392   6.923  14.188   4.192 -0.0548 -0.0363 -0.2810
15545W        W32393   8.373  14.899  12.967  0.0296 -0.1681 -0.0763
15546W        W32394  16.634  14.940  15.759  0.0117  0.1786 -0.1520
15547W        W32395  16.819   6.542  14.497 -0.0150  0.1801  0.0354
15548W        W32396   6.254   5.322  15.888  0.1908 -0.0668  0.1054
15549W        W32397  14.689  12.845  14.283 -0.0967 -0.1026  0.0142
15550W        W32398   4.896   2.707   0.617 -0.0150  0.0557 -0.0838
15551W        W32399   1.395  12.664  15.253 -0.1632 -0.1628  0.1648
15552W        W32400   2.925   0.150   1.706  0.0822  0.1713  0.2221
15553W        W32401   0.656   2.926  12.742  0.1902  0.0611  0.2524
15554W        W32402  13.281   4.321   4.943  0.2045 -0.0735 -0.0155
15555W        W32403   7.422   7.715   1.457 -0.1803  0.2310  0.1815
15556W        W32404  12.410  16.377  11.838  0.0064 -0.2370  0.2256
15557W        W32405   4.647   7.682  13.366  0.2414  0.0849 -0.0403
15558W        W32406   6.217   0.184  11.718  0.2318  0.0794  0.2232
15559W        W32407  10.819   7.283  15.708 -0.0388  0.2360  0.2391
15560W        W32408  17.529  10.900   1.581 -0.0255  0.1575 -0.1274
15561W        W32409  13.756   1.092   0.563  0.0635  0.2934  0.3471
15562W        W32410   4.761   8.739   0.442 -0.3152 -0.1169 -0.4239
15563W        W32411  17.611   6.614  15.233 -0.2676 -0.1493  0.0336
15564W        W32412  11.422  10.410   2.838  0.2081 -0.1265  0.0177
15565W        W32413   4.764   9.467  15.222 -0.3385  0.1888 -0.0375
15566W        W32414  13.971   2.749  14.584  0.1020 -0.0570 -0.2218
15567W        W32415   2.993  16.868  14.092  0.1589  0.2463 -0.2433
15568W        W32416   5.919  16.613  13.146  0.2855  0.0801  0.0378
15569W        W32417   2.306   1.091  15.825  0.1559 -0.1603  0.0706
15570W        W32418  17.545  16.832  16.565  0.1562 -0.2904  0.0670
15571W        W32419  10.926   9.023   1.616 -0.0688  0.0456 -0.4461
15572W        W32420   4.049   6.259  13.839  0.0380 -0.1105 -0.1694
15573W        W32421  13.640  11.805   3.348 -0.0611  0.0395  0.2135
15574W        W32422  12.488  12.685   1.909  0.1771 -0.0364 -0.0985
15575W        W32423  13.104  15.880  13.363 -0.0788 -0.1394  0.2753
15576W        W32424  11.189  11.389  16.571  0.1916 -0.1636 -0.2298
15577W        W32425  14.488  17.360  16.335  0.1782  0.0965 -0.2044
15578W        W32426  10.797   9.024  15.903  0.4492 -0.1917 -0.0152
15579W        W32427  12.685   4.529  11.665  0.1929 -0.2307  0.0528
15580W        W32428   9.124   7.090  16.448 -0.1337 -0.1453 -0.2516
15581W        W32429  16.780  14.573  15.430 -0.0178 -0.1778  0.1376
15582W        W32430  14.385  16.886  16.078  0.2529  0.4710 -0.0165
15583W        W32431   3.674  11.124   5.163  0.2633 -0.2211 -0.2014
15584W        W32432  10.887   3.367  15.756  0.1562  0.2183 -0.3046
15585W        W32433  17.504  10.930  15.215  0.0079 -0.0630 -0.0390
15586W        W32434   0.825   9.306   3.205 -0.0576 -0.0836 -0.0589
15587W        W32435   3.911  12.356  11.826  0.0526  0.0575  0.0189
15588W        W32436   7.124   7.366   1.060  0.1659  0.0244  0.3416
15589W        W32437  10.769   2.772  14.378  0.4049 -0.2739  0.0982
15590W        W32438  12.347  16.992  11.929 -0.1623  0.1708  0.1141
15591W        W32439  17.213  17.265   2.697  0.1667 -0.0186 -0.1369
15592W        W32440  15.977   3.724   1.994  0.0547  0.4241 -0.0981
15593W        W32441   7.835   3.913  15.735 -0.0831  0.0675  0.3552
15594W        W32442   6.581   5.980   4.331 -0.3463 -0.2370  0.1947
15595W        W32443  17.298   8.871   1.027 -0.1006 -0.0766  0.0603
15596W        W32444  13.403   0.407  15.391 -0.0481 -0.0842  0.1342
15597W        W32445  13.641   9.728  12.715  0.1163  0.1436  0.2262
15598W        W32446   5.441  11.463  11.414 -0.2337  0.2651 -0.1276
15599W        W32447  15.209  12.795   3.763 -0.1766  0.1068 -0.1226
15600W        W32448   4.262  14.847  12.643 -0.1211 -0.2450  0.0121
15601W        W32449   4.670   3.481  13.252  0.0897  0.2725 -0.3610
15602W        W32450   8.259  17.360   1.020 -0.2505 -0.1413  0.0253
15603W        W32451  14.933   0.418   1.159  0.0822  0.0982 -0.0180
15604W        W32452   1.557   5.813   0.603 -0.2647 -0.1476 -0.1322
15605W        W32453  16.182   1.271  13.815  0.2961 -0.0044  0.2019
15606W        W32454  12.470   5.148  13.964  0.0336 -0.3477 -0.2147
15607W        W32455  15.364  15.736   3.249  0.0498 -0.2203 -0.2315
15608W        W32456   6.977   4.474   4.907  0.0014 -0.1040 -0.0715
15609W        W32457  15.330  17.071  10.528 -0.2469 -0.0784  0.0940
15610W        W32458   1.796   8.007   3.762  0.0429 -0.0367  0.1298
15611W        W32459   8.449   3.326   3.516 -0.0291  0.1392  0.2922
15612W        W32460  12.710   7.781   4.493  0.0307 -0.2187 -0.1791
15613W        W32461   6.462  12.090  14.374 -0.1059 -0.1808  0.1418
15614W        W32462  16.688   6.233  16.192 -0.0529  0.2816 -0.1301
15615W        W32463  14.570  10.311  15.079 -0.1547  0.2130 -0.0866
15616W        W32464  11.981   9.325  12.464  0.3167  0.1773 -0.3568
15617W        W32465   7.813   3.598  16.156  0.0023  0.0828  0.4072
15618W        W32466   0.188  11.978   5.333  0.1414 -0.0741  0.3271
15619W        W32467   2.028  15.669  12.664  0.0720 -0.0841  0.0930
15620W        W32468  15.896   2.256   5.071  0.2297 -0.1832 -0.0797
15621W        W32469   0.292   0.309   1.194  0.0772 -0.1160 -0.1394
15622W        W32470  10.303   7.259   4.893  0.1736 -0.0152  0.0429
15623W        W32471   2.678   6.068  15.799  0.0187  0.0177  0.1542
15624W        W32472   3.360   7.837   2.617 -0.0533  0.3816  0.0416
15625W        W32473   9.136   8.921  12.915  0.3770  0.1768 -0.0609
15626W        W32474  16.024  16.910   5.325 -0.0395  0.1099 -0.1964
15627W        W32475   2.203   5.554  12.324 -0.1843  0.1268 -0.1362
15628W        W32476   8.418   6.306  13.055 -0.0534 -0.0520  0.1872
15629W        W32477   9.493   4.528   4.821  0.1914  0.0332  0.1595
15630W        W32478   4.412   0.550  15.757  0.2212  0.0804 -0.3143
15631W        W32479   5.327   1.545  14.334 -0.0710 -0.0566 -0.3533
15632W        W32480  16.341   0.658  12.533 -0.4108 -0.0063  0.1223
15633W        W32481   3.808   0.438   0.676 -0.3517 -0.3554 -0.1710
15634W        W32482   3.206   2.578  13.384 -0.0988 -0.4300 -0.1068
15635W        W32483   3.259   9.662   2.703  0.1061  0.1113  0.2133
15636W        W32484  15.360   0.660  16.071 -0.1730  0.3722 -0.0225
15637W        W32485   1.400  15.122   1.559  0.0331 -0.0599  0.2419
15638W        W32486   3.742   9.406   5.174 -0.1317 -0.0357 -0.0782
15639W        W32487  13.815   7.425   0.257  0.0161 -0.0308 -0.0584
15640W        W32488  12.041  13.290   4.301  0.1000 -0.1920 -0.1132
15641W        W32489   7.467   1.423   0.688 -0.0759 -0.1428  0.1506
15642W        W32490  13.865   3.864   1.545 -0.1340 -0.1346  0.1356
15643W        W32491  11.369  10.904   3.038 -0.2116 -0.0896 -0.1645
15644W        W32492   5.512   7.395  15.647 -0.4421 -0.4574  0.0436
15645W        W32493   8.562   6.450   0.213  0.1055  0.0078 -0.2144
15646W        W32494   8.526  10.967  15.667  0.3802 -0.1970  0.2724
15647W        W32495   2.380   4.918  16.468 -0.0394 -0.1689  0.0216
15648W        W32496   0.318  10.120  16.487 -0.0344 -0.1657 -0.0852
15649W        W32497  11.184   7.225   1.408 -0.0031  0.3677 -0.0827
15650W        W32498  17.625   8.367  13.356  0.2427  0.0935 -0.2507
15651W        W32499  10.422   7.048   3.532  0.0310  0.4334 -0.2423
15652W        W32500   8.297   8.581   5.245 -0.2971  0.1384 -0.0222
15653W        W32501  13.113  16.537   4.239  0.0159  0.0204 -0.0917
15654W        W32502   4.392   2.538  11.270 -0.0255 -0.0898 -0.1108
15655W        W32503  13.082   2.804   0.498 -0.1181 -0.4339  0.0941
15656W        W32504  15.216   1.149   5.031 -0.0527  0.0561  0.1475
15657W        W32505   3.267  14.807   2.366 -0.0327  0.1183 -0.0601
15658W        W32506   6.479   0.422   2.361  0.1229  0.0375 -0.2215
15659W        W32507  14.579   3.433   0.852 -0.3029 -0.3358  0.0375
15660W        W32508  12.291   4.264  11.837  0.0541  0.2795 -0.1931
15661W        W32509  13.536  11.090  16.038  0.1410  0.0218  0.3050
15662W        W32510  12.276   1.352  14.217  0.1057  0.2506 -0.0568
15663W        W32511  15.726   4.386  15.682  0.2166  0.0280 -0.0922
15664W        W32512   7.121  16.685  11.870  0.1668 -0.0875  0.0488
15665W        W32513   1.985  12.208  12.572  0.1616  0.0356  0.0183
15666W        W32514   9.441   4.754  15.578 -0.2351  0.0688 -0.0281
15667W        W32515   7.183   8.864   3.204 -0.1059  0.3896 -0.1026
15668W        W32516  13.532   4.593   5.586  0.1250 -0.0324 -0.0829
15669W        W32517   5.722   1.616  16.304 -0.0028 -0.1383  0.0054
15670W        W32518   6.223   9.472   4.910  0.1383  0.0375  0.3223
15671W        W32519   3.000   4.606   4.915  0.1886 -0.1631 -0.1556
15672W        W32520   8.682   1.451  16.311  0.2152  0.0344 -0.0395
15673W        W32521   2.701   3.999   4.269  0.0674  0.3590 -0.1067
15674W        W32522   0.878   9.890   2.398 -0.1290 -0.1096  0.0368
15675W        W32523  10.310   5.356   3.576 -0.1376  0.0067  0.2542
15676W        W32524  12.533  10.458  11.236 -0.2226  0.0492  0.0599
15677W        W32525  12.626   3.736   5.058 -0.0360  0.2914 -0.0492
15678W        W32526  16.612  12.693   5.313  0.0797 -0.2451 -0.1267
15679W        W32527  12.602   3.536  13.879 -0.2826  0.2037 -0.1053
15680W        W32528   2.329   1.994  12.493 -0.2648 -0.0304 -0.0324
15681W        W32529  16.639   1.449   4.599 -0.0535  0.0775 -0.1573
15682W        W32530  11.527  16.718  10.856  0.0863  0.1070  0.0275
15683W        W32531   0.432   2.136   4.872 -0.0643 -0.0427 -0.0179
15684W        W32532   6.758  12.072   5.205  0.3569  0.0956  0.2587
15685W        W32533   4.876  13.901  12.246  0.1085  0.3546  0.0269
15686W        W32534   1.015   3.653   3.825  0.0597  0.1075 -0.0794
15687W        W32535   1.126   3.041  15.182 -0.0462 -0.1995  0.1265
15688W        W32536   3.024  16.882  15.762  0.0345  0.0511  0.2179
15689W        W32537  17.289   3.423   1.641 -0.1550 -0.0477 -0.1773
15690W        W32538   5.748  12.860   0.132 -0.0952  0.1381 -0.1875
15691W        W32539  15.089   1.509  16.357 -0.5045  0.2159 -0.1073
15692W        W32540   0.034  13.265   2.366  0.0186  0.1683 -0.0906
15693W        W32541   3.142  11.882  16.263  0.2124 -0.2740  0.1113
15694W        W32542  13.396  11.636   5.396  0.2160 -0.0298 -0.1446
15695W        W32543   3.921  12.511  15.742  0.0040  0.0484 -0.4518
15696W        W32544   2.802   2.840  12.669 -0.1076  0.1521  0.2517
15697W        W32545  16.771  10.400  14.110  0.1559 -0.0753  0.1010
15698W        W32546  16.269  17.112   2.523  0.3691 -0.0421 -0.1380
15699W        W32547  11.722   3.184  14.241 -0.1779  0.1861  0.3131
15700W        W32548   3.749  12.056   5.189 -0.3801  0.0850 -0.3136
15701W        W32549  11.254   5.997   3.113 -0.0718  0.0241  0.0233
15702W        W32550  14.654   4.036   3.403 -0.0739 -0.0317 -0.2481
15703W        W32551   7.671  14.619  11.209 -0.0329  0.3981 -0.1921
15704W        W32552   8.268  11.105   5.042  0.1452  0.0065 -0.0879
15705W        W32553  14.476  13.898  14.222  0.2121  0.3242 -0.1184
15706W        W32554  11.276  12.220   0.379 -0.1225  0.1468  0.4185
15707W        W32555   4.743  10.108   4.760 -0.0487  0.0572 -0.0398
15708W        W32556   3.946   9.175   1.325  0.0219 -0.0677 -0.1252
15709W        W32557   2.454   1.567   2.463  0.0624  0.1430 -0.0166
15710W        W32558  17.232  13.556  13.488  0.1139  0.2014 -0.0090
15711W        W32559   0.974   8.362   3.298 -0.1855 -0.0556  0.0043
15712W        W32560   9.884   4.732  13.323 -0.2187  0.2021 -0.3098
15713W        W32561  15.588   7.209  14.780 -0.0118 -0.1251  0.2018
15714W        W32562   3.406   5.657   4.777  0.1511  0.1167  0.2006
15715W        W32563  14.602   4.122   2.042 -0.1657  0.3168 -0.1435
15716W        W32564  14.062  12.367  13.619 -0.3355  0.2212 -0.3553
15717W        W32565  15.326   8.106   4.520  0.1348 -0.0515 -0.0955
15718W        W32566  12.333   1.117   1.912  0.1977 -0.2998 -0.2395
15719W        W32567  14.298   2.459   5.846  0.2760  0.0294 -0.4992
15720W        W32568  12.413  10.762  14.506  0.0954  0.2404  0.1004
15721W        W32569   8.105   8.055  14.750 -0.1189  0.0770  0.0054
15722W        W32570  12.626   6.706   2.148  0.1516  0.0100  0.0065
15723W        W32571  10.984  15.707   0.171 -0.2344 -0.2588 -0.0391
15724W        W32572   1.683  16.906   5.337 -0.3520  0.1393 -0.0867
15725W        W32573   7.780  15.441   4.336  0.0935 -0.1327  0.2586
15726W        W32574   3.940  10.560  10.868  0.1784  0.0717  0.0045
15727W        W32575   9.716   0.457  15.666  0.1358 -0.2174  0.0908
15728W        W32576   1.902   5.485   0.429 -0.2654  0.2809 -0.1687
15729W        W32577   6.735   0.076   1.471 -0.1042 -0.0607  0.3114
15730W        W32578  16.846  10.667  12.802  0.2239  0.2692 -0.4358
15731W        W32579  14.749   8.050   2.063  0.1613 -0.3054  0.2349
15732W        W32580   0.776   7.881   0.712 -0.1118  0.2311  0.5642
15733W        W32581   2.340  11.704   4.010 -0.1045 -0.1584  0.0647
15734W        W32582   8.127   8.281  10.628  0.0436  0.1468  0.0017
15735W        W32583   7.049  14.718  13.566  0.1189 -0.0984  0.2731
15736W        W32584  12.378   1.468  13.080 -0.2920  0.0420  0.1247
15737W        W32585  15.044  15.713   0.394 -0.0162 -0.3211  0.0387
15738W        W32586  13.054  10.281  15.483 -0.0180 -0.0426  0.2519
15739W        W32587   6.234  13.827   1.615 -0.4089 -0.0344  0.0802
15740W        W32588  14.023   7.692  15.267  0.2660 -0.2819 -0.0805
15741W        W32589   2.199  10.440  12.273 -0.0314  0.0671 -0.0180
15742W        W32590   0.001  15.706  16.611  0.0402  0.0951  0.4276
15743W        W32591   0.753   1.175   0.286  0.0765  0.0314 -0.0178
15744W        W32592   6.737   7.294   3.797  0.1585 -0.1145  0.0461
15745W        W32593   2.237   9.399   0.766  0.2112 -0.0723 -0.0593
15746W        W32594  13.525   6.557  13.434  0.0504 -0.3026  0.0380
15747W        W32595  14.576   5.203  16.023  0.2536 -0.1714  0.1244
15748W        W32596   5.376   4.318  12.268 -0.2003 -0.2199 -0.0806
15749W        W32597  14.374   1.756   0.764 -0.3042 -0.0345  0.3349
15750W        W32598  13.443  16.813  12.214  0.3503  0.1025  0.3220
15751W        W32599  11.552   3.110   3.004 -0.0192 -0.2507  0.3588
15752W        W32600   3.911   9.280  14.243  0.1686 -0.1801 -0.0929
15753W        W32601  12.775  16.434   3.862  0.2204 -0.0881 -0.0359
15754W        W32602  13.344  13.156   4.733 -0.1969  0.3005 -0.1513
15755W        W32603   5.715   3.073  14.452 -0.0189  0.3098 -0.1476
15756W        W32604  15.764   5.640  14.898  0.0168  0.0028  0.0366
15757W        W32605  14.421   4.957   1.796  0.0999 -0.1184  0.2207
15758W        W32606  16.553  11.967  12.688  0.1110  0.1884 -0.1264
15759W        W32607   7.517  13.026  12.512  0.0561 -0.0727  0.1293
15760W        W32608   4.805  11.169   2.185 -0.2702 -0.0312 -0.4316
15761W        W32609  11.586   2.497   0.919  0.1690 -0.1158 -0.3032
15762W        W32610   6.624   7.303   2.159 -0.0695  0.0497  0.2946
15763W        W32611  13.001  17.250   1.762 -0.1337  0.0947 -0.2216
15764W        W32612  16.073   1.068   0.036 -0.2740 -0.1450 -0.3907
15765W        W32613  12.174  12.048   2.506  0.0741 -0.1572  0.2414
15766W        W32614   0.668   1.729   2.415 -0.2839  0.0041 -0.1985
15767W        W32615  10.875  13.518  13.845  0.2353 -0.1512 -0.0343
15768W        W32616  10.293   0.665  12.912  0.0352 -0.1612  0.3344
15769W        W32617   4.538   7.222  14.738  0.1613 -0.0766  0.2240
15770W        W32618  16.639   7.516  15.563  0.0469  0.4443 -0.1401
15771W        W32619   6.793   0.531  13.926  0.2550 -0.0779 -0.1410
15772W        W32620   3.843   1.715   6.325  0.1584 -0.1230 -0.3740
15773W        W32621   4.385  12.795  14.065  0.1906  0.1489 -0.1373
15774W        W32622  15.075  15.407   2.140  0.1658 -0.1486  0.0982
15775W        W32623   0.082   0.575   4.010 -0.0103 -0.2038  0.0788
15776W        W32624  11.125  15.317   6.273 -0.0331  0.0166 -0.0727
15777W        W32625  13.271   0.589   3.273 -0.2544 -0.0989  0.5304
15778W        W32626  13.881  13.332   4.526 -0.0631 -0.1273  0.1149
15779W        W32627   4.880   4.511   3.510  0.1025 -0.1020 -0.0496
15780W        W32628  10.550  14.610  11.603  0.2060  0.0970  0.0858
15781W        W32629   2.494  17.616  11.885 -0.0053 -0.0305  0.1187
15782W        W32630   4.199   3.655   1.718 -0.1892  0.0637  0.0391
15783W        W32631   4.598   2.729   5.685 -0.1815  0.1045  0.0021
15784W        W32632  13.408  15.442   4.672 -0.1164  0.0471 -0.1293
15785W        W32633   7.054  14.967  12.961 -0.2166  0.1409  0.4604
15786W        W32634  13.618  13.016   3.478 -0.0213 -0.0975  0.2287
15787W        W32635   3.313  13.593   2.077  0.3027 -0.1456  0.1102
15788W        W32636   6.364   3.734   2.379  0.0207 -0.0014  0.2687
15789W        W32637  16.054   4.738  12.281 -0.1458  0.1496  0.0710
15790W        W32638   5.700  14.105  15.934 -0.0527 -0.0423 -0.1581
15791W        W32639  16.887   8.456   5.456 -0.2140  0.2038  0.1300
15792W        W32640   0.075   6.926  11.548 -0.1453  0.2295 -0.1391
15793W        W32641   3.952  10.925   2.698 -0.2470  0.0245  0.1771
15794W        W32642  12.306   2.087  12.214 -0.2291  0.2302 -0.0853
15795W        W32643  15.322  14.829  16.572  0.0527  0.0195  0.1008
15796W        W32644   6.043   7.960  12.907  0.1693 -0.0205  0.1089
15797W        W32645   3.663   4.531   0.971  0.0320 -0.3598  0.1226
15798W        W32646   9.672  14.834   1.329  0.2784 -0.4118  0.0154
15799W        W32647   3.965   2.883  13.480 -0.2232 -0.1007 -0.2205
15800W        W32648   7.506  13.292   3.481 -0.2348  0.0331  0.1521
15801W        W32649   4.163  10.723   0.783 -0.0139 -0.2105 -0.0710
15802W        W32650   9.187  12.667   2.596 -0.4141 -0.1924 -0.1486
15803W        W32651  13.878  13.603   2.671  0.0412 -0.2130 -0.3350
15804W        W32652   5.315  16.632  12.275  0.0280  0.4585 -0.0786
15805W        W32653  12.826   9.401   2.030  0.0773 -0.0577 -0.0778
15806W        W32654  16.778   8.978  12.701 -0.0854  0.1824  0.2672
15807W        W32655  16.322   5.801   1.034  0.1480  0.1663 -0.0591
15808W        W32656  13.104  12.260  13.755 -0.1139  0.0978 -0.0474
15809W        W32657   3.615  16.425  13.024 -0.0846 -0.1356  0.1981
15810W        W32658  14.000   0.137  13.996  0.1446  0.3841  0.2956
15811W        W32659   9.574  13.317  15.013  0.0783  0.3612  0.1037
15812W        W32660  15.205  12.908  11.960 -0.0334  0.0367 -0.1073
15813W        W32661   8.152   2.768  15.254  0.5014  0.0898 -0.3668
15814W        W32662   9.461   2.375   2.222 -0.1321  0.0841  0.1140
15815W        W32663  17.282  14.691  13.264  0.0377 -0.2297  0.0359
15816W        W32664   8.678  12.059  15.925  0.1514  0.0890 -0.1425
15817W        W32665   6.505   4.082  16.348 -0.2291  0.0085  0.0817
15818W        W32666   5.826   6.897   2.179 -0.1896  0.1118  0.0421
15819W        W32667  15.439  10.297  11.829  0.3225 -0.1682  0.0275
15820W        W32668  16.651   1.755   1.000 -0.2243 -0.1220 -0.0734
15821W        W32669   1.659   1.762  15.487 -0.3124 -0.0513  0.0079
15822W        W32670   0.790  13.984  12.671  0.1354 -0.1074 -0.1345
15823W        W32671   6.644   9.310  14.124  0.1269  0.0720 -0.0590
15824W        W32672   0.127   6.567   4.491 -0.2223  0.2852  0.2010
15825W        W32673  12.650   3.073   0.339  0.0798  0.2546  0.1285
15826W        W32674  15.814  12.102  12.282  0.0619 -0.2056 -0.0140
15827W        W32675   8.900  10.238   4.999 -0.1444  0.2509  0.0787
15828W        W32676  11.424   5.390   0.229  0.0033 -0.3560  0.1175
15829W        W32677   2.619  11.744   3.014 -0.1573 -0.3538  0.0340
15830W        W32678   9.565   4.470   3.486 -0.0553 -0.0121  0.0471
15831W        W32679  14.078  14.604  16.190  0.1897 -0.0860  0.0812
15832W        W32680  13.823   4.029  14.596 -0.0118 -0.2374  0.3833
15833W        W32681   5.896  17.124  14.308 -0.1543  0.0934 -0.3477
15834W        W32682  11.002   5.090  16.656 -0.2758  0.0477  0.1554
15835W        W32683   7.999  13.670  12.980  0.0644 -0.1797  0.1066
15836W        W32684   1.639  16.862  11.472  0.0316  0.0280  0.1598
15837W        W32685  15.822   6.019  12.207  0.0392  0.0974 -0.0346
15838W        W32686   6.576  14.453  13.638 -0.0851 -0.0655  0.1147
15839W        W32687  16.790  16.852  14.620 -0.1894 -0.3454  0.3690
15840W        W32688  15.146   1.990   3.930  0.1064  0.0177  0.0465
15841W        W32689  13.038  11.747   1.797 -0.1498  0.0205  0.0488
15842W        W32690  12.573   5.521   2.412  0.0052  0.0228 -0.1978
15843W        W32691   3.934   9.369   1.866 -0.2047 -0.0270  0.0383
15844W        W32692   0.124  17.075   3.385 -0.0530  0.2284 -0.1761
15845W        W32693  12.623  15.943   3.944 -0.1517  0.1307  0.0778
15846W        W32694   1.741  14.116   0.833 -0.2127  0.1710  0.1808
15847W        W32695   2.403   4.751   3.482  0.0873  0.1965  0.2048
15848W        W32696   0.541   8.170   0.314  0.0339  0.3933  0.1257
15849W        W32697   7.012  16.979  14.368  0.1915  0.1108 -0.0982
15850W        W32698   9.139  12.670   0.974  0.1162  0.0420 -0.0141
15851W        W32699   3.641  12.204  14.419 -0.2419  0.0972 -0.1451
15852W        W32700   2.503  14.076  14.147  0.0790  0.0661 -0.1295
15853W        W32701  16.128  12.919  12.014  0.0336 -0.0618  0.2535
15854W        W32702   2.928  12.157  11.257  0.1971 -0.2272  0.0074
15855W        W32703   4.347   3.785   2.188  0.1578  0.1102 -0.0925
15856W        W32704  12.995   3.103   1.431 -0.1272  0.4509 -0.1136
15857W        W32705   7.687   0.218  13.577  0.0783 -0.0296 -0.2120
15858W        W32706   6.008  12.561  15.360  0.0465 -0.3091 -0.2370
15859W        W32707  14.581   7.665  11.616 -0.1290  0.1234  0.2317
15860W        W32708   2.171  15.868  14.479  0.1102  0.2499  0.0393
15861W        W32709   1.799  15.947  15.670  0.2256  0.0790 -0.0021
15862W        W32710  15.462  12.286  15.513  0.1360  0.0820  0.0247
15863W        W32711   9.938   0.043  14.613  0.0723  0.1661 -0.0362
15864W        W32712   7.724  13.168   6.070  0.0917  0.1309  0.0470
15865W        W32713  10.003   9.645   4.593  0.2081  0.1306 -0.2688
15866W        W32714   0.862   9.749   1.943 -0.1376 -0.2406  0.0556
15867W        W32715   5.789   9.259  12.069 -0.0440 -0.0028 -0.0567
15868W        W32716  16.776   4.281   3.288  0.0153  0.2442  0.1041
15869W        W32717  16.997   5.502   2.025  0.1578 -0.0267 -0.3830
15870W        W32718   4.504   4.089  12.369 -0.2833  0.0313  0.0930
15871W        W32719  15.258  13.116  16.288  0.0355 -0.1692 -0.0449
15872W        W32720  17.522   1.394  13.016  0.1184  0.4203 -0.3349
15873W        W32721   3.779   6.865  16.470 -0.1283 -0.1139  0.4225
15874W        W32722  11.798   8.179   5.540  0.1768 -0.2161 -0.2062
15875W        W32723   1.914   9.747   0.895 -0.2967 -0.0995 -0.1108
15876W        W32724   0.037   1.843  16.191 -0.1424 -0.0028 -0.0874
15877W        W32725  17.391   7.889  13.607 -0.1843 -0.0917 -0.0468
15878W        W32726   1.409   3.771   5.017 -0.3464  0.1422  0.1501
15879W        W32727  11.218   1.076  12.836  0.0282 -0.0407 -0.0372
15880W        W32728   1.717   9.727   2.245  0.0324 -0.0968 -0.3235
15881W        W32729   4.354   0.860   2.259  0.1989  0.0223  0.0813
15882W        W32730   1.861   1.261   4.596 -0.0414  0.1373  0.1245
15883W        W32731   8.921   6.933   0.176  0.0175  0.0047 -0.0348
15884W        W32732  15.453  14.310   3.531  0.0301  0.0624  0.1522
15885W        W32733  11.067   1.915   5.796  0.2118 -0.0854 -0.0975
15886W        W32734   2.804  12.899  11.738 -0.2356 -0.1681 -0.2692
15887W        W32735   4.474   7.990  15.871  0.2458  0.0801 -0.0311
15888W        W32736   5.949  15.270  15.364 -0.1159 -0.1856  0.1395
15889W        W32737   1.517   5.304   0.753  0.1491 -0.0544  0.1981
15890W        W32738   1.021   1.525  11.128  0.0775  0.2366  0.0803
15891W        W32739  16.910   1.904  14.067 -0.1642  0.1895 -0.1294
15892W        W32740   8.643  16.425  11.043 -0.2448  0.2566  0.0714
15893W        W32741  16.411   0.585  15.007 -0.3379  0.0335 -0.1202
15894W        W32742  16.487   1.194  14.984  0.0246 -0.3633  0.2995
15895W        W32743   8.877   0.406  15.415 -0.0425 -0.0721 -0.0430
15896W        W32744  15.698  12.076   2.594  0.0713 -0.0073 -0.4159
15897W        W32745   3.956   5.065  13.141 -0.1876  0.2799 -0.2433
15898W        W32746   0.391   6.936   3.751 -0.1969  0.0758  0.3064
15899W        W32747  17.438   8.765   1.563 -0.2399 -0.1510  0.2669
15900W        W32748   7.345  17.562   2.188 -0.1095  0.0734 -0.0880
15901W        W32749  14.931   4.140  11.819  0.0246 -0.1222 -0.1192
15902W        W32750  17.634   6.831   4.074 -0.2641  0.0407 -0.0375
15903W        W32751  12.274  13.989   0.601  0.1616  0.1889  0.1272
15904W        W32752   5.246   7.089   4.843 -0.0921  0.2090  0.3145
15905W        W32753   2.795  16.655  14.592  0.1025  0.0440 -0.1845
15906W        W32754  13.999  15.700  14.443 -0.1394 -0.0722  0.2344
15907W        W32755  11.197  10.979   2.074 -0.0195  0.0319  0.1033
15908W        W32756   9.141  14.349  16.017 -0.2641  0.2762  0.2878
15909W        W32757  10.314   0.858   0.617 -0.0512 -0.1424 -0.0596
15910W        W32758   4.465   7.929  11.596  0.1195  0.1465  0.0473
15911W        W32759   1.299   4.832  16.511  0.2338 -0.0031  0.1919
15912W        W32760  15.856   9.517   3.229  0.2774 -0.1497  0.2112
15913W        W32761   7.995   5.473  14.563 -0.2498  0.0365  0.1303
15914W        W32762  13.831   4.048   3.754  0.0366  0.1257  0.0743
15915W        W32763  15.791   6.478   2.689  0.1242 -0.0473 -0.4325
15916W        W32764  10.041   0.170   6.137 -0.1713  0.0721  0.0076
15917W        W32765   7.090  13.599   0.694 -0.0631 -0.1356  0.3552
15918W        W32766   1.556   8.873   5.191 -0.0005  0.1253 -0.1679
15919W        W32767   8.870   8.624  13.265  0.1146  0.3630 -0.0868
15920W        W32768   8.267  15.372  11.767  0.2363 -0.1698  0.1049
15921W        W32769  12.723  15.137   0.215 -0.1281  0.0699  0.1701
15922W        W32770   2.849   3.194   5.052 -0.1219  0.0533 -0.0778
15923W        W32771   1.846  12.543  15.548 -0.1243  0.0726  0.0155
15924W        W32772   6.157  14.743  11.286  0.0898 -0.1385  0.2381
15925W        W32773   8.311  16.692   4.570 -0.0131  0.1663 -0.1192
15926W        W32774   1.955  14.084   5.068 -0.1347 -0.0297  0.0703
15927W        W32775  10.224   8.539  11.938 -0.1599 -0.1596  0.1121
15928W        W32776  11.814  16.868  12.949  0.2414 -0.0925  0.0796
15929W        W32777   1.702   5.069   4.690  0.1739 -0.2642 -0.0415
15930W        W32778  16.210  17.252  16.587 -0.0306 -0.0444 -0.0400
15931W        W32779   0.556  12.159  12.213  0.0010 -0.2009  0.2609
15932W        W32780   4.318   3.321  15.472 -0.0897  0.2155  0.0481
15933W        W32781   1.410   7.751  15.736  0.1198  0.2885 -0.0266
15934W        W32782   4.765   5.705  12.858  0.0557 -0.2365  0.1337
15935W        W32783   0.757   4.840   4.149  0.0897 -0.4393 -0.0030
15936W        W32784  13.087   3.855   0.203  0.1023  0.2185  0.1268
15937W        W32785  12.372   9.280  16.369 -0.1796  0.2115  0.2274
15938W        W32786  11.229   8.754  13.746 -0.0098  0.1699 -0.0748
15939W        W32787  15.534   4.565   0.849  0.0858  0.1437  0.1199
15940W        W32788   8.864  16.895   0.950  0.2118  0.3643  0.2473
15941W        W32789  10.805  10.735   2.506 -0.1612  0.0494  0.1175
15942W        W32790  13.032  10.168   1.634  0.0189  0.0081 -0.3076
15943W        W32791  14.526  12.485  12.329  0.0853  0.0646 -0.0390
15944W        W32792   6.420  12.281  13.797 -0.0264  0.0804  0.2274
15945W        W32793  10.706   8.922  16.410  0.0264  0.4071 -0.0548
15946W        W32794  13.709  11.229  15.562  0.0437 -0.0597  0.2554
15947W        W32795   4.320  11.265   1.860 -0.0494  0.3179 -0.1344
15948W        W32796   5.598  15.744   4.176  0.2168 -0.0305 -0.3660
15949W        W32797  13.432   4.492   2.489 -0.2033  0.3094  0.2177
15950W        W32798   0.276   2.164  16.469  0.2614 -0.0033  0.1788
15951W        W32799  13.624  10.040  11.959 -0.1398 -0.1247 -0.0904
15952W        W32800   8.900  10.741   1.371  0.2098 -0.0383  0.0883
15953W        W32801  13.253   7.123   3.378 -0.3304 -0.3432  0.1592
15954W        W32802  10.813   7.658   2.210  0.1734  0.5139 -0.0305
15955W        W32803  13.263   8.985   2.515 -0.1671  0.0201 -0.2247
15956W        W32804  16.261  14.089  13.895  0.1226  0.1143 -0.0766
15957W        W32805   9.118   5.578   5.376 -0.1845  0.2022 -0.0120
15958W        W32806   0.777  10.342  16.472  0.0632 -0.0130 -0.1340
15959W        W32807  16.428  13.580  11.124  0.2172 -0.1232 -0.0885
15960W        W32808   5.441  16.232   6.307 -0.1915  0.0549  0.1681
15961W        W32809   0.917  13.096  13.349 -0.2098  0.0504  0.1562
15962W        W32810   8.819  13.588   0.669  0.1455  0.2331 -0.1411
15963W        W32811  15.454   4.526  12.513 -0.0161  0.5557 -0.1623
15964W        W32812   4.070  13.687  12.919  0.1671  0.3621 -0.1525
15965W        W32813   0.699  14.397   3.196  0.1255 -0.1541 -0.1760
15966W        W32814  14.085  16.239   3.775 -0.1947  0.0813  0.1525
15967W        W32815   8.263   2.828   3.649 -0.2706  0.0463  0.2829
15968W        W32816  11.254  15.754  15.973  0.2974 -0.1752 -0.1447
15969W        W32817   1.123   9.087  12.000 -0.0357 -0.1081 -0.0200
15970W        W32818   1.187   8.374   1.930  0.0726 -0.1967 -0.1381
15971W        W32819   4.481  14.986   4.456  0.0288 -0.0131  0.0799
15972W        W32820   4.835   8.477   1.176  0.1951 -0.3199 -0.0000
15973W        W32821  15.280   0.858  15.230 -0.0137 -0.2613  0.2208
15974W        W32822  12.505  14.344  13.335  0.1875  0.0526  0.2719
15975W        W32823  11.987  11.500   4.326 -0.0859  0.0637 -0.0211
15976W        W32824   5.390   9.575   0.137 -0.1996 -0.0844  0.1552
15977W        W32825  16.201   6.402  15.855  0.0108 -0.1083  0.0698
15978W        W32826  13.639   9.570  14.287 -0.2766 -0.1946  0.4285
15979W        W32827  17.700   2.623   1.792 -0.1280  0.3360  0.0043
15980W        W32828   6.166  10.808   4.180  0.1799  0.2541 -0.2393
15981W        W32829   5.246   5.082   3.933 -0.1339  0.1952  0.0729
15982W        W32830   8.504   9.240   4.723 -0.0884 -0.0821 -0.1096
15983W        W32831   5.461  10.830  11.426  0.1302 -0.0724  0.1010
15984W        W32832   0.027   4.620   3.454 -0.1032  0.2034 -0.2242
15985W        W32833   1.104  11.852  13.305  0.0254  0.0821 -0.0608
15986W        W32834   3.972   6.313  16.082 -0.0639 -0.3030 -0.0481
15987W        W32835   9.715  14.196  14.648  0.0126 -0.0879 -0.1552
15988W        W32836  16.906   9.187   2.662  0.1536 -0.1311 -0.2153
15989W        W32837   5.119  12.357  15.480  0.1096  0.1893  0.0972
15990W        W32838   0.479   6.343  11.806 -0.2787  0.1686  0.2722
15991W        W32839  11.195   6.335   5.132  0.3465  0.0103 -0.1230
15992W        W32840  12.002  13.772   0.989 -0.1777 -0.3048  0.1062
15993W        W32841   9.034   9.898   4.146  0.0359 -0.0572 -0.3033
15994W        W32842  13.608   6.062  13.475  0.2166  0.4085  0.1152
15995W        W32843   1.942   4.814   2.208 -0.3305 -0.0673  0.2475
15996W        W32844   8.988   6.825   0.764 -0.2062  0.1228  0.0457
15997W        W32845  10.564  13.722  11.733 -0.2279  0.0410  0.1695
15998W        W32846  11.605  13.672  14.259  0.0281  0.1228 -0.0596
15999W        W32847  11.636  10.509   3.328 -0.0559 -0.0477  0.0311
16000W        W32848  11.315  12.750   0.451 -0.2598 -0.0374 -0.0121
16001W        W32849   4.327  12.308   1.172  0.1771  0.1004 -0.0124
16002W        W32850   3.195  13.045   1.090 -0.0321  0.2719  0.2460
16003W        W32851   4.503   0.972   2.733  0.0149 -0.1453 -0.2838
16004W        W32852   2.412  17.339  13.972  0.1515 -0.3745  0.0421
16005W        W32853  13.578  14.391   1.692 -0.1757  0.1808  0.0686
16006W        W32854  11.936   4.160   3.334 -0.3155 -0.0143 -0.1285
16007W        W32855   7.424   9.215  16.475  0.0597 -0.0301  0.3642
16008W        W32856   1.305   7.162   3.232  0.0893 -0.1989  0.0686
16009W        W32857  14.662  13.397  13.363 -0.3494  0.1169 -0.2036
16010W        W32858   1.216  11.731  14.927  0.0534 -0.2045 -0.2079
16011W        W32859   1.527   9.335  15.027 -0.0240  0.0826 -0.1810
16012W        W32860   3.683  17.542  13.778 -0.2078  0.0386  0.0977
16013W        W32861   9.777  12.495   3.206  0.1308  0.1273 -0.0968
16014W        W32862  17.187   7.122  12.215 -0.1741  0.0780  0.3445
16015W        W32863   2.499   3.904   3.324  0.0763  0.1864  0.0173
16016W        W32864  11.069  14.607  11.726  0.1062 -0.3476  0.2919
16017W        W32865  14.361   8.888  11.199 -0.2367 -0.0874 -0.1969
16018W        W32866   5.660   9.641  12.466 -0.1148 -0.2329  0.2032
16019W        W32867  12.154   4.675  16.327 -0.0623  0.0793  0.0489
16020W        W32868   9.016  15.270   5.564  0.1096  0.2336  0.1786
16021W        W32869   9.000  15.713   5.216 -0.2116 -0.0695 -0.1978
16022W        W32870   6.884   8.557  16.263 -0.1740 -0.2477  0.3114
16023W        W32871  13.403   4.943   4.237  0.0587  0.1097  0.0751
16024W        W32872  13.863   3.752  14.181 -0.4392  0.1567  0.0770
16025W        W32873   1.062   1.859   3.528  0.1179 -0.2928 -0.1169
16026W        W32874   3.625  10.824  14.858 -0.2031 -0.1287  0.0414
16027W        W32875  16.350  16.968  14.402 -0.0529 -0.0413  0.1304
16028W        W32876   8.541   7.303  14.574 -0.1837  0.2831  0.1616
16029W        W32877  12.647   6.460  11.416  0.0067 -0.0795 -0.0352
16030W        W32878  17.649  14.102   1.907  0.1302 -0.2055 -0.0320
16031W        W32879  11.791   7.996   2.272 -0.0840 -0.0809  0.0041
16032W        W32880   0.667   3.761  12.468 -0.2348 -0.0683 -0.0864
16033W        W32881   1.784  15.868   4.150  0.0690 -0.0749 -0.0229
16034W        W32882   7.196  14.566   0.499 -0.0987  0.1248  0.1506
16035W        W32883  16.248   3.860   0.520  0.2354 -0.3179  0.0969
16036W        W32884   5.419  11.331  15.545 -0.0092  0.1833 -0.1649
16037W        W32885   0.626   9.506  16.117 -0.0351 -0.0412 -0.0279
16038W        W32886   0.893   0.738   2.900  0.0424 -0.0213 -0.0320
16039W        W32887   3.578  10.139  14.946  0.1020 -0.1594 -0.2124
16040W        W32888   9.014   4.075  14.506  0.2338  0.0573  0.0087
16041W        W32889  16.587   6.465  11.113  0.1212 -0.0478 -0.0597
16042W        W32890   9.332   3.318  15.365  0.2804  0.1610  0.0266
16043W        W32891   2.212  12.520   3.151  0.0722 -0.0584  0.2744
16044W        W32892  15.414   7.583   2.841 -0.1922  0.2922  0.2505
16045W        W32893   1.823  14.670  14.545 -0.0944 -0.1894 -0.1344
16046W        W32894   6.503   4.824   5.218  0.1414 -0.1913  0.0428
16047W        W32895   7.831  16.968  12.650 -0.0433  0.0507 -0.1028
16048W        W32896  14.303  12.661  14.428 -0.1886 -0.0657 -0.1483
16049W        W32897   1.492   6.217  13.696  0.0879 -0.2992 -0.0623
16050W        W32898   6.700   3.336  14.391 -0.1698  0.1336  0.2512
16051W        W32899  16.769  16.674   0.816  0.1157 -0.1759 -0.0441
16052W        W32900  12.309   5.615   1.196 -0.2342 -0.0996  0.1768
16053W        W32901  10.354   7.035   1.295  0.0586 -0.2317 -0.1435
16054W        W32902   8.348  16.202   4.506 -0.0265  0.1204 -0.1964
16055W        W32903   4.763  15.476  10.687 -0.1526 -0.1573 -0.0041
16056W        W32904  16.588   2.794   1.462  0.3008 -0.1712 -0.2141
16057W        W32905   9.906  13.730   3.344 -0.1565  0.7248 -0.0537
16058W        W32906   6.274   8.935  14.934  0.0224 -0.0287 -0.1365
16059W        W32907   6.277  13.031   2.287 -0.0489 -0.2475 -0.2124
16060W        W32908  15.559   3.803   1.750  0.2341  0.0038 -0.2086
16061W        W32909  12.527  12.223  15.741  0.0182 -0.3370  0.0960
16062W        W32910  17.617  13.964  13.043  0.0291  0.1700  0.2311
16063W        W32911  14.945   1.372   2.273  0.2232 -0.0612  0.1437
16064W        W32912   9.941  13.338  13.816  0.1762  0.0214  0.2455
16065W        W32913   6.598   1.445  16.085 -0.0584 -0.0499  0.0619
16066W        W32914  12.619   0.048   4.624 -0.0241 -0.3790 -0.0079
16067W        W32915  10.454  10.663  16.647  0.0624  0.1359  0.1665
16068W        W32916   9.671  11.526   5.161 -0.1062  0.1325  0.0001
16069W        W32917  11.680   3.743  12.171  0.1629  0.0516  0.3870
16070W        W32918   7.043   7.663   2.888 -0.0240 -0.2721  0.2120
16071W        W32919   6.689   2.570   3.913  0.2212 -0.0545 -0.0892
16072W        W32920   3.182  11.229   0.274 -0.1282 -0.1260 -0.0687
16073W        W32921   0.017  11.210  11.396 -0.0081  0.0484 -0.0267
16074W        W32922  13.685  12.657  14.282  0.0306 -0.0924 -0.2828
16075W        W32923   4.671  14.620  13.936  0.0769  0.1524  0.0355
16076W        W32924  11.330   3.336  13.266 -0.1614 -0.0769  0.0835
16077W        W32925   5.645   9.027  14.107  0.1167 -0.1963 -0.0472
16078W        W32926  17.620  14.073  12.113 -0.0266 -0.1771  0.3015
16079W        W32927   1.402  14.286  11.885 -0.0074  0.0631 -0.2726
16080W        W32928  10.732   9.213  15.434 -0.1991 -0.0321 -0.2057
16081W        W32929   6.059   8.695  12.406  0.2974 -0.1451 -0.0641
16082W        W32930  17.498  15.237  15.263 -0.2030  0.0288 -0.0403
16083W        W32931  16.356   0.009   0.088  0.0105 -0.0054  0.1112
16084W        W32932   5.762  11.768   0.925 -0.0422 -0.2615 -0.2050
16085W        W32933   6.907   9.529  10.423 -0.1854 -0.0608  0.0506
16086W        W32934  11.723  13.201   1.631  0.2099 -0.1487 -0.1153
16087W        W32935   3.452   3.722   2.281 -0.0179  0.1376  0.1734
16088W        W32936   1.514  10.646  15.720  0.3102 -0.0244  0.0720
16089W        W32937   2.537   5.633  13.419  0.0811  0.0914 -0.2094
16090W        W32938  13.000   9.888  15.809 -0.0777 -0.2097  0.0723
16091W        W32939   8.298   6.164   5.725  0.1033 -0.2976  0.0314
16092W        W32940   7.506  11.908  15.426 -0.1494  0.1562  0.0997
16093W        W32941  16.974   8.894   5.289  0.0094 -0.0386  0.2479
16094W        W32942  12.752   9.112   2.504  0.3443  0.0493 -0.2718
16095W        W32943  10.229  10.033   2.077 -0.0033  0.0341 -0.2887
16096W        W32944  13.429  14.541  15.040 -0.0535 -0.1097 -0.3562
16097W        W32945  15.283   6.786  14.986  0.0643  0.0684  0.1364
16098W        W32946  12.672   6.018   2.666 -0.2362  0.0451 -0.1899
16099W        W32947   6.853  15.470   3.323 -0.0291  0.0892 -0.1016
16100W        W32948  15.392   5.079   3.929  0.3550 -0.1118 -0.2861
16101W        W32949  14.456  16.654  13.180  0.1552  0.1976 -0.0538
16102W        W32950   6.706   5.445  15.672 -0.2149  0.3516  0.2711
16103W        W32951  13.181   1.083   0.526  0.0340 -0.1226 -0.0128
16104W        W32952  16.642   4.327  11.813  0.1224 -0.1138 -0.1853
16105W        W32953  11.301  16.924  14.942 -0.1222 -0.0362 -0.1543
16106W        W32954   3.629   6.919   2.024 -0.1872  0.0521  0.2105
16107W        W32955  12.351   9.881  12.587 -0.0070  0.0121  0.0111
16108W        W32956   5.978   0.698  16.435 -0.3095  0.1378  0.0394
16109W        W32957  13.037   3.508  14.743  0.1463 -0.0373  0.0613
16110W        W32958  10.769   1.508   1.153  0.3031  0.0478  0.1753
16111W        W32959   7.530  10.306   1.743  0.0457 -0.0633 -0.0341
16112W        W32960   5.664   3.615  11.554 -0.1299  0.0922 -0.3069
16113W        W32961  14.391  15.184   4.795  0.0968 -0.1118  0.1306
16114W        W32962  15.254   5.517   4.762 -0.2135 -0.1185  0.2842
16115W        W32963   0.117   7.491  11.898 -0.1952  0.3575 -0.1926
16116W        W32964   6.382   4.500   1.925 -0.0781 -0.2594 -0.0418
16117W        W32965  15.463  15.197   3.579 -0.1916  0.4085  0.0026
16118W        W32966  16.760  16.732   1.385 -0.0479 -0.2942 -0.1151
16119W        W32967  14.977   7.706  15.564 -0.1027 -0.4254  0.2030
16120W        W32968   6.055   3.176  15.369  0.1335  0.2502 -0.1184
16121W        W32969   6.433   4.437   2.905 -0.0850  0.0617 -0.1137
16122W        W32970   6.779  16.754   2.670  0.0584 -0.1406 -0.0668
16123W        W32971  12.662  10.567  15.334  0.0860  0.2289  0.0216
16124W        W32972   6.458  10.061  14.594 -0.0847  0.1901  0.0288
16125W        W32973   7.963  12.835  12.249 -0.0562 -0.1989  0.0843
16126W        W32974  13.694   6.450  14.830 -0.1579 -0.2007  0.0219
16127W        W32975  10.495   3.356   1.981  0.1214  0.2458 -0.1208
16128W        W32976   8.668  12.817   6.139 -0.0318  0.5409 -0.0640
16129W        W32977  10.212  10.058  11.483  0.2115 -0.2085 -0.1623
16130W        W32978  10.442  10.869   5.110 -0.3631  0.0277 -0.0877
16131W        W32979  15.179  15.764  13.987 -0.0710  0.1319  0.0184
16132W        W32980   3.439   7.618   5.763 -0.0814 -0.2523 -0.0617
16133W        W32981   5.280  17.435   3.633  0.0612  0.0294 -0.0186
16134W        W32982  17.411   8.496  14.406  0.3053  0.0784 -0.2269
16135W        W32983  11.196   3.305  14.257  0.0958  0.1679 -0.0317
16136W        W32984  10.115   9.110   4.282 -0.2059  0.2816  0.0394
16137W        W32985  13.300   3.979  15.861  0.1219  0.2491  0.2681
16138W        W32986   9.101  13.000  11.326  0.0053  0.2807 -0.2977
16139W        W32987  15.575  13.490   3.021 -0.0074  0.2000  0.2553
16140W        W32988   3.272   4.521   0.669  0.3531  0.1295 -0.1581
16141W        W32989  16.997   3.342  16.017  0.1354 -0.0346  0.0981
16142W        W32990  14.346   4.734  16.270 -0.0166  0.1671 -0.1703
16143W        W32991   9.783   9.470   4.170  0.2286 -0.1275 -0.0675
16144W        W32992   6.412   5.601   4.024 -0.3914 -0.0513  0.0890
16145W        W32993  12.999  14.566   3.351 -0.0270  0.0135 -0.0387
16146W        W32994   1.179  10.788   4.288  0.3759 -0.1291 -0.2779
16147W        W32995  12.949   6.298  16.622 -0.2105  0.0983  0.0236
16148W        W32996  15.510   9.738  16.037 -0.1077 -0.1099 -0.1401
16149W        W32997   7.383   1.150   2.827 -0.1776  0.2411  0.0424
16150W        W32998  16.727  14.008  13.725 -0.1225  0.1817  0.1592
16151W        W32999   0.643  17.619   1.863  0.1449 -0.0886 -0.1380
16152W        W33000   3.482  10.823   3.003 -0.0620  0.2324  0.0546
16153W        W33001  12.281   9.771   4.031 -0.2210 -0.1859  0.2725
16154W        W33002  11.700   9.919   1.391  0.0607  0.0074  0.0688
16155W        W33003  10.784   6.895  13.311 -0.0899 -0.0169  0.1511
16156W        W33004  10.732   9.440   3.788 -0.2241  0.0795  0.1697
16157W        W33005  10.773   6.360  11.497 -0.1662 -0.2607 -0.3943
16158W        W33006   2.219   5.117   0.381  0.1229  0.1810 -0.2247
16159W        W33007  13.815  11.169   1.833 -0.1037  0.2319 -0.0047
16160W        W33008  11.118   2.037  14.472  0.0989  0.1764  0.0678
16161W        W33009   4.947   7.260  13.368  0.0937  0.2148  0.0675
16162W        W33010  12.472   0.823   3.552  0.0158 -0.2138  0.0903
16163W        W33011  15.519  10.052   0.203 -0.2068  0.0310  0.0638
16164W        W33012  11.494  16.695   3.137 -0.1104 -0.0592 -0.1799
16165W        W33013  13.227  14.760  15.868 -0.1450 -0.3172 -0.1353
16166W        W33014   3.979   3.894   0.725 -0.2430 -0.0161 -0.1020
16167W        W33015   3.242   6.527  13.512 -0.0697  0.0140 -0.0086
16168W        W33016   8.017   4.013  11.954  0.1591  0.2124  0.1342
16169W        W33017   3.110   3.739   1.887 -0.0444 -0.0311  0.3805
16170W        W33018  15.819   9.395   2.751 -0.2787  0.1102 -0.0896
16171W        W33019   2.038   8.939   0.772  0.0126 -0.0585  0.1126
16172W        W33020   8.201   7.742   4.681  0.0317  0.0089  0.0632
16173W        W33021  17.512   3.463  12.507 -0.1421 -0.0388  0.1472
16174W        W33022   8.831  17.435   1.005 -0.0858  0.2465  0.1344
16175W        W33023   9.462   2.137  11.796 -0.0408 -0.2347 -0.1519
16176W        W33024   3.222   8.358  16.350  0.1143  0.0121 -0.0164
16177W        W33025  12.558   2.547   2.167 -0.1155  0.1007 -0.0253
16178W        W33026   6.151  12.100   4.045  0.1775  0.1474 -0.0027
16179W        W33027   4.858  16.203   0.738  0.2477  0.2932  0.0011
16180W        W33028   7.374   7.113   4.519  0.1403  0.0932  0.1275
16181W        W33029   6.733   7.465  16.666  0.2742  0.1734  0.0452
16182W        W33030  13.490   5.908   2.752  0.0669  0.3077  0.0915
16183W        W33031  12.833   8.117  16.532  0.1155  0.0171 -0.2082
16184W        W33032   8.980  15.565  11.828  0.0457 -0.1260 -0.0659
16185W        W33033   1.170   6.040  15.473 -0.4304 -0.0212 -0.0378
16186W        W33034   5.044  11.739  14.223  0.0815 -0.0549 -0.1618
16187W        W33035  14.999  15.732  11.434  0.3608  0.1748  0.0419
16188W        W33036   0.679   4.322  16.313 -0.1246  0.0546  0.1325
16189W        W33037   3.695   9.015   2.930  0.2340  0.2896 -0.0757
16190W        W33038   3.364   4.327   5.920  0.2727 -0.1442 -0.2247
16191W        W33039   5.116  13.214   1.754  0.1679 -0.2847 -0.1597
16192W        W33040   6.135  14.222  14.634 -0.3058  0.1691  0.0026
16193W        W33041  14.491   5.107   4.492  0.0441 -0.0743  0.1118
16194W        W33042   2.907   1.539   3.986 -0.0039  0.1896  0.2728
16195W        W33043  17.449   6.493   2.726  0.0488  0.1581 -0.2499
16196W        W33044   0.212  12.575  15.337  0.1188  0.0777 -0.2420
16197W        W33045  14.532   1.498  16.110  0.0619  0.1132  0.2608
16198W        W33046   7.414   2.825   2.480  0.0641  0.2220  0.1240
16199W        W33047   5.412   8.619   0.024  0.0676  0.0120  0.1374
16200W        W33048  15.963   6.048  14.525  0.1402  0.1935 -0.0797
16201W        W33049   2.798  11.931   0.402  0.0694  0.1009 -0.4391
16202W        W33050   9.045   0.271  14.940 -0.0694 -0.1954 -0.1001
16203W        W33051   3.616   7.978  15.579 -0.1422  0.1179  0.0531
16204W        W33052  10.796   8.601  15.605 -0.0918  0.0728  0.0245
16205W        W33053   2.657  16.987   4.188 -0.2419 -0.0471 -0.1809
16206W        W33054  12.723  10.946   1.124  0.0722 -0.1048  0.0979
16207W        W33055  14.182  11.076   3.644 -0.3425 -0.0315 -0.1534
16208W        W33056   5.788  12.282   4.465 -0.1574 -0.0392  0.3310
16209W        W33057  13.387   2.687  16.318 -0.1518 -0.3302  0.0745
16210W        W33058  10.116  15.219  11.483 -0.2584 -0.0685  0.2527
16211W        W33059  17.605  14.632  14.181  0.0269  0.1418  0.1192
16212W        W33060   3.288   5.930   1.567  0.3622 -0.2301  0.1802
16213W        W33061  10.912  15.730   1.850 -0.1704 -0.3803  0.0818
16214W        W33062   2.795  15.860   4.087 -0.1676  0.1107 -0.0263
16215W        W33063  10.800  13.062  11.849  0.0984  0.1680 -0.0488
16216W        W33064  15.604   2.090   3.915  0.3935  0.0680 -0.0049
16217W        W33065  10.919   7.299   2.543 -0.0480 -0.1529 -0.1592
16218W        W33066   9.367  11.716   3.668  0.1161 -0.2032 -0.0299
16219W        W33067   9.635  11.816   3.221  0.1367 -0.1384  0.1101
16220W        W33068   7.334   4.552  11.735 -0.0958 -0.2428  0.0469
16221W        W33069  15.644   7.622  15.582  0.1936 -0.0561  0.0937
16222W        W33070   5.696  16.067   0.511 -0.2092 -0.0692 -0.3135
16223W        W33071  14.078   2.774   0.605  0.0265 -0.2353  0.0964
16224W        W33072  10.487   5.313   1.583  0.0288 -0.3566 -0.0787
16225W        W33073   0.566  15.591   2.285  0.1010  0.0028  0.0779
16226W        W33074  15.703  16.312  14.310 -0.0599 -0.0258 -0.1568
16227W        W33075  15.599   6.289  11.851  0.1355 -0.0439  0.0844
16228W        W33076  17.094   8.891  15.711 -0.1473  0.1566  0.1383
16229W        W33077   4.300   6.401  13.425 -0.1539 -0.2154 -0.1828
16230W        W33078  17.695  10.749  15.641  0.2184 -0.0999 -0.1148
16231W        W33079   1.585   8.892  12.258  0.0524  0.1020 -0.1610
16232W        W33080  16.322   8.933   1.929 -0.2040  0.1192  0.1605
16233W        W33081   1.696   7.521  16.666 -0.0569  0.1989  0.0702
16234W        W33082   5.938   5.181  12.599 -0.0394  0.2604 -0.2075
16235W        W33083   0.659  15.327   5.824 -0.2147 -0.0719  0.2047
16236W        W33084   4.376  11.449  11.104  0.0234 -0.0907  0.1191
16237W        W33085  13.223  14.183   2.614 -0.0815 -0.1676 -0.1489
16238W        W33086   7.981  13.143  11.676 -0.1716 -0.1526  0.1778
16239W        W33087   4.276   6.539  16.441 -0.0349  0.1985  0.0452
16240W        W33088  10.348  14.685  14.208 -0.3187 -0.0185  0.0981
16241W        W33089  10.787  12.343  12.500  0.1000 -0.0172  0.0328
16242W        W33090  14.123  14.283   3.224 -0.0109  0.2957  0.1011
16243W        W33091   5.773  13.009  14.151 -0.1189  0.6623  0.0601
16244W        W33092   3.211  14.298  11.241 -0.1231  0.2253  0.2522
16245W        W33093  12.797   7.497  13.024  0.1015 -0.2236  0.0180
16246W        W33094  11.690   7.015  15.738 -0.1231 -0.3389  0.0296
16247W        W33095   8.740  11.085   4.698  0.2039 -0.1782  0.1801
16248W        W33096  13.783   7.685   3.033 -0.3468  0.2371  0.1407
16249W        W33097  17.620   6.778  16.021 -0.2836  0.2496 -0.1333
16250W        W33098  13.070  13.486  11.322 -0.1784  0.1671  0.2676
16251W        W33099  11.196   9.639   2.262  0.0932  0.0112  0.3239
16252W        W33100   8.865  11.774  10.974  0.2120 -0.1635  0.1671
16253W        W33101   0.820  17.315  14.721  0.1098 -0.0930  0.2262
16254W        W33102   2.002   0.332   3.792 -0.1543 -0.4373 -0.0198
16255W        W33103   8.727  12.821  11.077 -0.0870 -0.0155  0.0854
16256W        W33104  10.113   0.927  15.594  0.0482  0.0416  0.0911
16257W        W33105   7.238  13.436  14.493 -0.3245  0.1941  0.1325
16258W        W33106   8.068  11.623   1.272 -0.0305 -0.2231  0.0375
16259W        W33107   6.183   8.154  11.190 -0.0065 -0.1009 -0.0789
16260W        W33108  11.642   2.258  16.378 -0.0081  0.1024  0.2822
16261W        W33109  15.070   5.744  13.106  0.1290  0.2120  0.3484
16262W        W33110  11.584  10.525  14.474  0.0942 -0.0248  0.2694
16263W        W33111   0.790   7.684   5.403 -0.0165 -0.0116 -0.2253
16264W        W33112   3.091  12.704   1.549 -0.1581 -0.0434 -0.2889
16265W        W33113  13.629   0.271  14.328 -0.0360  0.3049 -0.1864
16266W        W33114   7.351   7.651   3.275 -0.0894  0.2406 -0.1501
16267W        W33115  13.689   9.088  12.926  0.2101  0.1178 -0.0582
16268W        W33116   9.311  17.219   6.746 -0.1926  0.0190  0.3432
16269W        W33117   1.871  12.975  15.996  0.3947 -0.1336 -0.0503
16270W        W33118   3.439   2.735   0.425  0.0557  0.1430  0.4602
16271W        W33119   0.543   5.026   6.279 -0.0944 -0.1964 -0.0344
16272W        W33120  17.438  17.024   4.601  0.1360 -0.0110  0.1069
16273W        W33121  14.933   3.456  16.292  0.1487  0.1513  0.0443
16274W        W33122   3.609   3.831   1.684  0.1937  0.0251 -0.2266
16275W        W33123  12.817  10.648   1.516 -0.2145 -0.0154 -0.1579
16276W        W33124  16.280   0.999   2.465  0.4905  0.1041 -0.0398
16277W        W33125  13.856  17.216   2.193  0.3714 -0.1830 -0.6185
16278W        W33126  15.757   3.608  16.538  0.0381 -0.0062  0.1297
16279W        W33127   6.414  11.783  15.124  0.0732  0.0363 -0.1623
16280W        W33128   6.125   9.440   0.240  0.0496  0.0768 -0.0703
16281W        W33129  16.665   0.264  12.507  0.0804 -0.0306  0.0222
16282W        W33130   4.234   8.588  16.552 -0.1255 -0.4545 -0.0250
16283W        W33131   3.301   8.500   5.718  0.0849  0.0911 -0.0132
16284W        W33132   3.946   1.886   0.315  0.1489 -0.0423 -0.0880
16285W        W33133   6.422   0.734   1.833  0.0487  0.0223 -0.0285
16286W        W33134   4.104   3.420  14.216  0.0778  0.0180 -0.1302
16287W        W33135  17.608   6.746   4.887  0.0153  0.2830 -0.0284
16288W        W33136   3.819   0.117   1.065  0.2023 -0.1591  0.3488
16289W        W33137  16.078   8.775   6.001 -0.0147 -0.0347  0.1620
16290W        W33138  17.330   9.075   2.401  0.1156 -0.1294 -0.1350
16291W        W33139   9.932  14.331   0.503  0.0029 -0.2072 -0.3439
16292W        W33140   0.748   3.359   2.980 -0.1581 -0.1109 -0.1216
16293W        W33141  14.292   4.540   2.278  0.1109 -0.1621 -0.0363
16294W        W33142   8.778   8.744  14.604 -0.2109 -0.1847 -0.0519
16295W        W33143   5.792   2.082   5.403  0.0620  0.0212 -0.1550
16296W        W33144   3.749   0.880   0.807 -0.0779  0.1298  0.0231
16297W        W33145  16.489  13.208   4.758  0.1100  0.0432 -0.1713
16298W        W33146  12.726  14.344  15.968  0.0385  0.2366  0.1750
16299W        W33147  11.279   9.799  13.654 -0.1597 -0.3113 -0.0139
16300W        W33148  14.915   5.113  14.596  0.0346 -0.2525 -0.1109
16301W        W33149  12.922   8.362   3.811 -0.0844  0.1488  0.2156
16302W        W33150   8.008  11.473   2.374  0.3518 -0.2576 -0.0102
16303W        W33151   1.092   5.320  11.908  0.2004 -0.0038  0.1224
16304W        W33152  17.369  10.400   2.563 -0.0145 -0.1426 -0.0237
16305W        W33153   5.266  17.680  14.165  0.0429  0.0339 -0.0966
16306W        W33154   8.522  17.631   2.026 -0.2492 -0.1406  0.0581
16307W        W33155  15.603   2.260  15.734 -0.0353 -0.0859  0.3023
16308W        W33156   1.724  15.497  15.567  0.0902  0.2986 -0.0507
16309W        W33157  11.784   3.773  11.642  0.3756  0.0999  0.1692
16310W        W33158  11.040   5.351  12.796 -0.0596 -0.0666  0.1945
16311W        W33159   6.920  10.488   2.472 -0.2932  0.0598 -0.3394
16312W        W33160   6.901  11.272  13.894 -0.1275  0.1712 -0.2301
16313W        W33161   9.987   1.000   1.191 -0.3830 -0.2131 -0.2338
16314W        W33162  14.043  17.332  16.039  0.2090 -0.1558 -0.0369
16315W        W33163   5.247   1.365  13.042 -0.3374 -0.2039 -0.1484
16316W        W33164   1.156   1.212  13.624 -0.1685 -0.4172 -0.0167
16317W        W33165  16.281  12.083   1.449 -0.0932  0.2257  0.1077
16318W        W33166   2.214   3.859   2.162  0.2430  0.1561 -0.0211
16319W        W33167  15.051  12.545  12.228 -0.0572 -0.1923  0.0048
16320W        W33168  12.274  15.387   0.239 -0.1352  0.4941 -0.0502
16321W        W33169   8.770  14.244   4.419 -0.1593 -0.0884  0.2584
16322W        W33170  10.142   1.156   0.175 -0.0305 -0.3012  0.0469
16323W        W33171  11.592   7.867  13.577 -0.1265  0.4416  0.2442
16324W        W33172  13.033   2.382   2.015 -0.0372  0.1864 -0.1386
16325W        W33173   8.242   1.092   2.106  0.0492  0.0566 -0.0366
16326W        W33174  17.259  12.237  12.441 -0.0844  0.1165 -0.0423
16327W        W33175   6.141  10.782   0.656 -0.2740 -0.0078  0.1009
16328W        W33176   8.202   0.559  16.392 -0.0669  0.0127 -0.0744
16329W        W33177  15.670   9.381  14.331 -0.0081 -0.0137  0.1026
16330W        W33178   9.435   2.259   3.277  0.2218  0.0134  0.0226
16331W        W33179   8.760  11.911   2.218 -0.0482  0.0449  0.1961
16332W        W33180   2.419  15.898   3.168  0.2640  0.0359  0.0479
16333W        W33181   1.003   3.395  16.398  0.0647  0.0400 -0.2069
16334W        W33182   3.281   8.787  13.596 -0.0464 -0.0318 -0.0570
16335W        W33183   8.780   8.015  11.148 -0.0365  0.2349 -0.0390
16336W        W33184  10.236   5.357   0.138  0.2100  0.0357  0.0366
16337W        W33185   3.440  11.061   4.409  0.2904 -0.0757 -0.1083
16338W        W33186   1.362  12.412  11.975 -0.1165 -0.0154  0.3042
16339W        W33187  12.863   3.019  13.938 -0.0287  0.2238  0.0188
16340W        W33188  16.451  14.823   1.486 -0.0572 -0.2169  0.3131
16341W        W33189   6.170  13.550   5.059 -0.0928  0.1559  0.2474
16342W        W33190  14.464   7.490   0.927  0.5139 -0.0923 -0.3887
16343W        W33191  13.976   8.163  14.870  0.0670 -0.2800 -0.2165
16344W        W33192   3.859  15.648  14.359 -0.0346 -0.0872  0.0846
16345W        W33193  10.208  17.250  15.941 -0.0154  0.1017  0.2319
16346W        W33194  14.962  14.076   4.912  0.0025 -0.2798 -0.1559
16347W        W33195   4.432   1.936   0.249 -0.0474 -0.2208  0.1522
16348W        W33196   0.856   6.889  12.665 -0.0835 -0.3575 -0.2065
16349W        W33197   9.866   6.651  14.358 -0.0903 -0.0151 -0.0692
16350W        W33198  12.815  10.462  14.724  0.1582  0.0571  0.0079
16351W        W33199  11.459   3.145  16.353 -0.0267  0.0018  0.0895
16352W        W33200  14.672   7.559   1.975 -0.0624 -0.0297  0.1111
16353W        W33201   9.971   1.036  16.073  0.1725  0.0610 -0.3591
16354W        W33202   2.254  15.200   4.655  0.1524 -0.1238  0.1330
16355W        W33203  14.688   4.151  14.034 -0.0896  0.0208 -0.1222
16356W        W33204  14.796   1.917   2.338  0.1064 -0.0832  0.0235
16357W        W33205   5.959   9.343   2.801 -0.1309 -0.0352 -0.1452
16358W        W33206  11.730   9.873   3.931  0.2013  0.1148 -0.2261
16359W        W33207   4.279   5.848   4.413  0.3485  0.0992 -0.2591
16360W        W33208   0.332   0.985   3.674  0.1439 -0.2102  0.3655
16361W        W33209   9.539   6.221  11.786 -0.1038 -0.0585  0.1939
16362W        W33210   0.469   0.949  11.824  0.1776 -0.2677 -0.1739
16363W        W33211   8.936   3.397   0.063  0.1350 -0.1492  0.2995
16364W        W33212   1.287  12.451   3.726  0.0369 -0.3441  0.1518
16365W        W33213  14.007   5.361  13.932  0.0043  0.0699 -0.1344
16366W        W33214  13.487  17.663  11.438 -0.1551 -0.1421 -0.2063
16367W        W33215  11.330  16.975   0.307 -0.3356 -0.3232  0.1177
16368W        W33216  14.545  15.722  11.754  0.2890 -0.0666  0.4258
16369W        W33217   2.502   2.807   3.066 -0.0095  0.2541  0.0559
16370W        W33218  10.945   9.770  16.089 -0.1004  0.2094 -0.2021
16371W        W33219  11.534  16.981   3.599 -0.0895 -0.0330 -0.0479
16372W        W33220  12.526   2.774  12.868 -0.3069 -0.0448 -0.1501
16373W        W33221   5.482  13.197   2.292  0.0458 -0.1042 -0.0792
16374W        W33222   1.503   0.996   1.653 -0.0307 -0.0435 -0.0819
16375W        W33223  16.014  17.604   2.300 -0.0220  0.2340  0.1224
16376W        W33224  12.134   6.967  11.002  0.1070 -0.1640 -0.0375
16377W        W33225  10.462  14.425  12.118  0.0568  0.1035  0.0983
16378W        W33226   4.440   0.946   6.195 -0.1786 -0.2459 -0.1765
16379W        W33227   5.375   9.908  15.593  0.1374 -0.0515 -0.0145
16380W        W33228   1.883  17.164  11.173 -0.2321  0.2978 -0.0388
16381W        W33229  10.707   4.466   5.567  0.0336 -0.1278 -0.0483
16382W        W33230  16.588  15.390  13.335 -0.0492 -0.0225  0.1068
16383W        W33231  11.895   8.870   2.557  0.1274  0.3835 -0.0425
16384W        W33232   9.654  11.585  13.304  0.0093 -0.0154  0.0280
16385W        W33233   2.261   4.145  12.684  0.1620 -0.1370 -0.2396
16386W        W33234  11.030   5.469  13.930  0.0124  0.0063  0.1421
16387W        W33235  14.553  11.446   2.598  0.1883 -0.0632  0.0823
16388W        W33236  11.767   3.995  14.427  0.3324  0.0502  0.2432
16389W        W33237  16.949  14.307  13.417  0.0247 -0.2203  0.0630
16390W        W33238  16.136  13.060  14.215  0.1657  0.2469 -0.2008
16391W        W33239  11.572  15.351  15.191  0.0009 -0.1463 -0.1556
16392W        W33240  12.857   8.558  12.292  0.1071  0.1786  0.2706
16393W        W33241   8.282   2.072  12.173  0.2814 -0.1185 -0.2558
16394W        W33242   5.198   8.819   2.663 -0.1007 -0.0662 -0.2182
16395W        W33243   9.169  10.464   2.483 -0.0205  0.3371 -0.3114
16396W        W33244   6.777   2.796  15.835  0.0570 -0.1941  0.0898
16397W        W33245   7.927   1.197  14.442 -0.0472  0.3217 -0.2645
16398W        W33246  10.752  15.208   4.964  0.0320  0.2593  0.1115
16399W        W33247  10.994   0.154   2.335  0.2049  0.0645 -0.1134
16400W        W33248   7.497   8.812   4.062  0.3860  0.0362 -0.3838
16401W        W33249  16.030   4.708   0.980  0.1896  0.0030 -0.0500
16402W        W33250   8.337   9.976  15.130  0.1373  0.0457 -0.1569
16403W        W33251  10.556  11.295   1.842  0.1466 -0.2456  0.0052
16404W        W33252  13.377   8.324  14.951  0.0258 -0.1896 -0.1651
16405W        W33253   2.253  16.846   2.284  0.1000  0.1233  0.4081
16406W        W33254  15.710   0.952   4.957 -0.0519 -0.0383  0.1757
16407W        W33255   4.899  10.257  13.271 -0.3783 -0.0886  0.1930
16408W        W33256   6.633  10.464  13.124  0.0458  0.1281  0.3132
16409W        W33257  12.557   0.752   3.045  0.0188  0.2888  0.1869
16410W        W33258   9.963  10.675   4.938  0.2097  0.0957  0.1911
16411W        W33259   1.875   7.225  13.614 -0.1763  0.2620 -0.2373
16412W        W33260   5.383  12.499   2.427 -0.0240 -0.1981  0.1743
16413W        W33261  17.626  17.602  14.245  0.0420 -0.2190 -0.2032
16414W        W33262  11.008   2.681  12.790 -0.2834  0.1565  0.0619
16415W        W33263  13.105  17.627  13.870 -0.3811 -0.1906 -0.1808
16416W        W33264  11.843  10.561   0.904  0.1698 -0.3060 -0.1376
16417W        W33265   7.726   0.913   5.065  0.1016 -0.1081  0.1295
16418W        W33266   3.297   4.763  11.077  0.3665 -0.2426  0.2047
16419W        W33267  17.175  15.630  15.324  0.2521  0.0698 -0.0276
16420W        W33268  14.302   6.776   3.994 -0.0187 -0.1647  0.1043
16421W        W33269  14.067  13.779   0.555  0.0504 -0.0101 -0.1288
16422W        W33270  12.122   2.800   4.671  0.3229 -0.1355  0.1886
16423W        W33271   9.814   0.058  15.290  0.0838 -0.0127  0.0041
16424W        W33272   2.752  15.595  12.871  0.0600  0.0560  0.0298
16425W        W33273   3.107   2.121  13.474  0.2489 -0.0046 -0.3984
16426W        W33274   6.283   1.503  12.527  0.2327  0.0791 -0.3172
16427W        W33275   4.119  13.659  13.445 -0.0623 -0.0363  0.0497
16428W        W33276   1.844   3.703   3.918 -0.0521  0.1295  0.0037
16429W        W33277  11.807   9.719  16.029 -0.0281 -0.1129  0.0600
16430W        W33278  12.235  12.126  14.928  0.1171 -0.0677  0.3035
16431W        W33279  12.739   8.603  12.901 -0.1549  0.0481 -0.1648
16432W        W33280  15.620   9.527  13.762 -0.0410  0.2403 -0.2058
16433W        W33281  16.644  10.505   4.080  0.0503  0.1092  0.0563
16434W        W33282   3.917  17.355  14.834  0.2117  0.0693 -0.1205
16435W        W33283   3.034  14.140  11.701 -0.0515 -0.4254  0.0066
16436W        W33284  11.117  12.554   2.145 -0.2780  0.1370  0.0388
16437W        W33285  15.307   7.587  16.595 -0.1116  0.2906  0.0778
16438W        W33286   0.169  13.123  15.465  0.1383 -0.1363 -0.0395
16439W        W33287  11.721  15.085   5.193  0.3647  0.0300  0.1653
16440W        W33288  14.597   7.041   0.346 -0.1239  0.1807 -0.3705
16441W        W33289   7.745   9.186   5.475 -0.1072 -0.0573 -0.0653
16442W        W33290  14.679   0.760  15.140  0.1805  0.1219  0.0544
16443W        W33291  16.863   8.179   0.509 -0.3424 -0.3647  0.0762
16444W        W33292   5.663  17.008  14.759 -0.3112  0.2782 -0.1751
16445W        W33293   1.967   5.973  13.228  0.2037  0.2225 -0.0028
16446W        W33294  16.534   4.855   4.866  0.1595  0.1264  0.3795
16447W        W33295   0.174  16.196  15.966  0.1767  0.1199 -0.0437
16448W        W33296   0.676   7.457  12.696  0.1099 -0.1115  0.0308
16449W        W33297  17.109  11.550   4.796 -0.2490  0.2099  0.0842
16450W        W33298   1.114   9.032  14.802  0.1215  0.4770  0.1551
16451W        W33299   9.045   1.427   2.639 -0.0709 -0.0418  0.1237
16452W        W33300  15.586  13.354   5.764  0.2737 -0.2012 -0.0908
16453W        W33301   8.559  15.990  15.666  0.0274 -0.0724 -0.0385
16454W        W33302   0.558   7.419   0.463 -0.2914  0.3121 -0.0319
16455W        W33303   7.019   6.948   3.490 -0.0260  0.2007  0.1691
16456W        W33304  17.063   9.996   4.646  0.1015 -0.3197 -0.2528
16457W        W33305   6.963  14.392  15.141 -0.2104  0.2928 -0.0073
16458W        W33306   3.198   4.496  13.885  0.2740  0.1334  0.1295
16459W        W33307   4.289  16.239  16.263  0.4031  0.1936  0.2678
16460W        W33308   9.106   1.965  11.488  0.2319  0.0989 -0.1182
16461W        W33309   0.195  15.404   2.569 -0.2986  0.3763  0.0450
16462W        W33310  15.507  11.111  13.612  0.0074 -0.2404  0.0773
16463W        W33311   2.737   6.583  16.057  0.1897  0.0489 -0.3260
16464W        W33312  11.358  16.451  12.718 -0.0697 -0.0207  0.0554
16465W        W33313   6.105   8.379   0.388 -0.1101  0.1004  0.0304
16466W        W33314   4.490   9.702   4.982 -0.0058  0.1324  0.3520
16467W        W33315  15.002  12.049   4.750  0.0363 -0.1463  0.3063
16468W        W33316   4.938  14.634   5.490 -0.1590  0.1783  0.1042
16469W        W33317  10.892   1.258  13.947  0.1039  0.1790 -0.1461
16470W        W33318  13.449  10.885   2.887 -0.1326  0.2160 -0.0468
16471W        W33319  15.660   9.072   0.099 -0.2997  0.0561 -0.0233
16472W        W33320  14.498  16.622   2.361 -0.1076  0.2439 -0.0464
16473W        W33321   4.377  17.659   5.027  0.1664  0.1273  0.0106
16474W        W33322   2.028   6.459  16.612  0.0790  0.0505 -0.0861
16475W        W33323  13.432  14.590   0.073 -0.2035 -0.2466  0.1732
16476W        W33324   5.875  11.673  11.518 -0.2005  0.0015 -0.0609
16477W        W33325   4.130  13.442   5.531 -0.0015 -0.1159 -0.1616
16478W        W33326   8.050  10.653  11.411  0.1396 -0.0744 -0.0534
16479W        W33327   3.051   2.334   4.670 -0.0495 -0.1547 -0.0720
16480W        W33328  17.126  10.387  11.498 -0.0273  0.0132 -0.0005
16481W        W33329   1.288  15.816  14.846 -0.3207 -0.2725 -0.1763
16482W        W33330   4.077   0.635  11.316 -0.0988  0.1524 -0.2340
16483W        W33331   4.377  13.151  10.656 -0.1528 -0.0709 -0.1019
16484W        W33332  11.550  17.415   1.288  0.0299 -0.1801  0.2554
16485W        W33333  17.424  14.065  12.563 -0.0916  0.0192 -0.2255
16486W        W33334  16.995   5.653  11.877 -0.0129 -0.2978 -0.5240
16487W        W33335   7.287   8.898  13.014 -0.0754 -0.2018  0.1363
16488W        W33336   4.623   8.278  14.862 -0.0149  0.2139  0.4473
16489W        W33337  14.388  15.473   4.364  0.0420 -0.0827 -0.0799
16490W        W33338  11.418  11.393   2.878 -0.0408  0.1681  0.2913
16491W        W33339  14.870  13.892  14.721  0.0909 -0.0596  0.1993
16492W        W33340   8.345   8.641   5.910  0.2028  0.2467  0.1368
16493W        W33341   9.161  11.011  12.870  0.1725 -0.1304  0.0023
16494W        W33342   9.248   5.118  14.793  0.0596  0.1219 -0.1685
16495W        W33343   4.804   2.987  13.688  0.1787  0.3195 -0.2721
16496W        W33344   0.890   2.440  13.420 -0.1461 -0.1091 -0.0838
16497W        W33345   0.820   8.705  15.058  0.1699 -0.0737  0.0150
16498W        W33346  10.959   7.726  11.862  0.0290 -0.0364 -0.1117
16499W        W33347  12.652  12.871   1.471 -0.0763  0.0477  0.0309
16500W        W33348  15.677   1.605  15.172 -0.0797  0.2119 -0.0619
16501W        W33349   0.797   3.841   0.011  0.1041  0.0316  0.0105
16502W        W33350  14.001   2.056  15.467 -0.1057 -0.3000  0.2681
16503W        W33351  13.218   8.749  14.553 -0.0094 -0.3496  0.1176
16504W        W33352   5.769  12.167   2.284 -0.0465 -0.0653 -0.1018
16505W        W33353  11.609  15.569  13.055  0.1801  0.1319 -0.1588
16506W        W33354  12.088  14.696  14.712  0.1339 -0.1149 -0.0852
16507W        W33355   2.660  10.681   2.022 -0.1846  0.0873  0.0439
16508W        W33356  14.717  10.908  12.965 -0.1689  0.0409  0.0951
16509W        W33357  16.811   4.657   1.603 -0.0865 -0.2552  0.0028
16510W        W33358   5.811   3.103   4.063 -0.0249 -0.0873  0.0798
16511W        W33359  11.106  17.423  16.237 -0.1704  0.2296 -0.1131
16512W        W33360   0.612   7.688  13.161  0.1985  0.3244  0.1880
16513W        W33361   2.551   9.090   5.254 -0.1952  0.1107  0.1377
16514W        W33362   8.003   2.486   0.772 -0.0346  0.1841 -0.1627
16515W        W33363  14.162  14.126  16.200  0.1100 -0.1262 -0.0850
16516W        W33364  11.682   6.178   3.098  0.2533 -0.2186 -0.0314
16517W        W33365   1.201  11.219   3.973  0.4580  0.1252 -0.0304
16518W        W33366   3.651  13.692  11.933  0.0826 -0.0338 -0.1251
16519W        W33367   7.281  10.855   0.530 -0.0756 -0.3331 -0.0333
16520W        W33368   5.523  11.991  14.422  0.1259  0.3666 -0.0466
16521W        W33369  11.182   2.512  14.603  0.2449  0.0884 -0.2169
16522W        W33370   2.631   6.791  11.100 -0.1783 -0.1455  0.1961
16523W        W33371  12.097   9.315  14.163  0.1984  0.0932 -0.3277
16524W        W33372  16.954   2.111   0.682 -0.0621  0.0107 -0.2422
16525W        W33373  11.015   7.044   4.346 -0.3369  0.2874  0.1601
16526W        W33374  16.765  14.982   5.138 -0.0921 -0.0461 -0.0800
16527W        W33375  15.296   4.338   2.635  0.1958 -0.1587 -0.1964
16528W        W33376   0.686  13.457   5.197  0.0596 -0.1416 -0.1096
16529W        W33377  15.256   1.765   2.246  0.0598  0.0480  0.0277
16530W        W33378  15.375   7.384   3.304  0.1355 -0.2748  0.1107
16531W        W33379   9.781   9.486  16.596 -0.2438  0.2846  0.3342
16532W        W33380   7.518   9.788  15.048 -0.1386 -0.3097 -0.1139
16533W        W33381  11.078  14.414   3.251  0.3310 -0.2532  0.0360
16534W        W33382  17.452  10.750  16.162  0.1927 -0.2551  0.3076
16535W        W33383  17.527  16.285  12.641 -0.3380 -0.2611 -0.1928
16536W        W33384   8.307   5.296  13.665 -0.2126 -0.0818  0.1314
16537W        W33385   2.784  17.319  12.188  0.0834  0.1398  0.0590
16538W        W33386   2.111  17.387  14.846  0.1737 -0.0379  0.1172
16539W        W33387  14.965   3.745   0.681 -0.2243  0.2811  0.1499
16540W        W33388   0.093  17.046  14.125 -0.0312 -0.0468 -0.1157
16541W        W33389   5.034   4.565  13.457 -0.2301  0.1396  0.1636
16542W        W33390   6.125  11.149  11.821  0.2737 -0.1801 -0.1642
16543W        W33391   2.523  14.861  15.866 -0.1381  0.0995  0.1520
16544W        W33392   4.696   5.341  15.966 -0.1843 -0.0627 -0.1036
16545W        W33393   9.001  17.550  11.706  0.1459  0.0078 -0.3825
16546W        W33394   7.533  13.380   4.349 -0.0464  0.2884 -0.1816
16547W        W33395  15.819  17.365   2.810 -0.3102  0.1109  0.0890
16548W        W33396   4.531  16.524  15.222  0.0426 -0.1455  0.1028
16549W        W33397  14.860  13.062  12.944  0.1492  0.0933  0.1187
16550W        W33398  17.220   9.506  12.021 -0.2501 -0.1078 -0.0545
16551W        W33399   2.186   7.351  16.670 -0.2491  0.0491  0.0577
16552W        W33400  16.973   1.071   1.473  0.0579 -0.1305 -0.0407
16553W        W33401  10.109  17.222   1.610 -0.0058 -0.1139  0.0060
16554W        W33402   5.965   7.783   4.248  0.0438  0.1148  0.0025
16555W        W33403  17.087  15.866  12.077  0.0008 -0.1377 -0.1125
16556W        W33404   5.080  14.932  15.245 -0.1164 -0.1001 -0.1668
16557W        W33405   2.598   7.202   2.767 -0.1022 -0.0586 -0.0415
16558W        W33406   5.018   7.336  11.876  0.0005 -0.2805 -0.0371
16559W        W33407   5.195   9.905  12.549  0.0413 -0.2041 -0.3579
16560W        W33408   0.828   3.776  13.368 -0.0427  0.1159 -0.0026
16561W        W33409   7.528   1.773  12.787  0.0594 -0.0185  0.0805
16562W        W33410   3.979   2.151  16.167 -0.0195  0.1587 -0.0292
16563W        W33411   4.914  16.937   1.697 -0.1300 -0.0504  0.0224
16564W        W33412   1.723   8.531  15.465 -0.0587  0.0231 -0.0148
16565W        W33413   5.079   6.564  14.608  0.2578  0.2114  0.1795
16566W        W33414   6.914  11.831  16.213 -0.1776 -0.3791 -0.1946
16567W        W33415   1.828   6.461  13.372 -0.1710  0.1539  0.3347
16568W        W33416   7.130  12.054   3.473 -0.0518 -0.2154  0.1445
16569W        W33417   9.721   9.962  11.599 -0.0785 -0.0713  0.2534
16570W        W33418   2.559   2.960   2.619 -0.0168  0.1554 -0.2679
16571W        W33419  11.800   7.325   4.167 -0.0484  0.1940 -0.0416
16572W        W33420  16.172   4.559  11.790 -0.1724 -0.4575  0.1086
16573W        W33421  15.980  16.107  16.551  0.1403  0.1251  0.3316
16574W        W33422   3.275  10.836   0.601  0.2010  0.0356 -0.0477
16575W        W33423   4.745  11.387  11.500  0.0109 -0.2482  0.1562
16576W        W33424  10.512   5.510   4.888 -0.0733  0.0029 -0.0171
16577W        W33425   6.245  12.130   2.773  0.1110  0.3787 -0.2244
16578W        W33426   6.527   4.783   0.002 -0.1686 -0.2562 -0.1985
16579W        W33427   8.472  13.059  14.480 -0.0171 -0.0553  0.2515
16580W        W33428  11.810   9.394   1.813 -0.0531  0.0805  0.0710
16581W        W33429   8.033  12.545   0.175 -0.1965  0.2012  0.0655
16582W        W33430  13.780  14.887  10.741  0.2790 -0.0071  0.1869
16583W        W33431  10.315   4.577  15.377 -0.0409  0.0892 -0.1114
16584W        W33432   9.574  11.325  12.890  0.1792  0.2887 -0.0411
16585W        W33433   9.353   9.942  11.001 -0.1580  0.4144 -0.1653
16586W        W33434  17.599   8.029  14.290 -0.2188 -0.2831 -0.1223
16587W        W33435   6.092  13.659  11.629  0.0513  0.1152  0.0003
16588W        W33436  11.672   7.437   4.893 -0.4444  0.1021  0.0446
16589W        W33437  10.980  13.916   1.251  0.0684  0.0324 -0.0620
16590W        W33438  13.957   6.250  11.147 -0.1079  0.0294  0.0797
16591W        W33439   5.217   0.084  11.737  0.0116  0.0369 -0.2596
16592W        W33440  16.515  14.493  13.658  0.0257  0.2576 -0.0842
16593W        W33441   0.552   7.690  11.219  0.0605 -0.2180 -0.1400
16594W        W33442  15.305   1.736   1.184 -0.2497 -0.1257 -0.0446
16595W        W33443   1.592   3.631   0.603  0.0977 -0.0545  0.2624
16596W        W33444   5.460   4.444   1.596 -0.0379  0.1444  0.0335
16597W        W33445  13.066   6.761   1.555 -0.3164 -0.3087 -0.0775
16598W        W33446   5.239  12.494  10.607 -0.0017  0.0304 -0.0366
16599W        W33447  11.848   4.432  15.665  0.0214  0.1511 -0.1161
16600W        W33448  16.161  12.917   3.739 -0.2112  0.0762 -0.0750
16601W        W33449   4.450  11.419   0.725  0.1005  0.4074  0.0096
16602W        W33450  13.421  12.354  15.804  0.3909 -0.1459 -0.3143
16603W        W33451   0.596  16.115  12.299 -0.1069 -0.0978  0.1270
16604W        W33452  15.659   1.133  15.176 -0.0658  0.2562 -0.1259
16605W        W33453   2.465  17.004   3.273  0.0543  0.2597  0.1302
16606W        W33454   1.463   7.384   4.171 -0.1572  0.1100 -0.2706
16607W        W33455  12.850  11.189   3.938  0.0111  0.2381 -0.2269
16608W        W33456  17.559   9.141  12.847  0.1117 -0.2074  0.1397
16609W        W33457   0.308  12.429  14.376  0.0139  0.2402  0.1231
16610W        W33458  16.339   1.630  15.744 -0.0337 -0.4621 -0.1111
16611W        W33459   8.667  16.989   3.230 -0.1132 -0.0097 -0.0197
16612W        W33460   4.083   1.224  13.835  0.2021 -0.1845 -0.3946
16613W        W33461  12.682  12.899  14.994  0.4208  0.1946  0.0663
16614W        W33462   1.219   8.538  14.121 -0.0723 -0.1332  0.0041
16615W        W33463   6.284   5.497   1.052  0.0548 -0.1190 -0.2168
16616W        W33464  13.112  13.839   0.353  0.2215 -0.1805  0.0424
16617W        W33465   0.711  11.355   0.255 -0.0389 -0.1437  0.1208
16618W        W33466  12.746   3.155   4.252 -0.1870  0.2053 -0.1376
16619W        W33467  17.371   1.080   4.436  0.2183  0.1559  0.1781
16620W        W33468  14.215   1.618  16.512  0.1184 -0.0945 -0.0248
16621W        W33469  15.966   4.810  15.182 -0.3644  0.1441  0.1930
16622W        W33470   1.515   1.483   5.467  0.4043  0.1581 -0.0864
16623W        W33471   0.657   4.938   0.691 -0.2019  0.0142  0.1514
16624W        W33472  14.411  13.587   2.203 -0.0209 -0.0454  0.3416
16625W        W33473  16.670   5.167   0.399  0.2984  0.2493 -0.0381
16626W        W33474  14.472   8.513  13.122 -0.1875  0.0623  0.1956
16627W        W33475  12.501  15.915  14.525  0.1236 -0.2377  0.0239
16628W        W33476  10.895   2.582   1.097 -0.0892 -0.0081  0.1030
16629W        W33477  14.369  15.346  14.408 -0.2286 -0.0549  0.0896
16630W        W33478  14.852   6.829   5.032 -0.1760  0.1820  0.1351
16631W        W33479   9.062   1.968   1.412 -0.0051  0.1848 -0.0953
16632W        W33480  16.953   7.848   1.801  0.3067  0.4851 -0.1082
16633W        W33481  12.292   0.368   3.436  0.0110 -0.1523 -0.2579
16634W        W33482   7.013   3.609   3.799  0.2984  0.2311 -0.5625
16635W        W33483   5.022   8.125   3.028 -0.0123 -0.1599 -0.2666
16636W        W33484   9.239  11.188   4.490 -0.0761  0.0351  0.0575
16637W        W33485  16.719   7.935   4.966  0.1047 -0.2566  0.0053
16638W        W33486   3.434   6.882  12.509 -0.0215 -0.0765 -0.3517
16639W        W33487   0.764  12.812  14.635 -0.1340  0.4182 -0.0430
16640W        W33488  14.232   1.791  15.791 -0.2778  0.2315 -0.1611
16641W        W33489   8.793   0.624   1.665  0.0719 -0.2153  0.2412
16642W        W33490  11.010   8.143  12.043 -0.2505  0.1306 -0.1625
16643W        W33491  11.683   3.327   1.015 -0.0878  0.2555 -0.2354
16644W        W33492  16.762  16.296   5.813 -0.0465 -0.2319 -0.1422
16645W        W33493   6.946   2.252  15.845  0.0182  0.0728  0.2645
16646W        W33494   4.187  13.843  11.971 -0.1802 -0.0819 -0.0192
16647W        W33495   6.950   4.991   4.745 -0.0302 -0.2291  0.0332
16648W        W33496  11.205   8.222   1.986 -0.1493 -0.0443 -0.2334
16649W        W33497  10.426   9.315  11.875 -0.1512  0.2986  0.0477
16650W        W33498   3.698   3.353   1.813  0.1596  0.0666  0.1305
16651W        W33499   5.764   4.143   3.061  0.1311 -0.1523 -0.0592
16652W        W33500  16.423  15.296   5.448  0.1529 -0.1268  0.0816
16653W        W33501  15.707  11.554   0.867 -0.1756 -0.0847  0.0125
16654W        W33502   8.107  12.314   4.955  0.0008  0.0343 -0.2312
16655W        W33503   4.934  16.484   4.319 -0.1975  0.1738 -0.1590
16656W        W33504   0.528  14.363  13.610  0.1612  0.0162  0.0501
16657W        W33505  13.504   3.432   4.603  0.2470 -0.1363  0.1563
16658W        W33506  15.512  13.430  14.467  0.3050  0.0691 -0.0440
16659W        W33507  12.362   3.299   5.063 -0.0283 -0.0315  0.0477
16660W        W33508  14.090   7.942  12.754  0.0593  0.0253  0.1081
16661W        W33509  16.868  14.328   2.964 -0.2673  0.0675  0.2434
16662W        W33510   3.548  14.126   0.166  0.0802  0.0639 -0.1489
16663W        W33511  10.441  16.471  12.964 -0.0732 -0.1601  0.1602
16664W        W33512  11.365   8.275  16.377  0.0849 -0.1715 -0.0488
16665W        W33513  17.210   1.848  16.366 -0.0421  0.1536 -0.1178
16666W        W33514   3.153   0.854   2.715 -0.0276 -0.1157  0.2966
16667W        W33515   2.364   0.455   3.237  0.1187  0.1459 -0.1916
16668W        W33516  13.479   4.071   5.462 -0.3521  0.0359  0.1018
16669W        W33517   5.048  11.725  14.748  0.2013  0.0037 -0.0674
16670W        W33518  17.378   0.030  14.689 -0.2362  0.1387  0.0872
16671W        W33519   6.294  16.898  11.491  0.0826 -0.2176 -0.1834
16672W        W33520  17.245   6.645   4.331 -0.0607  0.1015 -0.2552
16673W        W33521  11.162  11.478  15.134 -0.0055 -0.2047  0.2570
16674W        W33522  16.943   6.485   4.968 -0.0150  0.1936 -0.2058
16675W        W33523   7.180  16.394  12.372  0.2047 -0.1452 -0.0877
16676W        W33524   4.419   6.293   3.788  0.0497 -0.1984  0.0376
16677W        W33525   2.778   5.566   2.995  0.2865 -0.3307  0.0912
16678W        W33526  14.590   2.254   3.248  0.5601 -0.0275  0.3529
16679W        W33527  17.260   2.958   0.909  0.0740 -0.2029 -0.0387
16680W        W33528   4.991   5.520  14.186  0.2803 -0.2495  0.2867
16681W        W33529  16.608   7.772  14.212  0.0637  0.1616 -0.0422
16682W        W33530   0.001   2.372   1.038 -0.2061 -0.0071  0.1148
16683W        W33531   0.697   3.286  12.330  0.0642 -0.0481 -0.1223
16684W        W33532  15.226  17.695  10.780  0.0042 -0.0846  0.3289
16685W        W33533  16.352  11.017   2.519 -0.0610  0.0194 -0.0416
16686W        W33534  14.785   7.519  16.583  0.0643 -0.0785 -0.1563
16687W        W33535   7.772   1.543  15.021 -0.0081  0.3721 -0.0133
16688W        W33536   3.768  11.711   3.389 -0.2403  0.0840 -0.3566
16689W        W33537   8.242   9.693  14.711  0.1764  0.0905  0.1351
16690W        W33538   0.281  16.470  12.586  0.0676  0.0470  0.0090
16691W        W33539   2.234   6.811   1.355  0.0032  0.1400 -0.1963
16692W        W33540   0.824  16.613  13.950 -0.1721  0.1169 -0.1343
16693W        W33541  15.675   1.392   1.284 -0.0388 -0.3079  0.0071
16694W        W33542  15.685  11.389   4.884  0.1679  0.1540 -0.1543
16695W        W33543   7.493  10.301   3.015  0.1140 -0.0667  0.1100
16696W        W33544  12.091   3.474  15.502 -0.0038 -0.0213 -0.3079
16697W        W33545   5.759  11.527  12.910 -0.2443  0.1855  0.2507
16698W        W33546   4.071   1.477  14.665 -0.0796  0.0109  0.2220
16699W        W33547  10.245  16.349  12.550  0.3266  0.0943 -0.1854
16700W        W33548  15.303  16.644  12.347 -0.2378  0.0811  0.1093
16701W        W33549  12.528   3.643   0.940 -0.1190 -0.1018  0.0098
16702W        W33550  10.851   8.419  12.831 -0.0812 -0.0291  0.1614
16703W        W33551  16.465  12.037   3.281  0.2738 -0.0593  0.2791
16704W        W33552   8.948   8.552  11.949 -0.0376  0.0814  0.0105
16705W        W33553   5.496   0.528   3.955 -0.3109  0.2108 -0.1862
16706W        W33554   8.306   7.992  15.989 -0.1552 -0.0576  0.0592
16707W        W33555   3.517  15.378   5.728 -0.2954 -0.1136 -0.1414
16708W        W33556   8.379   8.709   4.269 -0.1207 -0.0419  0.3147
16709W        W33557   0.252   4.301   2.723 -0.0105 -0.3158  0.0125
16710W        W33558   1.018   5.239  16.588 -0.2551 -0.0975 -0.0867
16711W        W33559  16.494   0.963  13.509 -0.0115 -0.1110  0.4143
16712W        W33560  10.810   2.638  14.922 -0.2656  0.0225  0.2530
16713W        W33561   1.491   2.688   3.220  0.0895  0.1979 -0.0834
16714W        W33562   2.013  12.863  13.732 -0.0457 -0.1015  0.1639
16715W        W33563   8.114  16.343   0.182 -0.0530 -0.0985  0.4663
16716W        W33564  13.794   5.777  11.302  0.0331  0.1344 -0.3538
16717W        W33565   7.982  14.312   5.098  0.0386 -0.0033 -0.1549
16718W        W33566   4.618  11.474   2.737  0.0583 -0.0179 -0.0536
16719W        W33567   5.328  12.579   2.919  0.1311  0.0614 -0.1330
16720W        W33568  13.931   9.486  15.258  0.0306 -0.3519  0.1264
16721W        W33569   9.951   2.213  12.039 -0.0077  0.0561  0.3003
16722W        W33570   3.237  17.631   4.579  0.2662 -0.2734  0.3012
16723W        W33571  13.293   7.089   2.478  0.2211  0.1733  0.1511
16724W        W33572  17.149  10.306  16.364  0.0128  0.1718  0.1241
16725W        W33573  15.328  12.582  16.067 -0.0102 -0.0276  0.2568
16726W        W33574   7.327   1.067  13.289 -0.0250 -0.0734  0.0028
16727W        W33575  16.337  12.046  12.145  0.2270 -0.1927  0.0564
16728W        W33576   7.149   9.273  12.731 -0.2901  0.0366  0.0019
16729W        W33577   7.081   8.200  11.818  0.0993  0.2473  0.2170
16730W        W33578   7.800  14.574   1.935  0.2714  0.0708  0.0878
16731W        W33579   9.856   5.207  14.635 -0.0229 -0.0268  0.1676
16732W        W33580  13.132  10.207   3.950 -0.0081 -0.0839 -0.3563
16733W        W33581  10.374   3.301  11.848  0.0603  0.0419 -0.0074
16734W        W33582  13.524   8.287  13.288  0.0368 -0.1438 -0.1618
16735W        W33583   1.796   7.012  16.572 -0.3507  0.2719  0.0114
16736W        W33584  15.565   2.996  12.343 -0.1136  0.0934 -0.3293
16737W        W33585  15.637  10.445   5.017 -0.1727 -0.1018  0.0233
16738W        W33586  16.154   6.963   2.883  0.1384  0.0670 -0.3434
16739W        W33587  17.622   3.557  11.542 -0.1737 -0.0119  0.2582
16740W        W33588   1.649   2.432  16.401  0.0961  0.0107 -0.0262
16741W        W33589   4.547  16.126   4.076 -0.0743  0.0720 -0.0103
16742W        W33590   7.220   8.477   1.309  0.3446  0.0787 -0.0271
16743W        W33591   5.290  12.878  14.246 -0.0379  0.2779  0.1508
16744W        W33592   4.274   8.106   0.038  0.1403  0.3563  0.1148
16745W        W33593   8.707  17.113   1.834 -0.3070 -0.0126  0.1714
16746W        W33594  11.719  12.266   2.678 -0.0796 -0.0359 -0.0778
16747W        W33595  15.139   2.748   6.048 -0.1218 -0.3433 -0.2228
16748W        W33596  10.888   3.442  16.303 -0.0402 -0.2350  0.2239
16749W        W33597  10.960  15.676  12.665 -0.1365 -0.1049 -0.2895
16750W        W33598   8.947   3.370   3.987  0.3943  0.2802 -0.1009
16751W        W33599  15.273  15.840  16.623  0.0999  0.1059 -0.0630
16752W        W33600   0.293  16.620  16.383 -0.0279  0.0994  0.2638
16753W        W33601  10.678   3.939  12.946 -0.1645  0.0250 -0.0431
16754W        W33602   3.920  15.466  14.814 -0.1934  0.1689 -0.0678
16755W        W33603   5.980   1.710   5.086 -0.0964 -0.0307  0.2381
16756W        W33604  15.623   0.654  13.555  0.1072  0.2761  0.3299
16757W        W33605  13.939   5.301   4.411  0.1740  0.3103 -0.0452
16758W        W33606   6.378   2.050   5.205 -0.0980 -0.0362 -0.1778
16759W        W33607   6.230   7.376  16.068  0.0502  0.0447 -0.3899
16760W        W33608   3.660  17.396   0.168  0.2043 -0.5103 -0.0794
16761W        W33609   8.847  14.607   4.087  0.0391  0.0530  0.3188
16762W        W33610  16.660   5.230  16.139  0.1334  0.0091  0.0350
16763W        W33611   5.427   0.625   0.352 -0.0154 -0.0279  0.0052
16764W        W33612  17.698  10.381  13.970 -0.2002 -0.0341  0.1724
16765W        W33613  13.331   1.273  11.898 -0.0449  0.1832  0.1911
16766W        W33614  16.073   6.882   1.920  0.1601 -0.2300 -0.1377
16767W        W33615   0.309  15.785  13.167 -0.1780 -0.1234 -0.2837
16768W        W33616   1.835   3.445  15.853  0.0379 -0.0332 -0.1431
16769W        W33617  16.192  17.524  10.796  0.0178  0.0102 -0.1853
16770W        W33618  16.948   6.410  15.353  0.1600 -0.1338 -0.0920
16771W        W33619  15.894   1.282  14.319  0.0605 -0.2366 -0.0615
16772W        W33620   8.809  10.334  12.473  0.1695 -0.2695 -0.1251
16773W        W33621   7.943   0.804  14.797  0.3968  0.0704  0.1683
16774W        W33622   2.781  10.112  15.372 -0.0846  0.0842 -0.1132
16775W        W33623   9.900   9.636   1.932 -0.0497  0.0135 -0.0852
16776W        W33624   6.558  13.768   5.644  0.2029 -0.1063  0.0784
16777W        W33625   6.123   6.733   0.106 -0.2326 -0.2161 -0.0782
16778W        W33626  16.814   9.034   1.107 -0.1683  0.1401 -0.0286
16779W        W33627   8.372   0.169  13.020  0.0140  0.2434  0.1310
16780W        W33628  13.417  14.329   3.093  0.0765  0.1160  0.2266
16781W        W33629   5.465   3.803  16.455 -0.0734  0.2392  0.0827
16782W        W33630  15.188   9.880  11.974 -0.0141  0.0639 -0.2680
16783W        W33631   9.674   6.912   2.288 -0.0901  0.0138  0.0353
16784W        W33632   0.739   1.536   3.752 -0.0091 -0.2092 -0.2416
16785W        W33633   2.500   2.449  14.242  0.1651 -0.0899 -0.4364
16786W        W33634   5.449  14.293  14.431 -0.2646  0.1214 -0.0461
16787W        W33635   0.944   2.845  13.742 -0.2086 -0.0367  0.1502
16788W        W33636  17.055  16.859  16.101 -0.0234 -0.2490  0.0780
16789W        W33637  11.985   2.800  14.965  0.0980 -0.2666  0.0842
16790W        W33638   2.038   8.846  11.063 -0.1450  0.4129  0.4240
16791W        W33639  10.222   1.983  11.613  0.3408 -0.2104 -0.0016
16792W        W33640   3.354  16.347  16.401 -0.2258 -0.1441  0.0271
16793W        W33641   2.617  10.467  11.915 -0.2002 -0.0093 -0.0927
16794W        W33642  14.786  14.387  14.875  0.2270 -0.0308  0.0247
16795W        W33643   1.337  14.883   0.971 -0.0548  0.3329  0.1079
16796W        W33644   1.168   6.817   5.529  0.0691  0.2783  0.2829
16797W        W33645  14.283  16.590   5.220 -0.0619  0.1641 -0.2611
16798W        W33646   4.997  15.813  12.143 -0.1682  0.0435  0.1434
16799W        W33647  13.635   0.626   0.762 -0.2426 -0.2090 -0.0824
16800W        W33648  13.121   4.680   0.523 -0.0059  0.2005  0.2669
16801W        W33649   8.023  15.404  15.965  0.0403 -0.1273 -0.1412
16802W        W33650   2.723  14.556  16.436 -0.1622 -0.1212  0.0731
16803W        W33651   1.191  13.755  16.360 -0.1856  0.2735  0.0314
16804W        W33652   9.955  11.511   5.564  0.0278 -0.2523  0.0344
16805W        W33653  17.489  14.052  11.588  0.1060  0.0448  0.2317
16806W        W33654   5.751   2.429   0.725  0.1630 -0.0086 -0.2030
16807W        W33655   2.394   3.685  12.624  0.0589  0.0109 -0.1286
16808W        W33656  12.358   6.923   5.708 -0.0932  0.3715 -0.0552
16809W        W33657   9.597  10.138   1.482  0.0038 -0.1670  0.1235
16810W        W33658  14.541  15.838   0.573 -0.0832  0.0030 -0.1025
16811W        W33659   7.892   5.158  16.505 -0.2779  0.0577 -0.2974
16812W        W33660  13.422   6.615   3.343 -0.3295  0.0980  0.0689
16813W        W33661  17.227   6.499   1.539 -0.1239 -0.1492  0.0181
16814W        W33662   9.425   8.896   3.552  0.0938  0.1690 -0.2429
16815W        W33663   8.713   0.090  12.064  0.1050  0.1651 -0.1760
16816W        W33664   7.157  11.039   0.091  0.1722  0.1476  0.2091
16817W        W33665  11.918  12.366  16.308  0.0716  0.1517 -0.1104
16818W        W33666   4.169  12.025  11.620 -0.0077  0.4931  0.1980
16819W        W33667   6.354   6.328  14.443  0.0653 -0.0105 -0.1050
16820W        W33668  10.111  12.391  16.285 -0.0337 -0.2259  0.0772
16821W        W33669  16.450   7.819  11.678  0.0397  0.0136  0.1056
16822W        W33670  12.075  11.677  14.057  0.0532 -0.4180 -0.1854
16823W        W33671   6.389   7.524   1.725 -0.1344 -0.1118 -0.1665
16824W        W33672   7.487   4.902   0.938 -0.0904  0.1895  0.0896
16825W        W33673   8.759  13.888   1.084  0.1735 -0.2457 -0.0652
16826W        W33674  10.968   6.884  13.788 -0.0410  0.0228  0.0523
16827W        W33675  12.103   4.592   1.408  0.0973  0.1659  0.0146
16828W        W33676   9.779   4.338   2.688 -0.0912 -0.0410 -0.3412
16829W        W33677  10.104   0.118   2.329  0.0080  0.0008  0.2329
16830W        W33678  13.057   7.304   2.906 -0.1190 -0.1302 -0.0101
16831W        W33679   3.853  17.437   1.464 -0.0676  0.1218  0.3335
16832W        W33680   1.941  11.858   4.758  0.3163 -0.0179 -0.2840
16833W        W33681   0.950  11.681   1.507  0.0673 -0.5354  0.1796
16834W        W33682  15.701  15.613  11.695 -0.1015 -0.1166  0.0548
16835W        W33683   0.448   5.326  15.776  0.2406 -0.0402 -0.2003
16836W        W33684   4.281  12.061   0.095 -0.1090  0.1422  0.1192
16837W        W33685  14.684   5.501   0.644 -0.1220 -0.1388  0.2456
16838W        W33686   1.729   4.422  14.035 -0.1541 -0.0661  0.1949
16839W        W33687  14.515   1.269   0.051  0.2191 -0.1495 -0.2225
16840W        W33688  14.019  11.695  15.215  0.2264  0.0744  0.0236
16841W        W33689   2.618  14.705   1.431  0.3154  0.0593 -0.1004
16842W        W33690   5.270  13.525   4.071 -0.0942  0.0078 -0.0830
16843W        W33691   8.704   0.124   2.763  0.2721 -0.0651 -0.0087
16844W        W33692  11.476   4.270  14.092 -0.1975  0.2801  0.0925
16845W        W33693   2.571  10.964  16.115 -0.0167  0.2480 -0.1619
16846W        W33694  14.690   5.285   1.595 -0.1265  0.0332  0.2060
16847W        W33695  12.895  12.201  11.741 -0.2210 -0.0499  0.0453
16848W        W33696   8.641  14.991  14.076  0.0113  0.1910  0.1463
16849W        W33697   9.335  14.365   4.683 -0.2051  0.2808 -0.1253
16850W        W33698  16.876   0.354  15.472 -0.1241  0.0429 -0.0506
16851W        W33699   8.712   8.326   3.032  0.1739 -0.2293  0.3424
16852W        W33700   3.180   1.727  13.970  0.3096  0.1695  0.1680
16853W        W33701   0.073   0.844  16.667 -0.2233  0.4320  0.0779
16854W        W33702   1.067   7.722   4.391 -0.0093  0.1145  0.0418
16855W        W33703   4.600  16.105  14.846 -0.0311 -0.1989 -0.0936
16856W        W33704   6.578   4.639  14.601  0.0010 -0.0570 -0.1033
16857W        W33705  15.003  14.797   1.195 -0.2145  0.0785 -0.1509
16858W        W33706   5.490   8.959   5.000  0.1983  0.0924 -0.2731
16859W        W33707   2.759   5.147   2.753  0.1608  0.1367 -0.2006
16860W        W33708   6.710   1.675   0.406 -0.2591  0.3134 -0.2517
16861W        W33709  16.498   8.651  14.842 -0.0143  0.0528 -0.1414
16862W        W33710   6.398  12.106   4.836  0.0888  0.1170 -0.1702
16863W        W33711  15.292   8.071  15.408  0.0654 -0.0146 -0.0028
16864W        W33712   7.300   5.947   1.699 -0.1492 -0.1092 -0.0970
16865W        W33713   6.646  13.547  14.865 -0.4541  0.1898 -0.2677
16866W        W33714  16.899   9.846   5.721  0.3844  0.3616  0.1030
16867W        W33715   7.287  15.489   0.942 -0.3363  0.0435  0.0272
16868W        W33716   2.802   8.175   2.647  0.0380  0.2379 -0.1846
16869W        W33717   8.405   9.222  12.534 -0.0770  0.3302 -0.2164
16870W        W33718  11.193  11.006  16.171  0.0303  0.1312  0.0511
16871W        W33719   2.781   8.447  16.091  0.1546  0.3327 -0.2965
16872W        W33720   8.549   9.292   2.593  0.0008  0.2487 -0.1384
16873W        W33721   7.746   3.771   4.498  0.3176 -0.2537  0.2617
16874W        W33722  10.552  17.610   5.046 -0.0106  0.0436 -0.0000
16875W        W33723   7.680  13.632   3.910  0.1202 -0.0410  0.1547
16876W        W33724   5.185  10.035   3.705  0.1238  0.0261 -0.0345
16877W        W33725   8.399   0.129   0.746 -0.0921 -0.0124 -0.1038
16878W        W33726   5.938   4.426  13.285  0.3389 -0.1605 -0.0206
16879W        W33727   7.681  11.750   5.239  0.2031  0.0678 -0.1699
16880W        W33728   0.112  14.398   5.065 -0.4883 -0.1557 -0.0251
16881W        W33729  10.963  15.360  15.009  0.0030  0.0926  0.0444
16882W        W33730   9.568   6.797  13.540  0.0424  0.0029  0.1557
16883W        W33731   5.853   5.224   4.707  0.1178 -0.1372 -0.1575
16884W        W33732  14.833   4.849  16.560 -0.1101 -0.0546 -0.1175
16885W        W33733  12.881  13.953  11.378  0.2181  0.0846 -0.1210
16886W        W33734   2.079   8.064   4.213  0.0486  0.1225  0.1472
16887W        W33735  13.920   3.949  13.235 -0.1028  0.3140 -0.1157
16888W        W33736   2.706  13.162   2.870 -0.2777 -0.0765  0.2005
16889W        W33737   2.106  13.824  12.867  0.1243  0.1126  0.0579
16890W        W33738   1.937  11.230   1.799 -0.0556  0.2346 -0.2176
16891W        W33739  13.511   5.968  15.001  0.0021  0.2455  0.1097
16892W        W33740   8.461  14.221   0.080  0.0537  0.4721  0.3679
16893W        W33741  10.469   5.648  15.028  0.2026  0.1480  0.4848
16894W        W33742  14.010  17.254   4.551  0.1532 -0.2839  0.0515
16895W        W33743   0.488   0.620  15.516  0.0405 -0.1778 -0.1288
16896W        W33744   0.968  13.959   4.078 -0.2223 -0.0042  0.2997
16897W        W33745   4.522  10.027   2.245 -0.0372  0.0856  0.0092
16898W        W33746  14.005  12.197   2.354 -0.1057 -0.1511  0.1530
16899W        W33747  15.757  17.505   4.550 -0.0959  0.1726  0.2895
16900W        W33748  17.505   3.357  15.904  0.0299  0.0035 -0.2314
16901W        W33749  12.026  11.336   0.382  0.0684 -0.0121  0.3025
16902W        W33750   0.146   4.114   4.241  0.0358  0.1400  0.1470
16903W        W33751   7.613   4.641  10.531  0.0924 -0.1291 -0.0998
16904W        W33752   0.008  12.202  14.765 -0.1643 -0.1740 -0.0727
16905W        W33753   1.983  10.250   0.882 -0.0496  0.2371 -0.0171
16906W        W33754   7.618  10.821  12.220 -0.0358 -0.0464  0.0934
16907W        W33755  12.003   7.482  10.610  0.0494  0.4248 -0.4188
16908W        W33756   4.334   0.004  14.893 -0.0819  0.1779 -0.0807
16909W        W33757  12.528   2.161   0.623  0.3050  0.2586 -0.3346
16910W        W33758   5.409  11.401  15.022 -0.2262  0.1405  0.1096
16911W        W33759   2.846  16.161  15.254 -0.3258 -0.1669 -0.0521
16912W        W33760  15.666  10.965  13.077  0.0671 -0.1494 -0.1234
16913W        W33761   7.660  12.383  13.648 -0.1244 -0.1097 -0.0928
16914W        W33762   3.484  10.246   2.115 -0.0112  0.1697 -0.1484
16915W        W33763  13.547   5.495  14.699  0.2071 -0.0381  0.0047
16916W        W33764  15.220  12.466   1.891 -0.1707 -0.0168 -0.0843
16917W        W33765   8.877   4.675   5.625 -0.0685 -0.1674  0.0267
16918W        W33766  11.460  13.098  12.589 -0.0723  0.2420 -0.0428
16919W        W33767  14.853  12.116  12.184  0.1089 -0.1734 -0.2589
16920W        W33768   4.022   1.539  15.719  0.4075 -0.0739  0.0885
16921W        W33769  13.003  12.415   5.415 -0.0558  0.0912 -0.0658
16922W        W33770  14.998   8.759   3.150 -0.1122  0.2194 -0.2200
16923W        W33771   2.970   7.946  16.386 -0.0074  0.0159  0.1278
16924W        W33772  11.205   7.768  13.258  0.2444  0.1150 -0.2385
16925W        W33773  15.103  16.279  11.363  0.3210  0.1302  0.2374
16926W        W33774   3.836  13.311   2.917 -0.3467 -0.2975  0.0160
16927W        W33775   7.979   6.967  14.148  0.2408  0.2386 -0.0380
16928W        W33776  17.482   6.890  16.577 -0.0941  0.0620  0.0558
16929W        W33777   1.534  15.023  14.306 -0.0277 -0.1715  0.4263
16930W        W33778  14.703   6.457   4.008 -0.1081  0.0390 -0.0019
16931W        W33779  11.883  10.409   1.393  0.2114  0.0809  0.0549
16932W        W33780  11.127  14.327   5.070  0.0366  0.0744 -0.0533
16933W        W33781  10.823  12.884   2.671  0.2544  0.0639 -0.1019
16934W        W33782   2.940   0.470  13.054  0.0939  0.1030 -0.1519
16935W        W33783  12.478   2.937  16.379 -0.1297 -0.1590  0.1556
16936W        W33784  11.747   8.493   3.786  0.1120 -0.2384  0.3521
16937W        W33785  15.090  15.645  14.891 -0.1309  0.0212  0.0034
16938W        W33786  11.885   3.996  15.480  0.1139  0.0050 -0.0581
16939W        W33787   9.498   6.904  16.063 -0.0414 -0.0245  0.2348
16940W        W33788   8.218   1.814  11.703  0.1304  0.0668 -0.0800
16941W        W33789   3.458   2.775  13.888 -0.0890  0.0693 -0.2089
16942W        W33790   8.700  17.118  11.056  0.0156  0.0502  0.1639
16943W        W33791   9.784  13.678  12.818  0.1689  0.0615 -0.2605
16944W        W33792   0.747  12.207  12.816 -0.2097  0.1217 -0.0329
16945W        W33793  10.430   6.405   3.178  0.1296 -0.0880  0.4843
16946W        W33794   1.172  12.337  10.969 -0.1383 -0.0250 -0.0067
16947W        W33795   7.674   1.633  14.500 -0.3104  0.1503  0.2722
16948W        W33796  13.764   4.087   0.702 -0.0142 -0.2152 -0.3014
16949W        W33797   8.440   8.346  11.959 -0.1724 -0.0825 -0.0475
16950W        W33798  10.231  15.025   0.305  0.0800 -0.2033 -0.2607
16951W        W33799  13.083   1.753  13.331  0.1320 -0.4121 -0.1050
16952W        W33800   3.892   5.089   5.617  0.4320 -0.0582  0.0694
16953W        W33801  17.611  13.940   4.810 -0.1757  0.0504  0.2826
16954W        W33802  11.149   9.574   4.097 -0.0733  0.0144  0.1000
16955W        W33803  15.152   4.169  14.284  0.2846 -0.0902 -0.1180
16956W        W33804  14.876  16.260   4.437 -0.2040  0.0374 -0.1441
16957W        W33805  11.078  16.477   5.424  0.1892  0.0390  0.0049
16958W        W33806   2.089   9.283  11.771 -0.1424  0.0570  0.1006
16959W        W33807   2.764  15.819  13.302  0.0632 -0.1052 -0.0186
16960W        W33808   2.385   0.803  14.139  0.1464 -0.0176  0.0452
16961W        W33809  14.712   9.654   2.041  0.0007  0.1221  0.1698
16962W        W33810   0.528   1.924  13.917  0.2206 -0.1533  0.1392
16963W        W33811  12.339  13.317  16.014  0.0583  0.0823 -0.0662
16964W        W33812  11.378   7.224  13.784 -0.1566  0.3614  0.0429
16965W        W33813   2.008  12.607  14.696  0.0059 -0.0645  0.0809
16966W        W33814  10.635  16.723  13.755  0.0258 -0.0272 -0.0835
16967W        W33815   1.945   5.300  13.999  0.1493  0.4211  0.2428
16968W        W33816   6.309   0.104   3.897  0.0947 -0.2455  0.1287
16969W        W33817  17.328  11.148   0.302 -0.1126 -0.3818 -0.2261
16970W        W33818   8.712   2.879  13.543  0.0932 -0.2279  0.1974
16971W        W33819   0.295   7.951   2.665  0.1286 -0.0260  0.2106
16972W        W33820  15.671   0.800   5.956  0.0960 -0.1700 -0.1050
16973W        W33821  12.580  10.530   0.943 -0.1489  0.1719 -0.2550
16974W        W33822   2.950   2.552   2.764  0.0235 -0.1021  0.0776
16975W        W33823   4.548   6.144  12.716 -0.0677 -0.0066  0.1023
16976W        W33824  15.146   3.421  12.239  0.4209  0.3841 -0.2687
16977W        W33825   6.088   3.625   5.664 -0.1549  0.2661  0.1850
16978W        W33826  14.421   0.490   0.041 -0.0514  0.1549  0.1341
16979W        W33827  12.073  16.600  12.127 -0.5461 -0.0945  0.0576
16980W        W33828  15.997  14.958   4.341  0.3565 -0.1038  0.3626
16981W        W33829   4.858  11.828   2.955 -0.0629 -0.0161  0.2962
16982W        W33830  15.976   4.894  15.682  0.1245  0.1298 -0.0890
16983W        W33831   6.770   6.179  15.454  0.3642 -0.1463  0.3928
16984W        W33832  13.370  13.878  15.556  0.1426 -0.1099  0.0681
16985W        W33833   6.763  14.541   4.900 -0.0570 -0.2904 -0.0546
16986W        W33834   4.675  17.059   0.686  0.0834 -0.3705 -0.2983
16987W        W33835   9.834  11.359  15.933 -0.0792  0.1845  0.1307
16988W        W33836   6.199   0.045   2.163 -0.1557  0.0073 -0.0951
16989W        W33837   0.089  17.507   2.569 -0.2756  0.1215 -0.0010
16990W        W33838  14.814  10.869  16.224 -0.3073 -0.1327  0.0738
16991W        W33839   8.069   2.942   2.013  0.0219 -0.0240  0.1506
16992W        W33840   5.286  17.193  11.055 -0.0075  0.3090  0.1929
16993W        W33841  10.972  10.618   0.834  0.1674  0.1085 -0.0658
16994W        W33842   8.870   7.728  13.006  0.1785  0.1152 -0.0109
16995W        W33843  15.193   4.511  15.752 -0.0999 -0.0935 -0.0686
16996W        W33844   7.511  13.631  13.213 -0.0997  0.1029 -0.0673
16997W        W33845  11.946   6.626  16.609  0.0361  0.2227  0.1491
16998W        W33846   1.779   4.124   2.853  0.0427 -0.1070  0.0839
16999W        W33847  13.639  17.392   0.274  0.0614 -0.0767 -0.0343
17000W        W33848  11.928  11.826  16.272 -0.2015  0.2740 -0.0301
17001W        W33849  13.877  10.749  16.203  0.1681 -0.0371 -0.0360
17002W        W33850  11.974   5.633  14.649  0.2539 -0.2106  0.0144
17003W        W33851  16.706   6.764  14.033 -0.0612  0.0446 -0.0742
17004W        W33852  11.138  16.897  16.148  0.2869  0.0812  0.3363
17005W        W33853   4.396   4.188   4.969  0.3601 -0.1326  0.1655
17006W        W33854  16.487   8.821  16.671  0.0949 -0.0464  0.1440
17007W        W33855   7.954  14.549   3.574 -0.0747  0.3116  0.0547
17008W        W33856   6.632   2.977  16.319 -0.1352 -0.0539 -0.4454
17009W        W33857   4.375  12.546   1.676 -0.0600 -0.0400  0.1461
17010W        W33858   8.407   6.470   3.152 -0.1174 -0.0050  0.0121
17011W        W33859   7.578   3.647  13.966  0.0816 -0.1147 -0.0023
17012W        W33860   7.236   8.527  14.744 -0.1605 -0.0998 -0.1757
17013W        W33861   1.429   5.178  12.286 -0.0065 -0.0897 -0.2261
17014W        W33862   4.384   8.715   2.967 -0.0138 -0.0231 -0.0175
17015W        W33863   1.746   6.788   1.585 -0.0634  0.2100 -0.0230
17016W        W33864   5.164  15.730  13.963  0.0297  0.2369  0.1315
17017W        W33865  13.398   2.846   1.132  0.0265 -0.2009 -0.1616
17018W        W33866   3.605   8.792  16.403  0.1498  0.1932  0.1547
17019W        W33867  16.421   2.594   2.361 -0.0134 -0.0864  0.0062
17020W        W33868   2.558   9.218  14.366 -0.0286 -0.0301  0.1156
17021W        W33869  15.185   5.826  15.605 -0.0618  0.0334 -0.1530
17022W        W33870  12.202  10.353  16.322  0.1969  0.2382 -0.0399
17023W        W33871   8.743   7.619   4.013 -0.1580 -0.3422  0.1627
17024W        W33872  15.385  10.149   0.674  0.0430 -0.0433  0.0426
17025W        W33873  13.906  14.298  11.728  0.3601  0.1592  0.1654
17026W        W33874   7.222   6.859  13.629  0.2350  0.0910  0.0948
17027W        W33875  16.702  11.052  12.456 -0.0594  0.3550 -0.0870
17028W        W33876   2.202  17.560   1.478 -0.0572 -0.3523 -0.0866
17029W        W33877  12.481   7.975  15.924 -0.0522  0.2142 -0.0554
17030W        W33878   9.922   2.485   3.540  0.1417 -0.3668  0.1609
17031W        W33879   7.253  12.649  13.990  0.0823  0.1498 -0.1825
17032W        W33880   4.604   9.408   1.889  0.0211  0.0856 -0.0846
17033W        W33881   9.842   2.149   2.453 -0.3383  0.1173 -0.0368
17034W        W33882   9.774   0.691   2.682  0.1841 -0.2268  0.1183
17035W        W33883   6.529   4.332  15.069 -0.0909  0.0051  0.0048
17036W        W33884  17.609   4.115  13.993  0.1265  0.2405  0.2116
17037W        W33885   3.769  15.556  12.875 -0.1418  0.0263 -0.2159
17038W        W33886  10.233   0.272   3.640  0.0011 -0.4187  0.0622
17039W        W33887   5.815  16.085   4.550 -0.1130 -0.2984  0.0504
17040W        W33888   9.252  12.806  12.749  0.1357  0.1848  0.1266
17041W        W33889   8.600   0.702   2.096  0.1582 -0.2243 -0.0624
17042W        W33890   4.875  14.332  11.937  0.0765  0.0682  0.0880
17043W        W33891   9.306  10.176   4.519  0.0005 -0.0126  0.0637
17044W        W33892   9.119  11.672   5.154  0.3752 -0.2415 -0.0322
17045W        W33893   0.277   4.089  16.418  0.0163  0.0468 -0.1385
17046W        W33894   4.370   1.442   2.027 -0.0070  0.1849 -0.2121
17047W        W33895   3.855  17.324   0.852 -0.0640 -0.0287  0.0825
17048W        W33896   2.294  13.871  15.104 -0.0380  0.1744  0.0811
17049W        W33897  12.971   8.596   5.547  0.1478 -0.1447  0.1480
17050W        W33898  14.585   8.641  12.222 -0.3276  0.1609 -0.0663
17051W        W33899  15.261   8.154   1.246  0.1271 -0.2711 -0.1081
17052W        W33900   5.350  13.221   3.686  0.0913  0.2254  0.0669
17053W        W33901  15.040  16.830  14.517 -0.0417 -0.0540 -0.0894
17054W        W33902   8.701   1.356   0.141  0.5145 -0.1258 -0.3663
17055W        W33903   6.990   4.790   0.756 -0.1301  0.5813 -0.1076
17056W        W33904   7.655   3.742  13.465 -0.0361  0.0552 -0.0027
17057W        W33905  10.910   9.477   1.352 -0.1014  0.0542  0.1144
17058W        W33906  17.616  12.595  12.470 -0.0649 -0.0666  0.3208
17059W        W33907   6.956   2.119  11.312 -0.0421 -0.0418  0.2320
17060W        W33908   0.192   3.510   0.285  0.0504 -0.1505  0.0347
17061W        W33909  11.355  12.628  15.397 -0.1781 -0.2601  0.0669
17062W        W33910  16.858  11.141  16.601 -0.2377 -0.0347  0.1984
17063W        W33911  15.716   1.939  16.131  0.2256 -0.1261 -0.0340
17064W        W33912   2.411   0.021   1.911  0.0882 -0.0268  0.1501
17065W        W33913  16.176   0.461   2.298  0.1953 -0.0196 -0.1651
17066W        W33914   2.688  10.372   1.034  0.0418  0.1678  0.0026
17067W        W33915  10.277  12.241   0.142  0.0526 -0.0821  0.2225
17068W        W33916   0.507   6.595  15.997  0.0971 -0.0778  0.1339
17069W        W33917   8.868  12.986   5.241 -0.1942  0.3978  0.0705
17070W        W33918   3.240   8.919  11.577  0.1486  0.1112  0.0864
17071W        W33919  15.641   0.957   1.115 -0.0112 -0.1483 -0.0489
17072W        W33920   8.913   5.250  12.087  0.1274  0.1909 -0.1195
17073W        W33921   6.971  12.707   5.608  0.2089  0.0826 -0.0875
17074W        W33922  12.478   2.830   3.431 -0.3205 -0.3438 -0.1017
17075W        W33923   8.064  13.507  13.525 -0.1557 -0.0987 -0.1221
17076W        W33924   7.520  17.696   0.065 -0.0451 -0.4394  0.1766
17077W        W33925   7.272  14.018   5.121  0.2755 -0.0065  0.2423
17078W        W33926  11.744  16.172   3.339 -0.0100 -0.0192  0.1059
17079W        W33927   8.923   6.186  16.255 -0.1495  0.0939 -0.4687
17080W        W33928  15.522  16.765   0.505  0.0250  0.1916 -0.1228
17081W        W33929   6.714  10.079  15.665 -0.0961 -0.0603 -0.2014
17082W        W33930  13.676   9.835   4.523 -0.1612 -0.0173 -0.3480
17083W        W33931  15.156  15.305   1.196 -0.0746 -0.2160  0.0874
17084W        W33932  17.630  10.389  16.614  0.0034  0.0948 -0.3219
17085W        W33933   2.041   4.850  13.860 -0.0709 -0.2195  0.0968
17086W        W33934  12.109  13.740  14.262 -0.1245 -0.0182  0.0048
17087W        W33935   3.625   1.255  14.675 -0.0471 -0.0580 -0.0585
17088W        W33936   4.676  14.810   2.300  0.1466  0.2764  0.3373
17089W        W33937   1.328   8.615   3.556  0.3710 -0.0154 -0.0978
17090W        W33938   3.345  14.967   0.993  0.0418  0.0490 -0.1862
17091W        W33939   2.989   2.559   1.138 -0.1577 -0.0531 -0.0021
17092W        W33940  13.018  11.326  12.248 -0.1911 -0.0597  0.1337
17093W        W33941  14.882  17.186   4.871  0.0337 -0.3990 -0.0353
17094W        W33942   5.086  15.278   4.624 -0.3408 -0.0248  0.2286
17095W        W33943   6.731  11.209  14.362  0.1694  0.1318 -0.1753
17096W        W33944   7.533   0.948   0.826  0.2202  0.1212 -0.0370
17097W        W33945   1.047  12.226  12.334  0.1379 -0.0330  0.1615
17098W        W33946   8.462   2.065  15.691 -0.1370  0.0770 -0.1982
17099W        W33947   2.601  12.586   0.494 -0.1446 -0.1341  0.1274
17100W        W33948  16.389  13.131  13.719 -0.3068 -0.1182 -0.1018
17101W        W33949  12.157  15.248   5.029 -0.1540  0.0894 -0.2577
17102W        W33950   2.250  13.363  15.982  0.0964 -0.5116 -0.0535
17103W        W33951   4.013  10.224  15.595 -0.2223 -0.1009  0.0667
17104W        W33952  16.579   3.184  16.222  0.0389 -0.0640 -0.3231
17105W        W33953   2.740   7.553   4.647 -0.0906  0.0987  0.0828
17106W        W33954   5.988   3.366   3.577  0.1712 -0.2446  0.1386
17107W        W33955   4.935   1.025   3.004  0.1898  0.1986 -0.0817
17108W        W33956   8.938   5.024  15.766 -0.2473  0.2506  0.1305
17109W        W33957  15.395  16.271   3.253  0.0121  0.0356 -0.1027
17110W        W33958   8.368   5.335   1.025 -0.2399  0.0913 -0.1615
17111W        W33959   7.659  16.494  16.603 -0.0084 -0.3958  0.0228
17112W        W33960  12.751   1.245   3.820  0.1372  0.0619  0.0603
17113W        W33961  14.778   1.075  15.583  0.1416  0.1247 -0.0756
17114W        W33962  11.458   4.484  11.999  0.1440  0.1481  0.3004
17115W        W33963   3.695   6.642  14.562  0.0432  0.1743 -0.1113
17116W        W33964   3.547  12.185  15.491 -0.1978 -0.1691 -0.1349
17117W        W33965   2.678  16.229  12.368 -0.0910  0.0794  0.0523
17118W        W33966  17.584   3.479   2.526 -0.0376  0.1716 -0.0900
17119W        W33967  12.759  14.345   0.551 -0.0860  0.1287 -0.0360
17120W        W33968   7.761  17.018  13.209  0.2074 -0.0712 -0.2557
17121W        W33969  17.582   9.398  12.426  0.0400  0.1380  0.2568
17122W        W33970  12.572   0.814  13.677 -0.0799  0.0231 -0.1664
17123W        W33971  17.173   2.490   1.019 -0.0703 -0.0236  0.0656
17124W        W33972   5.241  13.492   1.018  0.0884 -0.0981  0.0200
17125W        W33973  13.243  12.456  14.207 -0.0288  0.2552 -0.0317
17126W        W33974   4.338   0.031   0.225 -0.2203 -0.1620 -0.2757
17127W        W33975   7.556   6.197   2.036 -0.4051  0.0845 -0.0787
17128W        W33976   8.631   1.401  13.427  0.2938 -0.1733  0.1183
17129W        W33977  12.203   1.977   2.824 -0.4910  0.0940 -0.3526
17130W        W33978   2.171  10.512   2.484 -0.0321  0.1135 -0.2364
17131W        W33979   2.035   7.789  16.258  0.0431  0.1871 -0.0674
17132W        W33980  16.365  10.161   2.627 -0.2887  0.1074  0.0137
17133W        W33981   8.946   3.450   2.319 -0.0143  0.1161  0.0019
17134W        W33982   8.361  11.364   2.691 -0.1510 -0.3215 -0.2129
17135W        W33983   5.498   5.233  12.360 -0.1455  0.1365 -0.0780
17136W        W33984   9.118   0.969   3.737 -0.2621  0.1289 -0.1574
17137W        W33985   0.213   9.201   2.355 -0.1674 -0.1309 -0.1329
17138W        W33986  13.834   9.981   0.678  0.2145 -0.2365 -0.0741
17139W        W33987   2.298   7.536   4.366 -0.0911  0.2026  0.2538
17140W        W33988   8.184  12.212  16.089  0.0688 -0.0170 -0.0497
17141W        W33989  16.572   6.755  16.476  0.2394 -0.1316  0.3297
17142W        W33990   0.438   5.286  12.585 -0.2538  0.0323 -0.0549
17143W        W33991   0.256  10.342   3.193  0.0367  0.0363 -0.1853
17144W        W33992   8.498   8.578  10.482 -0.0789  0.0673 -0.1306
17145W        W33993   0.681  11.217  15.462  0.0944  0.1178  0.0272
17146W        W33994   5.647   2.435   4.548  0.2346  0.1506  0.0920
17147W        W33995  14.929   6.314  13.170 -0.2185  0.4297 -0.1972
17148W        W33996   3.731  12.741  12.189  0.0280 -0.0310 -0.0296
17149W        W33997  14.664  16.711   0.181 -0.2088  0.3531 -0.1171
17150W        W33998   5.787  12.402   2.804 -0.1481  0.0024  0.0859
17151W        W33999   2.639   9.653   3.011 -0.2838  0.2110  0.2646
17152W        W34000  13.904  13.510  14.366 -0.1701  0.0833 -0.1118
17153W        W34001   3.915  10.035  10.963  0.1121 -0.1057  0.1255
17154W        W34002   7.723  16.426  12.335 -0.1001  0.0781 -0.0236
17155W        W34003   7.215   4.964  10.484 -0.0758 -0.1895 -0.0019
17156W        W34004  11.816  12.381   4.594 -0.1181  0.0812 -0.0498
17157W        W34005  10.006   3.460   1.939  0.2050  0.2589 -0.1508
17158W        W34006  13.944   6.234  15.195 -0.1220 -0.3668  0.0816
17159W        W34007  16.717  12.470  12.687  0.0795 -0.1026 -0.0260
17160W        W34008  17.370  17.356  12.045 -0.2994  0.1352 -0.3151
17161W        W34009  16.839  16.059   4.120 -0.0850 -0.1677 -0.0909
17162W        W34010   1.981  11.711  15.198 -0.0815  0.1074 -0.3071
17163W        W34011   3.940  10.852   3.314 -0.1396 -0.4007 -0.2481
17164W        W34012  11.935   2.322   3.044 -0.2835  0.1781  0.0408
17165W        W34013  14.066   8.570  15.166  0.0557 -0.1071  0.1221
17166W        W34014   1.961  16.479  13.857  0.2513 -0.1232  0.2650
17167W        W34015   6.246  16.621  15.027 -0.1242 -0.1819 -0.0709
17168W        W34016   5.534   3.487  11.078  0.0076  0.0375  0.0489
17169W        W34017   2.112  12.409   6.059  0.2501 -0.2821 -0.1763
17170W        W34018   3.791  14.889  12.249 -0.0405 -0.1378  0.0895
17171W        W34019  12.935   5.057  12.007  0.1893 -0.2259  0.0883
17172W        W34020   9.065  13.499  15.074  0.0707  0.0575  0.0429
17173W        W34021   9.281   4.670  13.969 -0.1124 -0.2069  0.0753
17174W        W34022   9.352  17.397  10.753  0.0200  0.0430 -0.1425
17175W        W34023   7.261  12.756  15.516 -0.4875 -0.4792 -0.0008
17176W        W34024   9.622  10.715  14.786 -0.2551  0.1338 -0.0399
17177W        W34025  17.051  13.812   4.181  0.2224  0.2268 -0.2046
17178W        W34026   2.207   8.617  13.729 -0.0244  0.3886 -0.2168
17179W        W34027  15.784  12.382  16.274 -0.0111 -0.0602  0.0422
17180W        W34028   5.705   3.984   4.548 -0.0842 -0.4009  0.2309
17181W        W34029  11.477  15.058  16.578 -0.1631  0.2126 -0.0846
17182W        W34030  12.182   6.975   3.325 -0.0008 -0.0024 -0.0267
17183W        W34031  11.049  11.757   2.682  0.1782  0.2096 -0.1693
17184W        W34032  17.530   1.864   3.474  0.0570 -0.1971 -0.1153
17185W        W34033  13.274   4.579  15.923 -0.0033 -0.0090  0.0565
17186W        W34034   8.769  10.124   4.502 -0.0216 -0.1408  0.1438
17187W        W34035  13.794  14.868  15.801  0.0727 -0.0493  0.0681
17188W        W34036  12.640   3.038   2.609 -0.0712 -0.2904  0.0825
17189W        W34037   7.540   3.921  16.456 -0.1216  0.1755 -0.1977
17190W        W34038  13.986   8.192  13.739  0.0003 -0.1545  0.3341
17191W        W34039   9.525   5.230   4.086  0.0501  0.2102 -0.1787
17192W        W34040  16.374  10.928   5.140  0.1838  0.1021 -0.0272
17193W        W34041   9.357   2.769  15.404  0.0985 -0.0628 -0.0677
17194W        W34042  15.990   0.295   3.681 -0.3782 -0.0161  0.0580
17195W        W34043   2.288  15.616   1.530  0.1754 -0.1856  0.2267
17196W        W34044  10.678  16.561   2.653  0.0850 -0.0965  0.0006
17197W        W34045   2.349  16.726   1.418 -0.0862  0.0724  0.0463
17198W        W34046  12.739  14.128   2.327 -0.0807 -0.1050  0.0862
17199W        W34047   8.169  10.517  14.944  0.0349  0.0094  0.1664
17200W        W34048   2.056  15.323  12.231  0.3004 -0.0589 -0.4273
17201W        W34049  10.945  16.531   1.523 -0.0414 -0.2178 -0.1711
17202W        W34050   7.513   9.178  14.242 -0.2312  0.1637  0.1889
17203W        W34051  15.261  10.292   2.528 -0.0609 -0.0256 -0.2796
17204W        W34052   3.877  14.752   1.846 -0.0871 -0.1610 -0.3100
17205W        W34053  12.968   4.275  16.149 -0.1291 -0.0073  0.0572
17206W        W34054   0.381   1.657   2.856 -0.1970  0.0159 -0.1457
17207W        W34055  15.144  16.092  12.364 -0.0605  0.0846 -0.0440
17208W        W34056  11.510  11.355   1.444  0.2470  0.0632  0.0871
17209W        W34057   9.484  17.473  15.539 -0.3962  0.0366 -0.0824
17210W        W34058   4.669  17.502  13.433  0.0034 -0.1604  0.2044
17211W        W34059  12.459   7.783  14.169  0.1020  0.0650 -0.2875
17212W        W34060   1.343   1.132   4.405  0.0687 -0.1834 -0.0223
17213W        W34061   7.684   0.106  16.180 -0.1600  0.1243  0.1496
17214W        W34062  13.143   7.593   5.749  0.1327 -0.0548  0.1737
17215W        W34063   8.646   3.454   0.985  0.0747  0.1714  0.4230
17216W        W34064   9.668   0.424  11.706  0.2136 -0.0657 -0.1795
17217W        W34065   2.143  13.550  12.482 -0.2782  0.0098 -0.0969
17218W        W34066   5.329  10.241  15.986 -0.0747 -0.0614  0.1011
17219W        W34067  14.986  12.615  12.702 -0.1051 -0.1878  0.3003
17220W        W34068  15.209   9.733  14.965  0.0552 -0.3649  0.0800
17221W        W34069   8.731   0.661  14.509  0.3379 -0.2068  0.0564
17222W        W34070   4.848   1.531  10.737  0.1805  0.0669 -0.1620
17223W        W34071  14.178   0.144  16.399  0.0880  0.0648 -0.1093
17224W        W34072   1.658  13.728  13.182  0.1978 -0.2350 -0.1204
17225W        W34073  16.649   2.830   2.847  0.0010 -0.0798  0.2734
17226W        W34074  16.045  13.502  12.867  0.1727  0.0301  0.0078
17227W        W34075  16.111  16.730  16.431  0.5193  0.0140  0.0679
17228W        W34076   5.616  13.124   3.256 -0.3455  0.3059  0.2405
17229W        W34077   7.414   6.933  11.192 -0.2820 -0.0979  0.3234
17230W        W34078   6.581  15.064   3.171  0.0052  0.0184 -0.0503
17231W        W34079  14.520   9.128   2.622 -0.1414  0.1408 -0.2568
17232W        W34080  17.264   1.203   0.551  0.0624  0.2079 -0.2391
17233W        W34081   0.416  13.147  11.280 -0.1023 -0.2150 -0.0836
17234W        W34082   2.087  13.083   2.346 -0.1022 -0.0085  0.1293
17235W        W34083  14.486   2.694   3.385 -0.6303 -0.0293 -0.2854
17236W        W34084   7.065  10.778  13.070  0.2004 -0.0856  0.0511
17237W        W34085   5.609   4.156  12.666 -0.0995 -0.1066 -0.0189
17238W        W34086   2.881  12.962   0.231 -0.3958 -0.1997 -0.0651
17239W        W34087  13.353   8.508   2.804  0.1385  0.2389 -0.1881
17240W        W34088  13.016  15.971   3.106 -0.0687  0.0710 -0.1453
17241W        W34089  15.347  13.834   4.673  0.0637  0.1406 -0.1084
17242W        W34090   9.144   1.951   4.510 -0.1147 -0.0280 -0.0987
17243W        W34091   0.592   0.546   3.783 -0.0220 -0.0409 -0.1264
17244W        W34092  11.915  12.698   0.853  0.2295 -0.4189  0.2080
17245W        W34093  15.567   1.501   4.881  0.0120  0.1780 -0.0471
17246W        W34094   5.047   5.778  15.925 -0.0166  0.1268  0.1922
17247W        W34095   0.752   6.146  12.217  0.4144  0.2788  0.2526
17248W        W34096   0.696   7.221   5.011 -0.0656 -0.1274 -0.0827
17249W        W34097  13.399   7.572   1.224  0.0766  0.1552 -0.2607
17250W        W34098   5.554   2.168   4.988 -0.1429 -0.2117  0.1573
17251W        W34099   4.403  13.222   1.607  0.1334  0.1856  0.0566
17252W        W34100   0.150  11.082   3.448  0.0216 -0.0578 -0.0365
17253W        W34101  15.097   8.619   4.409 -0.0885 -0.0992  0.1199
17254W        W34102   7.853   5.442   3.993  0.0371 -0.2912 -0.0060
17255W        W34103  14.320  12.250   0.829  0.1966 -0.0383  0.1528
17256W        W34104   2.969  12.581  14.883  0.1038 -0.0006 -0.3050
17257W        W34105   8.347  10.061   4.081  0.1058  0.0692 -0.1961
17258W        W34106  14.717   1.445  11.984 -0.0229  0.1863 -0.1760
17259W        W34107   0.797  14.869   4.511 -0.2430  0.3158 -0.0876
17260W        W34108  12.373  10.840  16.194 -0.0393  0.3251 -0.2437
17261W        W34109   4.666  15.073  15.660  0.1850 -0.1348 -0.1453
17262W        W34110   7.307   0.567  13.705  0.1341  0.1059  0.1710
17263W        W34111  14.101   1.657  15.149  0.0692 -0.0724 -0.1508
17264W        W34112   7.581   0.089  14.050  0.3259 -0.3238 -0.0315
17265W        W34113   7.753  15.301   0.727  0.3231 -0.2785  0.0872
17266W        W34114   1.750   0.248  11.850 -0.1581 -0.2697 -0.1084
17267W        W34115   3.897  16.010  13.172 -0.1800  0.0582 -0.0008
17268W        W34116   1.978   3.414   1.936  0.3069 -0.0407  0.0766
17269W        W34117   8.802   7.384   4.840  0.2937  0.1676 -0.1484
17270W        W34118  13.499  15.770  14.505  0.4324  0.0036  0.1160
17271W        W34119  13.968   2.551  16.299 -0.2202  0.1149  0.0123
17272W        W34120  16.964   2.499  15.600  0.1759  0.0119  0.3564
17273W        W34121  17.641  16.437  15.271  0.1635  0.3057  0.1933
17274W        W34122  16.241   2.973   1.065  0.1132  0.0192  0.0073
17275W        W34123   4.100  13.531  14.620  0.1805  0.1145  0.0983
17276W        W34124   2.180  15.005   0.703  0.3019  0.0520 -0.1382
17277W        W34125   4.226  13.188  12.833  0.1883 -0.1014 -0.1023
17278W        W34126   5.082   6.565  15.384 -0.2098 -0.0981 -0.1827
17279W        W34127  15.315   3.026   3.116 -0.0224  0.0333 -0.1104
17280W        W34128  14.815  10.558  13.291  0.1258 -0.0799  0.0297
17281W        W34129   5.348   0.362   5.073  0.1550 -0.1755 -0.2847
17282W        W34130  11.801  11.236  12.261 -0.2072  0.3736  0.1760
17283W        W34131  12.026  12.989  15.726 -0.2286 -0.0449  0.0206
17284W        W34132  12.485  13.177   2.146  0.5100 -0.2735  0.1751
17285W        W34133  10.433   7.855   4.611 -0.1903  0.0958 -0.2961
17286W        W34134   4.177   2.258   0.555  0.3007  0.0554 -0.0131
17287W        W34135  17.552  11.925   3.942 -0.0901  0.0197  0.0665
17288W        W34136  16.414  17.589   0.679  0.0879  0.2818 -0.1177
17289W        W34137   7.069  13.899  14.205  0.0401  0.0275  0.0449
17290W        W34138  12.133  10.636  13.094 -0.2364  0.0105 -0.4331
17291W        W34139  10.701  13.073  15.198  0.0318 -0.1015 -0.3145
17292W        W34140   9.752   9.773  14.189  0.1035  0.0433 -0.0568
17293W        W34141   6.086  13.819   2.652  0.0180 -0.2246 -0.0096
17294W        W34142   2.657   8.307  11.742  0.1327 -0.1016 -0.0829
17295W        W34143  14.078   1.109  13.968 -0.0629  0.0216 -0.2065
17296W        W34144   1.993  15.478   3.827  0.0430 -0.0472 -0.2302
17297W        W34145  11.842  16.629   3.505  0.1002 -0.2338 -0.0533
17298W        W34146  12.471   3.015   3.870 -0.0682 -0.1768  0.0828
17299W        W34147  13.220   8.063  11.357 -0.1159 -0.3592 -0.0446
17300W        W34148  13.106  10.337  15.974  0.1172  0.0982 -0.3377
17301W        W34149   2.649  11.295   4.258 -0.2013 -0.1228 -0.2447
17302W        W34150   7.930  16.181   2.934 -0.0272 -0.2419 -0.1502
17303W        W34151  12.725   2.907  12.091  0.0494 -0.0772 -0.3280
17304W        W34152   8.681   9.511  10.172 -0.1008  0.1444  0.2615
17305W        W34153  11.491  17.454   0.375  0.0514  0.2293  0.2102
17306W        W34154   6.174   3.169  14.612  0.0479  0.0757  0.0372
17307W        W34155  13.329   9.090   4.439  0.0245  0.0962 -0.0765
17308W        W34156  10.876  16.860  15.356  0.0147  0.0961 -0.1260
17309W        W34157   4.175  12.977   0.270 -0.2221  0.1261 -0.2203
17310W        W34158  15.381   7.503  13.959 -0.0013  0.1858  0.2798
17311W        W34159   8.611   6.220  14.513 -0.1597 -0.0281 -0.0492
17312W        W34160  13.522   4.852   3.681 -0.0451  0.2847 -0.0904
17313W        W34161  12.455   9.760   0.408  0.1074  0.0768 -0.3808
17314W        W34162   2.140   6.885   0.277 -0.3442 -0.1755 -0.0336
17315W        W34163   8.553  12.933  15.671 -0.1603  0.1093  0.0202
17316W        W34164   2.318   3.572  15.695  0.1597 -0.0583  0.0450
17317W        W34165   4.693   3.993  15.481  0.1483  0.4412 -0.0649
17318W        W34166   9.437   4.002  13.564 -0.1533 -0.1678 -0.1461
17319W        W34167  11.651   6.067  14.576  0.0690  0.0156  0.0785
17320W        W34168  11.234   4.477   5.572 -0.0874  0.1038  0.1327
17321W        W34169   9.904  11.878   3.652 -0.1067 -0.2758  0.1140
17322W        W34170   1.077  16.222   0.222 -0.0561 -0.0605  0.0165
17323W        W34171  11.161   4.008   2.020  0.0093 -0.0255  0.2888
17324W        W34172   4.336  15.610   1.988 -0.0308 -0.0191  0.2311
17325W        W34173  16.099  16.710   2.240  0.1663 -0.1174 -0.0532
17326W        W34174  17.532   2.586   0.597 -0.4467  0.1299  0.4324
17327W        W34175  17.502   7.775  12.552  0.2312  0.2581 -0.0768
17328W        W34176  17.513   7.530  14.014 -0.3560 -0.1904 -0.1581
17329W        W34177  13.667   9.405   4.723  0.0177 -0.1312 -0.1332
17330W        W34178   7.519  16.436   2.996  0.0535  0.1460 -0.2399
17331W        W34179  10.968   5.973  15.775 -0.0584  0.0551 -0.1116
17332W        W34180  11.646   1.561  12.358 -0.0910  0.2958  0.2235
17333W        W34181   0.030   4.587   4.073 -0.1533  0.1144  0.0157
17334W        W34182   0.472  16.645   0.256  0.2023 -0.1663 -0.0515
17335W        W34183   0.478   8.554   0.690 -0.3121  0.2868  0.0517
17336W        W34184   6.235   1.691  13.908  0.4572 -0.1845 -0.3599
17337W        W34185   0.172   7.091   5.845 -0.0657  0.1522 -0.2387
17338W        W34186   2.267   3.879  12.213 -0.1662 -0.2298  0.2197
17339W        W34187   3.076  15.268   2.135  0.0676  0.1936 -0.0203
17340W        W34188   3.563  13.918   0.704  0.1898 -0.1174 -0.0262
17341W        W34189   9.006   5.604   6.051  0.2410  0.1818  0.2657
17342W        W34190   8.208  13.959  13.301 -0.1339 -0.0395 -0.3042
17343W        W34191  14.491  14.216   4.963  0.0659  0.0732  0.1460
17344W        W34192   2.948   6.849   1.409  0.0568  0.0671  0.0608
17345W        W34193   2.020  15.633   5.916 -0.2326  0.0578  0.0315
17346W        W34194  12.113  10.247  13.480  0.1812  0.1075  0.0909
17347W        W34195  16.133   9.284   5.636  0.0797  0.0921  0.0169
17348W        W34196   8.341   9.203   6.012  0.1731 -0.0692 -0.2900
17349W        W34197  12.913  11.276   5.294 -0.1419 -0.0451  0.0377
17350W        W34198   6.426   6.763  13.189  0.0283  0.0875 -0.0437
17351W        W34199  16.043   8.205   2.044  0.0104  0.0348  0.0628
17352W        W34200   3.676   5.808  11.967 -0.2623  0.2242 -0.3196
17353W        W34201   4.030   2.506   2.140  0.0101  0.2908 -0.0526
17354W        W34202  14.559   2.061  15.434 -0.0117 -0.1041  0.2834
17355W        W34203  11.562   8.425   5.076 -0.0147  0.0411 -0.2445
17356W        W34204   2.727   8.476   0.808 -0.3028  0.0154 -0.2144
17357W        W34205  16.711   6.249   4.034  0.1935 -0.0856  0.0712
17358W        W34206  16.573   5.345   4.069  0.0424  0.0491  0.1239
17359W        W34207  13.852  12.021  12.659 -0.0255  0.2160  0.0754
17360W        W34208  17.403  15.889  13.488 -0.0104  0.3776  0.1152
17361W        W34209   6.047  17.352  13.868 -0.2718  0.0286  0.0308
17362W        W34210  10.531  14.320   0.695 -0.1648  0.1748 -0.2878
17363W        W34211   8.666   5.851   0.895 -0.0712 -0.1317  0.0333
17364W        W34212   3.893   4.937   1.838 -0.0518 -0.0593 -0.2601
17365W        W34213  15.728   0.028  12.570  0.0082 -0.4640 -0.0006
17366W        W34214  14.230  15.381   0.708  0.1654 -0.0851 -0.0423
17367W        W34215  17.104   1.330   2.447  0.0214  0.2636  0.0366
17368W        W34216  10.415   4.819   2.956  0.0600  0.0069 -0.1601
17369W        W34217   2.757  16.039   3.557  0.0835  0.2167  0.2440
17370W        W34218  15.572   4.209   1.428  0.0797  0.2673 -0.0989
17371W        W34219  11.127   9.427   3.206  0.2012 -0.2078 -0.0951
17372W        W34220   6.772  12.290  10.627 -0.0948 -0.0852  0.0754
17373W        W34221   1.573  10.844   3.238 -0.1565  0.0924 -0.3752
17374W        W34222   6.622   5.989  14.230 -0.0857 -0.1233  0.0911
17375W        W34223   8.928   6.409  13.153 -0.1003 -0.0995  0.2923
17376W        W34224   7.428  10.654   5.610  0.0396 -0.0728  0.2473
17377W        W34225   2.480  12.318   2.763  0.2495  0.1879  0.0116
17378W        W34226   6.209   5.150   4.154  0.0876 -0.0255 -0.1869
17379W        W34227  14.096   3.208   4.699  0.0587 -0.1235 -0.0842
17380W        W34228   6.699   7.193   1.617 -0.2132  0.1893  0.0833
17381W        W34229   5.950  15.761   4.883  0.0275  0.0388 -0.1568
17382W        W34230  17.010   5.461   0.705  0.2251  0.2675 -0.1852
17383W        W34231  15.424  14.467  13.377 -0.0856 -0.0437 -0.1711
17384W        W34232   5.312  14.992  11.692 -0.0986  0.2284  0.1526
17385W        W34233   9.119   1.922  10.547 -0.1065 -0.1395 -0.2577
17386W        W34234  13.383   5.643   6.108 -0.1702 -0.0422 -0.2383
17387W        W34235  11.127   4.101  14.849 -0.1738  0.1279  0.2759
17388W        W34236  11.365   8.580  14.776 -0.0058  0.2447  0.3535
17389W        W34237  12.169   5.170  16.555 -0.2307  0.0097  0.0859
17390W        W34238  12.618   2.693  13.475 -0.1732 -0.1864 -0.0189
17391W        W34239  13.734   8.482  14.587 -0.0732  0.0091  0.0745
17392W        W34240  14.943  13.607  14.286 -0.0885 -0.0903 -0.3053
17393W        W34241   4.275  10.085  14.573 -0.0529  0.3834  0.1376
17394W        W34242   9.514  12.232  11.997 -0.0082  0.0708 -0.1044
17395W        W34243  16.647  12.161  13.627  0.1550  0.0525  0.2098
17396W        W34244  11.994  14.333  15.089 -0.0017 -0.2323  0.1071
17397W        W34245   6.695  15.273   2.682 -0.0690  0.3418 -0.2018
17398W        W34246   6.366  17.007  12.474  0.0096 -0.0593 -0.1021
17399W        W34247  11.641   5.343   1.609  0.0987  0.0835 -0.0048
17400W        W34248   3.220   4.052   4.118  0.0499 -0.0134 -0.0410
17401W        W34249   1.362   3.188  11.417 -0.2244  0.1319 -0.2702
17402W        W34250   6.281  10.076  15.969 -0.1493 -0.1167 -0.2279
17403W        W34251   3.784   3.764  16.470  0.0577 -0.1724 -0.0875
17404W        W34252  10.729  17.152   3.719 -0.0845 -0.1238 -0.2587
17405W        W34253   6.615  11.053   4.464 -0.1883 -0.5108 -0.0404
17406W        W34254   7.483  14.630  16.333  0.0206  0.4041  0.2896
17407W        W34255   4.033  16.262   5.329  0.0332 -0.2513  0.0944
17408W        W34256   0.740   1.261   4.393  0.0389  0.1068 -0.0148
17409W        W34257   5.333  14.854  14.421  0.0258 -0.1374  0.1122
17410W        W34258  15.192   9.718  13.198 -0.2477 -0.1935  0.2258
17411W        W34259   7.414  12.755   5.247  0.2352 -0.4606  0.0948
17412W        W34260  11.238   6.646   4.158  0.1367 -0.2392 -0.0863
17413W        W34261  17.043  14.539   1.862 -0.0756 -0.1079  0.0596
17414W        W34262   7.576   2.384   3.400  0.0095 -0.1214 -0.1962
17415W        W34263   1.607  16.505   5.780 -0.1037  0.0123 -0.1583
17416W        W34264  13.397   1.832   3.609 -0.0853 -0.1177  0.1245
17417W        W34265  13.220   7.580  14.398  0.3261  0.3289  0.0245
17418W        W34266   7.122   6.364   1.877  0.2197 -0.1440  0.0055
17419W        W34267   3.410   8.208  14.306 -0.0570  0.1812 -0.3306
17420W        W34268   0.972   1.554   0.926 -0.1452 -0.0127 -0.1788
17421W        W34269   0.283  17.106   0.035 -0.2223 -0.3006  0.0111
17422W        W34270   3.775  13.419   3.446 -0.1746  0.3536  0.2593
17423W        W34271  13.687   2.941   4.729  0.0137 -0.0950  0.1354
17424W        W34272  15.452  10.959  14.970 -0.2388 -0.0377 -0.2791
17425W        W34273  16.864  14.611   0.369 -0.0797  0.1292  0.1795
17426W        W34274  11.789   6.386   0.347  0.1466  0.0252  0.1352
17427W        W34275   4.668   5.917   0.585 -0.1887  0.1942  0.0963
17428W        W34276  16.817  15.078  16.176 -0.1938  0.0107  0.1101
17429W        W34277   6.772   2.556  13.784  0.0727  0.2740 -0.1102
17430W        W34278  16.019   3.479   0.901  0.1204  0.1426  0.1805
17431W        W34279  13.145   1.511   3.952  0.0546 -0.1847  0.1031
17432W        W34280   4.604  12.251   5.278  0.2663 -0.6492  0.0933
17433W        W34281   2.401   8.278  14.759  0.1029  0.4050 -0.1619
17434W        W34282   7.150   6.644  13.089 -0.1607 -0.1629 -0.0305
17435W        W34283   8.378   6.738  12.855 -0.1350 -0.1549 -0.0708
17436W        W34284   6.962  17.000   0.956 -0.0521  0.0041 -0.2739
17437W        W34285   5.528  12.435   5.220  0.1280  0.3403  0.0169
17438W        W34286   2.567   6.485   1.635  0.0355 -0.2116 -0.2889
17439W        W34287   8.922   9.646   2.481  0.2565 -0.0641  0.0664
17440W        W34288  17.319  14.279   5.036 -0.0716 -0.2967 -0.0592
17441W        W34289  16.105   3.254  14.950 -0.1004 -0.4032  0.1538
17442W        W34290   0.506   0.123  11.370 -0.3204 -0.0215  0.1691
17443W        W34291   1.836   7.517  14.513  0.2172  0.1797 -0.0808
17444W        W34292   5.280  11.330   3.435 -0.3791 -0.1208  0.0522
17445W        W34293   7.243  13.132  12.980  0.1682  0.1847 -0.3035
17446W        W34294   1.448   2.222   2.340 -0.3208  0.0891 -0.1887
17447W        W34295   6.785  16.090  15.549 -0.1753 -0.3934 -0.3045
17448W        W34296   2.461  15.697  12.391  0.0688 -0.5512 -0.0161
17449W        W34297   2.237   0.940   0.702 -0.1699  0.1187  0.3205
17450W        W34298   1.509  16.570  14.655  0.0236 -0.0039 -0.1624
17451W        W34299  12.588   1.313  11.330  0.0144  0.2760 -0.1487
17452W        W34300   1.717  15.430   3.417  0.0052 -0.1268 -0.0455
17453W        W34301   8.611  13.568  13.720  0.0170 -0.4544  0.1551
17454W        W34302   1.968   2.247  12.778 -0.0277 -0.1109  0.0673
17455W        W34303   4.610   3.951  14.582  0.2225 -0.1534  0.0676
17456W        W34304   6.559  13.451   1.304 -0.1511 -0.1255 -0.0072
17457W        W34305  13.955   5.038  16.324 -0.0166  0.1617  0.2648
17458W        W34306  13.004   3.227   2.370 -0.1352 -0.1536  0.3138
17459W        W34307   8.118  15.565  14.092 -0.4121 -0.1333  0.1023
17460W        W34308   7.141  12.932   2.261  0.0432 -0.2828 -0.2641
17461W        W34309   1.172  10.108  12.515 -0.4266  0.0067  0.3145
17462W        W34310   8.962   2.416   2.584  0.0821 -0.0630 -0.0446
17463W        W34311  17.424   5.871   3.679 -0.0812 -0.3287  0.4277
17464W        W34312  11.940  11.459   1.824  0.2533  0.1635  0.0323
17465W        W34313  10.771  11.674  15.860 -0.1875  0.3149  0.4367
17466W        W34314   0.134   3.012  16.619  0.2696 -0.1848 -0.1971
17467W        W34315  16.577   2.891   3.645  0.0468 -0.1725 -0.1153
17468W        W34316   1.870   0.607   1.466  0.0123  0.3212  0.1343
17469W        W34317  16.492  12.534  12.179 -0.0348  0.0137 -0.0406
17470W        W34318   2.556   0.037  14.801  0.1894 -0.1069 -0.2072
17471W        W34319   0.735  16.981  11.966 -0.1020 -0.1420  0.2150
17472W        W34320   9.764   7.627   1.666 -0.2159 -0.0318 -0.1791
17473W        W34321   5.322   4.659  14.948 -0.3642 -0.1241  0.1550
17474W        W34322   8.503  17.156  16.521  0.0507 -0.0815  0.0547
17475W        W34323   9.865   6.681   1.371 -0.0360 -0.0706  0.2447
17476W        W34324  12.634  12.912  14.457 -0.1413  0.0898  0.3140
17477W        W34325  10.982  11.191   2.760  0.0052 -0.1758 -0.1154
17478W        W34326   0.980  15.226   3.046 -0.2913 -0.0939  0.0382
17479W        W34327  11.796   1.165  13.857 -0.0934  0.0465  0.2774
17480W        W34328   2.320   0.545   1.034  0.2123 -0.0080  0.3643
17481W        W34329   2.936   4.392  14.277 -0.1710 -0.1169 -0.1318
17482W        W34330  14.745  12.286  13.579 -0.4355  0.2226 -0.1719
17483W        W34331  11.819   8.805   1.515 -0.1169 -0.1539  0.2060
17484W        W34332   9.667   8.414  14.035 -0.0153 -0.0968  0.2269
17485W        W34333   2.764   3.953  12.782  0.1353 -0.2014  0.2771
17486W        W34334   5.278   2.198   2.913 -0.0828 -0.2051 -0.1935
17487W        W34335   0.537  11.700  16.328  0.1209  0.1585  0.2126
17488W        W34336  14.748   0.045  15.000  0.1094 -0.1677 -0.1575
17489W        W34337   2.373  12.145   0.266 -0.0197  0.2375 -0.1385
17490W        W34338  12.948   0.690   2.519 -0.3281 -0.0260 -0.2121
17491W        W34339   3.497   4.934  13.425 -0.2183 -0.1391  0.1725
17492W        W34340  12.963   5.972   0.879 -0.1799  0.1324 -0.2605
17493W        W34341   5.251   7.482  14.388 -0.0369 -0.1869  0.2175
17494W        W34342   4.333  15.305  14.549  0.3393 -0.1775 -0.0782
17495W        W34343   2.496  14.895   5.135 -0.0832  0.2021  0.4536
17496W        W34344   0.707   2.274   3.439  0.3182 -0.1492 -0.3784
17497W        W34345   6.142   8.117   1.446  0.0080  0.1504  0.1188
17498W        W34346  12.901   7.704  15.755  0.0218  0.0197 -0.0695
17499W        W34347   6.447  11.036  16.009 -0.0377  0.0353  0.2414
17500W        W34348  17.434  16.120  15.747 -0.1372 -0.2656 -0.0991
17501W        W34349   5.023  10.373  12.373  0.0270 -0.0765  0.0672
17502W        W34350  11.610  15.031  12.709  0.1736  0.0796 -0.2051
17503W        W34351   2.892   6.768  14.457 -0.0057  0.0767  0.1935
17504W        W34352   4.297   9.039  14.464  0.0188  0.2987 -0.2256
17505W        W34353  12.429  13.162  12.444 -0.2127  0.1705 -0.0556
17506W        W34354   0.749  10.171   4.475 -0.0470  0.0168 -0.0323
17507W        W34355   0.105  13.114  14.092  0.0632 -0.1469 -0.4696
17508W        W34356   4.727  14.527   0.135 -0.4208 -0.0818  0.3151
17509W        W34357   3.643   4.050   4.539 -0.0042  0.1113 -0.0151
17510W        W34358   2.429   8.257   3.120  0.3575  0.2684  0.0432
17511W        W34359   4.017  15.122  16.158  0.0210  0.0069 -0.3497
17512W        W34360   5.544   3.335  12.788  0.1012  0.1665 -0.0240
17513W        W34361   6.620   7.296  14.220  0.2452  0.1402  0.2173
17514W        W34362   9.381   1.373  12.838  0.0577 -0.0154  0.0018
17515W        W34363  10.141  13.663  15.937  0.0253  0.2113 -0.0193
17516W        W34364  13.301  13.450   3.492 -0.0686 -0.0980  0.0077
17517W        W34365  10.887   0.062  14.658  0.4061  0.0560  0.3435
17518W        W34366   0.766   5.346   4.970  0.3106  0.1146  0.2675
17519W        W34367  10.662   3.950  14.218  0.1311  0.4361 -0.3657
17520W        W34368   0.556   7.415   2.828  0.0273  0.0495  0.0108
17521W        W34369   4.599  15.805   2.858  0.1755 -0.2459 -0.0244
17522W        W34370  11.520  14.413   2.788 -0.0991 -0.0570 -0.0516
17523W        W34371  14.304   1.946   5.866 -0.2258  0.2630  0.1980
17524W        W34372  12.549   6.208   1.086  0.1952 -0.1272 -0.0398
17525W        W34373  10.498  16.966   1.877  0.1019  0.0297 -0.2350
17526W        W34374   0.583  15.217  14.072  0.1907  0.2250 -0.1829
17527W        W34375   8.960   9.482  14.313 -0.1794  0.0831  0.3110
17528W        W34376   8.584  12.384  13.614  0.0281 -0.3046  0.0401
17529W        W34377   5.631  17.338   0.623 -0.0345  0.1112  0.1636
17530W        W34378   6.233  13.363   4.614  0.0113  0.0556  0.0109
17531W        W34379   5.450  14.486   4.587 -0.0784 -0.0934  0.0087
17532W        W34380   0.298  10.991  15.170 -0.2296  0.0407  0.2267
17533W        W34381   3.683   3.697  12.201  0.2430 -0.1223 -0.0405
17534W        W34382   6.205   9.468   1.156 -0.0276  0.0960  0.1409
17535W        W34383   9.298   4.125   4.425  0.0926  0.0828  0.1060
17536W        W34384  16.661  16.460   3.559  0.1741  0.0454 -0.0400
17537W        W34385   7.607   3.466  15.725 -0.0550 -0.0648  0.0317
17538W        W34386   6.334   1.889  14.635  0.0300 -0.0479  0.0495
17539W        W34387   7.693   4.781  15.374 -0.0239  0.1349  0.0056
17540W        W34388  12.256   1.929  11.287 -0.3715 -0.0003  0.1826
17541W        W34389   9.977  16.675  15.730 -0.1635  0.1283 -0.1439
17542W        W34390  15.622   6.622   0.944  0.2050  0.3680  0.1444
17543W        W34391  11.548   6.984   0.163 -0.1430  0.0844  0.0375
17544W        W34392   3.241  11.415  15.496  0.1359  0.1080 -0.0847
17545W        W34393   4.764   2.976  15.495 -0.1905  0.0055  0.0490
17546W        W34394   3.388   8.645  12.086 -0.0517  0.0649  0.0570
17547W        W34395   3.594   5.101   4.739 -0.0728  0.2704 -0.4444
17548W        W34396  13.471   4.814  14.189  0.2585  0.1853 -0.1608
17549W        W34397   9.450   2.070   5.412 -0.0796 -0.2970 -0.0332
17550W        W34398  13.385   3.923  13.941 -0.1052  0.0790 -0.1365
17551W        W34399   6.464  11.408  13.640 -0.1697  0.0255  0.2383
17552W        W34400   3.649  15.365  13.898  0.2664  0.2168  0.0469
17553W        W34401   7.143   3.330  14.681 -0.1100  0.1126 -0.0723
17554W        W34402   2.312   1.544  16.145  0.1267  0.2440 -0.0129
17555W        W34403  13.518   7.737  10.728  0.0111 -0.0376  0.0543
17556W        W34404   6.464  12.527   3.892  0.1205  0.1214  0.0580
17557W        W34405  16.381   2.768  13.466  0.1247 -0.1432 -0.0614
17558W        W34406  14.620   7.258   2.506 -0.1801 -0.0804 -0.1808
17559W        W34407   1.006  17.075   4.421  0.3326  0.0277 -0.1333
17560W        W34408   6.138  11.447   1.558  0.0941 -0.1763  0.1144
17561W        W34409   8.047  11.151   1.500  0.2227  0.2206 -0.0630
17562W        W34410   7.886  13.248   3.039  0.2651  0.0802  0.2321
17563W        W34411   0.057   8.335   3.808 -0.1254  0.1355  0.0247
17564W        W34412   6.000  10.194   2.335 -0.0002  0.1253  0.3959
17565W        W34413   5.041  13.387  14.580  0.0990 -0.3306  0.1048
17566W        W34414   4.555   4.108   1.798 -0.0399 -0.1855  0.2555
17567W        W34415   7.705  10.951  11.157 -0.0673 -0.1375  0.0099
17568W        W34416   3.830   4.805   0.513  0.0705 -0.0893  0.1947
17569W        W34417   5.275  11.155   1.749  0.3217 -0.1104  0.0759
17570W        W34418   7.831   5.145  13.619  0.2323 -0.1053 -0.1461
17571W        W34419   4.726   6.748   3.542 -0.0408 -0.0996 -0.0017
17572W        W34420   0.351  13.434  14.521  0.0159  0.0436  0.0075
17573W        W34421   9.314   3.626  16.439 -0.1896  0.0777  0.2381
17574W        W34422   9.973   6.563  10.956  0.0261  0.1685 -0.0974
17575W        W34423   2.427   0.175  14.186 -0.3223  0.2053 -0.0487
17576W        W34424   5.502   8.436  15.835  0.2120 -0.3101  0.0673
17577W        W34425  13.986  16.121   0.305  0.1358  0.0945  0.0502
17578W        W34426   8.177   5.644   5.475  0.2778 -0.0030  0.0308
17579W        W34427   8.631   3.840   2.297 -0.0197  0.1197 -0.0553
17580W        W34428  10.256   3.072   2.360 -0.1069  0.0307  0.2296
17581W        W34429   4.087   0.064   2.830  0.2581 -0.3358  0.0556
17582W        W34430   7.371   3.213   4.736 -0.1964  0.1600 -0.0351
17583W        W34431   0.648  15.127   2.593  0.0551 -0.0209 -0.1775
17584W        W34432   0.560  14.352  10.615 -0.1440  0.3873 -0.2908
17585W        W34433   7.148  15.927   5.298 -0.0886 -0.2195 -0.0624
17586W        W34434  14.657  17.650   4.768  0.3720  0.2071 -0.0565
17587W        W34435   6.227   5.757  16.636  0.0882 -0.1809  0.3026
17588W        W34436   5.442  16.107   3.777 -0.0949  0.2199  0.0896
17589W        W34437  11.119   2.986   4.582  0.0763  0.0011 -0.1313
17590W        W34438  17.358   9.900  12.484  0.3192 -0.1557  0.1100
17591W        W34439  16.353  13.595  13.792 -0.0866  0.1364  0.1338
17592W        W34440   6.769   5.561   0.784 -0.2610 -0.0867  0.3172
17593W        W34441  11.539   8.094  13.158 -0.2885 -0.0046  0.1015
17594W        W34442   1.195   2.540  12.994  0.0727  0.3008  0.4209
17595W        W34443  17.618   6.285  14.103  0.0543 -0.0720 -0.0684
17596W        W34444  11.964   5.442  15.519  0.0372 -0.0734  0.0293
17597W        W34445  16.935   4.584   2.921  0.1415 -0.2688 -0.0564
17598W        W34446   2.576   6.987   1.038 -0.0942  0.0789 -0.2392
17599W        W34447   5.476  15.911   5.029 -0.0163 -0.0704 -0.3244
17600W        W34448  12.983  15.228   4.580 -0.0787 -0.1821 -0.1589
17601W        W34449   3.094  14.433  14.811  0.0593  0.0057  0.0570
17602W        W34450  15.108  16.660   3.053  0.3988  0.2981 -0.1039
17603W        W34451   9.357   2.595  16.010  0.1517  0.1678  0.0447
17604W        W34452   7.161  10.942  11.943  0.0684  0.2673 -0.2171
17605W        W34453   3.106   3.579  15.280  0.0338  0.0642 -0.2023
17606W        W34454  12.660  11.113  14.292 -0.1577  0.0248  0.1953
17607W        W34455   3.349  16.676   4.689  0.1657 -0.1274 -0.1467
17608W        W34456   3.074  11.031   4.793  0.1785 -0.1463  0.1712
17609W        W34457  10.406  14.408   3.946  0.0161  0.2294 -0.1685
17610W        W34458   4.981   1.368  12.125  0.0753  0.1964 -0.1310
17611W        W34459  16.414   3.618   3.327 -0.0404 -0.1681  0.1706
17612W        W34460   2.952   3.625   6.598  0.1122 -0.1913  0.0035
17613W        W34461   6.687  12.500  14.630 -0.0052  0.0377 -0.0321
17614W        W34462  15.781   0.094   1.299  0.2329  0.0364 -0.1109
17615W        W34463   2.713   9.186  13.127 -0.1755 -0.2047  0.1033
17616W        W34464   4.285  17.697  16.155 -0.1065  0.1261  0.1142
17617W        W34465   2.642   7.517  16.419  0.0923  0.1153  0.0557
17618W        W34466  15.909   7.407  10.564  0.3167  0.0594  0.1077
17619W        W34467   5.473   0.969  12.849  0.1688 -0.0746  0.1511
17620W        W34468  13.686  10.600   0.586  0.1598 -0.0139  0.1465
17621W        W34469  12.554   1.146  16.006  0.0620  0.0266  0.0522
17622W        W34470  12.297   6.155  11.708 -0.3433 -0.2300  0.1512
17623W        W34471   9.372   9.342   5.035  0.0711 -0.2792 -0.0422
17624W        W34472  13.828   6.586  10.682 -0.2129 -0.1019 -0.0852
17625W        W34473   5.970  12.253  13.387 -0.0648  0.1041 -0.0495
17626W        W34474   9.127  10.605  16.354 -0.2758  0.1081 -0.1036
17627W        W34475  16.711   7.795   0.184  0.0390  0.4525  0.0060
17628W        W34476   4.020   8.407   3.098 -0.3827  0.2479 -0.0922
17629W        W34477  11.721  13.010  15.295  0.0272 -0.0124  0.0099
17630W        W34478  17.120   6.950  13.474  0.2495  0.1311  0.2219
17631W        W34479   8.445   0.346   0.174 -0.0204  0.0781 -0.2680
17632W        W34480   2.423  13.120  12.077 -0.1414  0.2174  0.2407
17633W        W34481  14.834   4.193   4.000 -0.0600  0.1842  0.0365
17634W        W34482  12.277   2.827  10.370  0.3170 -0.0243  0.0233
17635W        W34483   3.545   2.498  16.045  0.1715  0.2031  0.3023
17636W        W34484   6.141  14.228  15.638 -0.0731  0.1265  0.3199
17637W        W34485  17.327  11.155  14.349  0.1394 -0.0582  0.3353
17638W        W34486   6.708   4.122   2.180 -0.0086 -0.2488  0.2076
17639W        W34487   5.179   3.205  12.342  0.1502 -0.1361 -0.0481
17640W        W34488  13.487   8.109   4.283 -0.1450  0.2515  0.0557
17641W        W34489   0.295  14.617   4.187  0.1269  0.1239  0.4037
17642W        W34490   9.704  11.901  13.915  0.2532 -0.0915  0.0762
17643W        W34491   4.441  16.944  15.589  0.0501 -0.2563 -0.1477
17644W        W34492  12.423  11.135   1.565  0.0498 -0.0987 -0.0744
17645W        W34493  11.749  16.294  16.537 -0.1809 -0.1351 -0.1825
17646W        W34494   7.033  10.398   0.570  0.0801 -0.0117 -0.0024
17647W        W34495  14.510   6.736  11.612  0.2784  0.0380  0.1778
17648W        W34496   4.667   0.992  11.953 -0.0952  0.2135 -0.3734
17649W        W34497   6.301  15.881  12.526 -0.2123  0.2246 -0.2483
17650W        W34498  11.708   6.395  13.424  0.1533  0.0988 -0.0969
17651W        W34499  13.919   0.705   4.513 -0.1087 -0.1856 -0.0401
17652W        W34500  10.605  15.559  11.471 -0.2224 -0.5158 -0.0050
17653W        W34501  10.809   6.400   4.108  0.1194  0.1060 -0.3330
17654W        W34502   6.958   3.465  13.991  0.1976  0.1064  0.0752
17655W        W34503   6.527  15.747   2.550  0.0471  0.0742 -0.1500
17656W        W34504   6.705  10.599  15.425 -0.2025 -0.3955  0.2388
17657W        W34505  15.703   5.525   4.217  0.1082  0.0879  0.1545
17658W        W34506  11.437   8.233   4.603 -0.1546 -0.2880 -0.1057
17659W        W34507   8.851  16.670   1.445  0.1510 -0.2220  0.1752
17660W        W34508  11.510  10.825  15.804 -0.0115  0.0470 -0.2987
17661W        W34509   4.059  10.937  13.980 -0.0282 -0.1924  0.1883
17662W        W34510   9.110   7.145   3.316 -0.0551 -0.0407 -0.0175
17663W        W34511   4.059   3.118   0.384  0.0360  0.2660 -0.1435
17664W        W34512   9.572  10.331   0.716 -0.0566 -0.3203  0.2665
17665W        W34513   7.434   1.786   0.331  0.0671 -0.2673  0.1280
17666W        W34514  11.798   4.587  14.242  0.0977 -0.1118  0.0706
17667W        W34515  13.661   6.308  11.753 -0.0720 -0.1652 -0.0732
17668W        W34516   2.911  11.795  14.340  0.1932 -0.2422  0.0499
17669W        W34517   0.468  14.841   3.318  0.3193  0.0458 -0.0647
17670W        W34518   9.938  10.095  15.971  0.1935  0.0066 -0.2343
17671W        W34519  10.422   5.817  16.578  0.0783  0.3536  0.2342
17672W        W34520   3.870  15.714   0.033 -0.1543  0.2231 -0.0090
17673W        W34521  11.183   4.452   1.807 -0.0087  0.0920  0.3804
17674W        W34522   6.341  16.357  11.511  0.0205 -0.2664 -0.1680
17675W        W34523   9.631  14.054  14.166 -0.0795  0.1428  0.4100
17676W        W34524   6.778  16.522   4.234  0.0888  0.0799  0.1178
17677W        W34525  15.129  13.156  13.397  0.1384  0.0726  0.0758
17678W        W34526  15.332   5.867  16.079 -0.1030 -0.3581  0.1005
17679W        W34527   7.556   4.615   3.637  0.0985  0.2619  0.3370
17680W        W34528  16.049   7.326   1.686  0.2123  0.1188  0.1158
17681W        W34529  16.485   5.824   5.360  0.2378 -0.0920  0.1315
17682W        W34530   4.144   3.101   1.916 -0.2710  0.1275  0.3248
17683W        W34531  14.892  16.345   2.351 -0.1415 -0.1654  0.3245
17684W        W34532   5.389  10.842  15.771  0.0930 -0.3351  0.0875
17685W        W34533   9.640  14.940  13.782 -0.1639 -0.0556  0.0222
17686W        W34534   6.582   6.967  16.642 -0.1691 -0.1699 -0.0642
17687W        W34535  14.795   8.355  15.470  0.2387  0.0190 -0.0132
17688W        W34536   0.611   6.810   2.420  0.2062  0.2049  0.1340
17689W        W34537  14.620  17.699  13.082  0.0344 -0.1202 -0.0535
17690W        W34538   3.669  12.201  16.067 -0.2554  0.0246  0.3476
17691W        W34539  11.248  13.322   1.854  0.1446  0.1503 -0.0149
17692W        W34540  16.633   9.336   1.731 -0.3181  0.4055 -0.1224
17693W        W34541   4.070  11.118   0.478 -0.0274  0.2948 -0.0421
17694W        W34542   8.074   6.411   1.990 -0.1750 -0.0133  0.5256
17695W        W34543   5.295  10.319   4.649  0.0465 -0.2058  0.1629
17696W        W34544   7.555   1.442   3.644  0.2406 -0.1330 -0.1886
17697W        W34545  14.104   8.978  15.887 -0.1624 -0.1722  0.0140
17698W        W34546  10.543  16.712   4.518  0.1621 -0.0208 -0.2540
17699W        W34547   6.252  16.522   3.953 -0.0169 -0.0744  0.0808
17700W        W34548   7.036   7.259  11.600 -0.0949 -0.0785  0.2645
17701W        W34549  14.901   6.579   0.289 -0.0264  0.1933  0.1633
17702W        W34550   0.265  17.022   4.677 -0.2743 -0.3067 -0.1413
17703W        W34551  16.079   2.262  12.534  0.0677 -0.0717  0.1577
17704W        W34552  16.206   3.507  16.148  0.1004  0.2248 -0.1054
17705W        W34553  13.188  12.788  15.031 -0.0580 -0.0483 -0.1334
17706W        W34554   7.517  11.703   3.675  0.0254  0.0321  0.0690
17707W        W34555   8.529  13.230   0.273  0.0646 -0.3041 -0.0965
17708W        W34556   5.406   5.812  12.189  0.0807  0.2527  0.0087
17709W        W34557   4.960  17.457   0.041  0.2680  0.1549  0.2422
17710W        W34558  14.074   4.438   3.881 -0.2446 -0.3527 -0.0627
17711W        W34559   4.386  12.014   4.397 -0.1981 -0.1363  0.0638
17712W        W34560  14.745   9.668  14.833 -0.3465  0.1052  0.2654
17713W        W34561   0.453   5.371  13.098  0.0035 -0.1130 -0.0587
17714W        W34562   0.928   2.883   5.028  0.0891 -0.2164  0.2584
17715W        W34563  15.361   3.377   1.505 -0.2333 -0.2687  0.3358
17716W        W34564   3.408  15.826  13.236 -0.0092  0.1926 -0.0624
17717W        W34565   8.800   3.546  14.781  0.1331 -0.2052  0.0895
17718W        W34566  12.899   6.712  16.258 -0.2325  0.0007 -0.0911
17719W        W34567   7.024   9.915   0.539 -0.1623  0.2987 -0.1912
17720W        W34568  10.501  10.107   3.108 -0.1114  0.0057  0.0268
17721W        W34569   8.052  11.232  14.999 -0.1093  0.2174  0.1370
17722W        W34570   5.552  15.003   4.573 -0.1922 -0.1293  0.2474
17723W        W34571   1.382  15.672   5.266 -0.3692 -0.0597  0.0666
17724W        W34572   8.696   6.585   2.131 -0.1816  0.1857 -0.0080
17725W        W34573  11.006  10.741  13.235 -0.0196  0.0461 -0.0168
17726W        W34574  16.645   9.813   0.227 -0.0258  0.2100 -0.2043
17727W        W34575  14.338   6.396  14.034 -0.1372  0.0043 -0.2617
17728W        W34576  14.230   9.845   3.297 -0.2483  0.1937  0.0291
17729W        W34577   7.475  10.658  13.977 -0.0039  0.0836 -0.2305
17730W        W34578  13.373   7.613   0.383  0.1090  0.0155 -0.2959
17731W        W34579   0.599   8.745   5.549  0.3831 -0.0482  0.1794
17732W        W34580  11.741   2.069  11.527 -0.1592 -0.0869  0.0929
17733W        W34581   4.715   7.537   2.427  0.1118  0.2634 -0.1626
17734W        W34582   7.638  12.845  15.221 -0.1267  0.0988  0.1648
17735W        W34583   3.116  14.765  13.869 -0.0509  0.1229 -0.3411
17736W        W34584   9.443  10.649  13.103 -0.0250 -0.0212  0.0584
17737W        W34585  17.281  12.147  11.928  0.1307 -0.2447 -0.0991
17738W        W34586   6.037  13.406   1.386 -0.2066 -0.0852 -0.1634
17739W        W34587  11.163  17.302  15.753 -0.0945 -0.0221  0.0102
17740W        W34588  15.453   2.639  16.599 -0.0804 -0.0626 -0.0951
17741W        W34589   2.140   8.434  14.249 -0.0145 -0.0756  0.0534
17742W        W34590  10.940   6.332   4.533 -0.1649  0.1187 -0.2081
17743W        W34591  17.501   1.053   5.409 -0.0165 -0.2053 -0.0019
17744W        W34592   1.752   0.957  14.829  0.1320 -0.3258  0.0984
17745W        W34593  14.769   4.151  15.621  0.4532  0.2417 -0.2488
17746W        W34594   3.963  17.680   0.490  0.4412 -0.0989 -0.2304
17747W        W34595   2.634   9.904  16.618  0.1883  0.2486 -0.4324
17748W        W34596  16.085  11.606   3.171 -0.1978  0.1835 -0.1471
17749W        W34597  16.171  13.090  15.019  0.2814 -0.1490  0.1607
17750W        W34598   0.806   8.270  16.001  0.1384  0.0418 -0.0668
17751W        W34599  12.321  11.574  11.272  0.1362  0.1066 -0.0421
17752W        W34600   4.854   3.940   1.079 -0.3007 -0.2476 -0.1467
17753W        W34601  12.572   6.418   3.545 -0.2224 -0.0534 -0.0311
17754W        W34602  16.138  13.605   3.994  0.0124  0.0239  0.0754
17755W        W34603   7.334   0.026   2.654  0.1271  0.1459 -0.3146
17756W        W34604   9.241  13.574   1.895  0.2188 -0.0636  0.1571
17757W        W34605  16.909   3.094   0.010  0.0369 -0.0113 -0.0212
17758W        W34606   6.522  10.372   0.297  0.0253 -0.1049  0.1769
17759W        W34607   1.947   4.320   0.471  0.1185 -0.1211  0.0928
17760W        W34608   7.378   8.400   1.961  0.0980  0.1711  0.2934
17761W        W34609  16.260  17.317  15.930  0.0459  0.0666  0.4012
17762W        W34610   5.718  11.147  14.281  0.2091  0.1650  0.1422
17763W        W34611   9.567   3.383   1.739 -0.2279  0.0134  0.0568
17764W        W34612  17.170  15.084   4.256  0.2687  0.2764 -0.0833
17765W        W34613  16.779   2.314   2.976  0.2248 -0.1716  0.3093
17766W        W34614  17.111  16.650   4.968 -0.0454  0.0125 -0.4192
17767W        W34615  13.646  11.509   4.571  0.2982  0.1111 -0.0560
17768W        W34616  17.473  14.039   5.716  0.1565 -0.1867  0.1640
17769W        W34617  11.271  16.017  11.838  0.0185 -0.1806  0.0074
17770W        W34618  12.798   9.769   1.467  0.2260 -0.1099  0.0676
17771W        W34619   1.329  10.156   5.669 -0.1097  0.1879 -0.1027
17772W        W34620   7.671   6.366  12.417 -0.1503  0.2532  0.3047
17773W        W34621   2.752   2.343  14.655  0.2407  0.0322  0.0816
17774W        W34622  16.884   7.242  11.388 -0.0347  0.2964  0.0068
17775W        W34623  16.740  15.866  13.425  0.2187 -0.0804 -0.1252
17776W        W34624   9.832   7.752   3.925 -0.0735 -0.0803 -0.0714
17777W        W34625   8.788  15.720   5.701  0.2602  0.1303 -0.1220
17778W        W34626   8.355   1.690   0.049 -0.2000  0.0770  0.0464
17779W        W34627  14.942   3.929   2.832  0.2511 -0.1670 -0.1093
17780W        W34628   8.711  15.504   0.530 -0.1917 -0.2394  0.0548
17781W        W34629   0.308   3.002   2.561  0.1639 -0.2196 -0.0920
17782W        W34630   5.385  11.843  15.478 -0.0673  0.3037 -0.1257
17783W        W34631   2.003  12.033  15.603  0.1516  0.1274  0.1126
17784W        W34632   5.639   3.208   2.431 -0.3035 -0.1986  0.2939
17785W        W34633  15.515  14.468  15.294  0.3725  0.0039  0.1949
17786W        W34634  13.680  10.442   0.014 -0.0958 -0.1726 -0.3429
17787W        W34635   0.501   3.560   4.613  0.0821  0.0549 -0.1352
17788W        W34636  14.533   9.591  16.201 -0.3211 -0.1336  0.0810
17789W        W34637  14.641  10.488  16.583  0.1515 -0.2402  0.0536
17790W        W34638   3.857  15.147  14.283 -0.1341 -0.4134  0.0751
17791W        W34639  17.154  10.856   4.814 -0.0501  0.2471 -0.0022
17792W        W34640   9.101  15.468   0.221  0.0290 -0.2714 -0.3021
17793W        W34641   8.488   2.316   3.509 -0.0127 -0.1695  0.3489
17794W        W34642   9.239   8.472   1.684 -0.1881 -0.2013 -0.0279
17795W        W34643   9.504   6.396  12.245  0.0133  0.0020  0.1196
17796W        W34644   1.559  11.976  14.061  0.1333  0.1144  0.1520
17797W        W34645   5.978   0.556   2.130 -0.1152 -0.2651  0.2168
17798W        W34646   0.969   3.730   1.970 -0.0441 -0.0780  0.3439
17799W        W34647   8.239  11.319  16.503  0.0329  0.1383 -0.0452
17800W        W34648  17.034   2.016  15.432  0.1675  0.0187 -0.0744
17801W        W34649   8.205   0.059  12.112 -0.2313 -0.0583  0.0405
17802W        W34650  10.025   2.684   5.151 -0.0451  0.2512  0.2490
17803W        W34651  12.320   8.262  13.068 -0.2030  0.0101 -0.0256
17804W        W34652  11.023   1.952  16.064 -0.2877  0.0885  0.1830
17805W        W34653   9.712   0.857  14.693  0.1752 -0.1887  0.2403
17806W        W34654   3.939  14.639   3.060  0.0349  0.0914 -0.0978
17807W        W34655  10.061   8.019   5.305 -0.1359  0.0978  0.0507
17808W        W34656   6.880   4.225  13.917 -0.0249  0.4405 -0.1045
17809W        W34657  13.194   7.973   4.768 -0.2561 -0.2343 -0.0152
17810W        W34658   6.989  16.423   2.330 -0.2067 -0.3342  0.0757
17811W        W34659   8.208   2.428   3.913 -0.0137  0.1631  0.3033
17812W        W34660   9.543   5.039  15.184 -0.2638 -0.2776  0.2672
17813W        W34661   5.806  11.068  15.161 -0.1461 -0.0390  0.3542
17814W        W34662  13.994  13.584  15.814 -0.3407  0.1309 -0.0319
17815W        W34663  14.027   1.125   3.172  0.0100  0.0888  0.0366
17816W        W34664   0.186   7.170   4.867  0.0021 -0.0499 -0.1017
17817W        W34665   6.187   7.409  12.295  0.1894  0.0331  0.0218
17818W        W34666  14.493   2.697   0.145  0.0734  0.0775 -0.1237
17819W        W34667   0.868   0.099   3.729  0.2951  0.0994 -0.0346
17820W        W34668   7.599  14.802   0.967 -0.2140  0.1739  0.0381
17821W        W34669   3.406  10.377  12.025 -0.1457 -0.0627 -0.0705
17822W        W34670   2.392   6.654   5.064  0.2015 -0.1869  0.1632
17823W        W34671   3.958   1.095   1.961 -0.0062 -0.0983  0.1390
17824W        W34672   6.775  15.441   1.282  0.0021 -0.0539 -0.1811
17825W        W34673  16.646  16.702  12.355  0.0133  0.1459 -0.2435
17826W        W34674   5.757   1.216   3.898  0.3037  0.0453 -0.1353
17827W        W34675   3.192  14.051   5.296  0.1144 -0.1846 -0.2589
17828W        W34676  13.953   7.109  16.210 -0.0951  0.2248  0.0418
17829W        W34677   8.864   3.124  11.917 -0.2001  0.2618  0.1781
17830W        W34678   7.672  16.603  16.105 -0.3629 -0.0914 -0.1941
17831W        W34679   0.651  16.260  15.849  0.0536  0.2110  0.0056
17832W        W34680   9.423   7.965   1.748 -0.1404  0.2935  0.0634
17833W        W34681  11.867   8.776   3.035 -0.0203 -0.0959 -0.3593
17834W        W34682  10.045  13.881   2.095  0.1168 -0.0822  0.0728
17835W        W34683  11.378   8.699   6.044 -0.0814  0.0709 -0.1022
17836W        W34684   6.796   5.393   5.022  0.3503 -0.2192 -0.1084
17837W        W34685  16.876  13.395  12.957 -0.0933  0.0450 -0.0797
17838W        W34686  12.046  15.407   3.392  0.3256 -0.0522  0.1263
17839W        W34687   5.205  15.410   5.578  0.1589 -0.3757  0.1367
17840W        W34688   9.493   1.439  12.312  0.0740 -0.0918  0.2256
17841W        W34689  14.611   0.240   3.732 -0.2091  0.0485 -0.0989
17842W        W34690  14.285  12.036   4.828  0.0353  0.1778 -0.0277
17843W        W34691   2.724   7.347   3.661  0.1676  0.0404 -0.0464
17844W        W34692   0.895  10.002   3.813  0.1009 -0.1329 -0.0797
17845W        W34693   7.993  12.774   4.736 -0.1197 -0.0017 -0.0886
17846W        W34694   4.107   0.006  13.536  0.0869 -0.0251  0.2917
17847W        W34695   3.473  13.100   2.427 -0.1137  0.0083  0.2698
17848W        W34696   0.378  12.109  11.390  0.1883  0.3861  0.2112
17849W        W34697  12.648   8.476   3.375 -0.1448  0.0786 -0.1061
17850W        W34698  17.027  13.559  12.052  0.3363 -0.0865  0.1792
17851W        W34699  12.077   5.351  16.046 -0.0979 -0.1836 -0.2376
17852W        W34700  15.201  14.314   1.000 -0.0825  0.1222 -0.0485
17853W        W34701  17.072  14.232  16.203 -0.0856  0.1539 -0.0431
17854W        W34702  10.982   8.915  12.985  0.0647 -0.0007  0.3555
17855W        W34703  15.289   7.148  11.565  0.3365 -0.5244  0.2276
17856W        W34704  12.113  15.851   3.707  0.3543  0.2688 -0.3708
17857W        W34705  13.822   7.180   3.351  0.1682 -0.0679 -0.0484
17858W        W34706  15.633   5.147   5.007 -0.2614 -0.0611  0.0947
17859W        W34707  17.642   1.052  14.822 -0.0338 -0.2376  0.0000
17860W        W34708   5.584  12.650  15.609  0.0879 -0.0524 -0.1306
17861W        W34709  10.626  12.592  13.804  0.0932 -0.1793 -0.2010
17862W        W34710   4.141  12.126   0.661 -0.1031  0.2999  0.1968
17863W        W34711  15.063   3.067  13.190 -0.3044 -0.2821 -0.1642
17864W        W34712   6.246   1.295   0.179 -0.0172  0.0316  0.2896
17865W        W34713  10.038   7.810  11.465 -0.0482  0.4144  0.0088
17866W        W34714   2.117   8.946   4.329 -0.0481  0.0984  0.2203
17867W        W34715  12.318  12.143   4.859 -0.0773  0.0818  0.0827
17868W        W34716  14.982   6.381   5.243 -0.0707 -0.0946 -0.0787
17869W        W34717   0.950   4.588   3.757 -0.0706  0.0916 -0.3020
17870W        W34718   0.416   7.809  16.002 -0.0026 -0.2586 -0.1461
17871W        W34719  14.678   3.707  11.636 -0.1033  0.0746  0.1168
17872W        W34720   4.163  14.780   4.157  0.2520  0.0395 -0.0836
17873W        W34721   5.583  10.618  16.193  0.2867 -0.1146 -0.1583
17874W        W34722   9.636   8.813  14.795  0.0462  0.1900  0.1288
17875W        W34723  11.829   8.161  16.449 -0.1572 -0.0970 -0.2074
17876W        W34724   9.998   4.557   4.935  0.3278  0.2125  0.3346
17877W        W34725  10.560   8.805  12.651  0.0310  0.3137  0.2378
17878W        W34726   2.722  10.429   0.049 -0.1390  0.3041  0.0581
17879W        W34727   3.418   7.880  15.068 -0.1473 -0.1202  0.0114
17880W        W34728  10.418   2.903   3.618 -0.0095 -0.0824  0.0187
17881W        W34729  15.473   0.039   4.210  0.3923  0.1106 -0.2943
17882W        W34730   3.388  15.230   4.145 -0.3045 -0.1349 -0.1784
17883W        W34731   6.199  15.120  12.203  0.0284 -0.2687 -0.2585
17884W        W34732   8.947  12.915  14.337  0.0679 -0.1433  0.2756
17885W        W34733   4.577   3.944   0.225  0.0601 -0.0139 -0.0151
17886W        W34734  11.462   8.289  12.191  0.1637 -0.0681 -0.1467
17887W        W34735  14.707   1.942  15.923 -0.2831  0.1377  0.0628
17888W        W34736  14.830   2.775   2.473 -0.0745  0.0161  0.1120
17889W        W34737  13.800   4.489   2.087  0.3105  0.1706  0.0986
17890W        W34738  12.768  12.613  11.988 -0.0990 -0.3180  0.0802
17891W        W34739  13.939  16.516  16.628 -0.1788 -0.0052 -0.4296
17892W        W34740  17.339  10.561   5.862  0.1309  0.0529  0.0324
17893W        W34741   1.750   3.737  15.181  0.0644  0.0764 -0.1078
17894W        W34742   4.231  15.286   5.253 -0.1728  0.1953 -0.2493
17895W        W34743  15.151   0.220  16.052  0.3787  0.1584 -0.1894
17896W        W34744   4.784  17.470  11.951  0.1578 -0.4359  0.0933
17897W        W34745  13.595   4.520   4.584 -0.2420  0.0616 -0.0997
17898W        W34746  11.806   0.584  12.544 -0.2160 -0.1251 -0.4201
17899W        W34747  12.161   2.000  13.119 -0.0818 -0.0153 -0.0799
17900W        W34748  14.472  15.947   4.534  0.1709  0.0599 -0.1001
17901W        W34749   0.528   9.903   0.274 -0.0892  0.1218 -0.0695
17902W        W34750   1.040   9.562  11.904  0.3320  0.1158  0.0806
17903W        W34751  13.962   7.055   4.877 -0.2134 -0.0792  0.2639
17904W        W34752   5.648  15.330  14.502 -0.1970  0.0604  0.2685
17905W        W34753  15.107   2.511  14.439 -0.1502 -0.2375 -0.2341
17906W        W34754   7.975  15.832  10.884  0.0173  0.0455  0.1761
17907W        W34755  16.823  14.138  15.268 -0.1141  0.0430  0.0404
17908W        W34756   2.194  14.706  11.357  0.2491 -0.0072  0.2175
17909W        W34757   2.876   6.326   2.582 -0.0343 -0.0195  0.1677
17910W        W34758   9.980   8.998   2.718  0.0337  0.0053  0.0910
17911W        W34759   5.114  11.622   4.813 -0.1610 -0.0757 -0.0242
17912W        W34760  15.441   3.816  12.844 -0.0149 -0.0494 -0.0955
17913W        W34761  15.729  17.654   5.156 -0.0549 -0.1145  0.3340
17914W        W34762   3.724  12.526   0.776  0.0136  0.1611  0.1444
17915W        W34763  13.883   2.226   4.118  0.0601 -0.1221 -0.1075
17916W        W34764   8.461   9.621  12.932 -0.0158 -0.1311 -0.0065
17917W        W34765   1.545   6.098  12.597 -0.0315  0.0481  0.0844
17918W        W34766   3.064   9.457  16.617  0.2983 -0.0426 -0.0811
17919W        W34767   9.481   8.853   4.519  0.2574 -0.3021 -0.1325
17920W        W34768   8.610  15.769  13.160 -0.1255  0.1217  0.1819
17921W        W34769  17.564  15.414  13.350 -0.3373 -0.1665 -0.0299
17922W        W34770  16.500  14.389   1.743 -0.2748 -0.0609  0.0951
17923W        W34771   2.108   2.063  14.873  0.0758 -0.0634 -0.1765
17924W        W34772   6.152  10.223  13.250  0.2019  0.0348  0.0829
17925W        W34773  12.524   3.060   1.553  0.1473 -0.1419  0.3319
17926W        W34774  10.086  17.582   5.129 -0.3487  0.0907  0.3209
17927W        W34775   8.803  16.994  13.336 -0.0051 -0.1749 -0.0548
17928W        W34776   6.099  17.388  16.101  0.0426  0.0492  0.5322
17929W        W34777   5.463   6.128   3.303 -0.1721  0.0172 -0.2828
17930W        W34778   9.224  11.264  14.150 -0.1955 -0.0700  0.2865
17931W        W34779  11.297  15.991   4.024 -0.0340  0.1696 -0.3481
17932W        W34780   1.372  17.210   5.131 -0.0131  0.0966  0.0187
17933W        W34781   3.271   6.657  12.132  0.1278  0.1377  0.1092
17934W        W34782   7.236  15.155  11.892  0.1570 -0.4235  0.0962
17935W        W34783   3.850  13.422   2.258  0.1425  0.0134 -0.2177
17936W        W34784   9.682   1.130   4.569 -0.2195 -0.0764  0.0888
17937W        W34785  14.625   4.908   2.390  0.0685  0.1161 -0.1489
17938W        W34786   4.043   6.103  12.549 -0.1182 -0.2133 -0.2008
17939W        W34787  12.269  14.513  11.108 -0.0593  0.6513 -0.3446
17940W        W34788   2.026   3.956  13.919 -0.0423  0.2394  0.1209
17941W        W34789  13.862   1.326  13.588  0.1878 -0.0553 -0.0531
17942W        W34790   0.330   1.933   3.320 -0.1541  0.1610  0.1120
17943W        W34791   0.279   2.922   0.423 -0.2039 -0.0659 -0.1817
17944W        W34792   0.681  11.069   3.427 -0.2870 -0.1890 -0.1977
17945W        W34793   8.384   3.866   1.420  0.1709  0.0886 -0.4600
17946W        W34794  16.184  15.703  11.898 -0.2987  0.0297 -0.0579
17947W        W34795   9.161  12.615   1.888 -0.3954  0.1652 -0.0001
17948W        W34796   7.577   1.552   2.623 -0.1559 -0.0736 -0.1102
17949W        W34797  15.865   0.034  16.671  0.1462 -0.1227 -0.0757
17950W        W34798  12.042   4.661  14.713  0.0988 -0.0725 -0.2462
17951W        W34799  16.271  12.583  14.973 -0.4632  0.1676 -0.1357
17952W        W34800   7.026  17.157  16.230  0.0993  0.0061 -0.0323
17953W        W34801   5.215   4.045  15.513 -0.1700 -0.0334  0.1747
17954W        W34802   7.434   7.864  11.049 -0.2315 -0.2283  0.0866
17955W        W34803  10.042   4.788   2.067 -0.0113 -0.1333  0.3143
17956W        W34804   4.484   9.340   3.819  0.0496 -0.0335  0.2746
17957W        W34805   6.322  15.670  13.014  0.0329 -0.2822 -0.0469
17958W        W34806   4.325  11.309  13.808  0.1612 -0.0783 -0.0165
17959W        W34807  13.879   0.625  13.992  0.0488  0.4817 -0.3748
17960W        W34808  16.236   8.468   2.737 -0.1461 -0.1229  0.0817
17961W        W34809   9.734  15.801  16.205  0.0018  0.0579 -0.3072
17962W        W34810  14.793  15.464   4.864  0.0227  0.0960  0.1879
17963W        W34811  16.795  13.742   0.059  0.1472 -0.2052  0.0678
17964W        W34812   7.826  16.211  15.321 -0.0864  0.4931 -0.0018
17965W        W34813  11.985  17.559  16.523 -0.0610  0.2504  0.0163
17966W        W34814   8.960  12.181  15.039  0.1402  0.2016 -0.0764
17967W        W34815  16.289  10.400   0.085  0.0700 -0.3172  0.0655
17968W        W34816  14.444   3.475   6.190  0.0696 -0.0770 -0.0195
17969W        W34817  16.608   8.089  14.939  0.0631  0.3805 -0.0427
17970W        W34818  15.866   4.364   4.351  0.0679 -0.2027  0.0808
17971W        W34819  16.158   3.224  16.534  0.0363 -0.0182  0.3736
17972W        W34820   0.808   5.225   4.461 -0.2245  0.0591  0.1866
17973W        W34821  16.036   8.064  14.082  0.0492  0.2111  0.1341
17974W        W34822  10.115   6.166   0.491 -0.1654 -0.1744 -0.2557
17975W        W34823   3.806   0.974   3.166 -0.1315 -0.2354 -0.0983
17976W        W34824  15.283   4.036  15.660  0.0460  0.2753 -0.1092
17977W        W34825   7.069   6.750   0.558 -0.1223 -0.0344 -0.0660
17978W        W34826   4.586  12.915   4.618  0.0155 -0.0876 -0.0008
17979W        W34827   7.547  12.069  14.304 -0.1524 -0.1950 -0.1799
17980W        W34828   9.281   8.303  16.419 -0.2794 -0.3161 -0.1276
17981W        W34829   4.616  13.673   1.746  0.0356  0.0146  0.2465
17982W        W34830  11.802   1.746  14.801 -0.0078 -0.0428  0.0442
17983W        W34831   6.915  10.619  11.499 -0.0627  0.2746  0.2837
17984W        W34832   7.496  13.665  14.138  0.0740 -0.1451 -0.2017
17985W        W34833  17.210  10.558  14.439 -0.3425 -0.1248 -0.1528
17986W        W34834  10.976  13.597   3.641 -0.0080  0.0011 -0.0032
17987W        W34835  11.205   0.184  12.533  0.0818 -0.0872  0.1501
17988W        W34836  13.269   0.183   1.879 -0.0971 -0.0384  0.2301
17989W        W34837  17.092  15.408  13.516 -0.0372  0.2664 -0.1147
17990W        W34838   4.002  16.507  15.270  0.1017  0.2279  0.1176
17991W        W34839   3.091   4.148  15.257  0.0730  0.0949  0.1273
17992W        W34840  16.565  13.733   4.695  0.1591 -0.2591  0.1111
17993W        W34841   0.327   1.325  15.271  0.3833 -0.0865  0.0534
17994W        W34842   6.703  13.967  11.636 -0.0617 -0.1000  0.1494
17995W        W34843   8.870   8.132  11.689 -0.2055 -0.2263  0.3865
17996W        W34844  15.993   1.847  12.174  0.1549  0.1537 -0.3938
17997W        W34845   9.861   5.472   5.897  0.3531  0.1909  0.2231
17998W        W34846   5.636   5.672   1.859 -0.0067  0.2802  0.3321
17999W        W34847  15.593   3.541  12.393 -0.0254  0.1407 -0.3418
18000W        W34848   6.417   3.358   1.331  0.1916 -0.0345 -0.2454
18001W        W34849  16.594  10.932   2.061  0.0225 -0.0018 -0.1530
18002W        W34850  12.891  12.090  14.230  0.0285 -0.1307  0.1037
18003W        W34851   8.787  16.485   4.770 -0.0295  0.0884 -0.1902
18004W        W34852   1.700  14.032   2.173  0.4756 -0.0741 -0.1564
18005W        W34853   4.500   3.708   4.902  0.0306 -0.0613 -0.0937
18006W        W34854   9.619   1.343   3.073  0.0024  0.1167  0.1144
18007W        W34855  15.940   1.675  13.933 -0.2164 -0.2255 -0.4526
18008W        W34856   7.495   2.990   0.819 -0.0136 -0.0010 -0.2834
18009W        W34857   2.288  14.774  16.582  0.0864  0.1036 -0.1683
18010W        W34858   1.061  13.539   3.204  0.0778  0.0427 -0.2482
18011W        W34859   1.128   5.104   1.655 -0.1923 -0.0338  0.2550
18012W        W34860   1.614   4.265  14.837  0.1246  0.2041  0.1425
18013W        W34861  16.797   1.095   2.124 -0.0338 -0.0297  0.0397
18014W        W34862   3.779   1.998   5.225 -0.2063 -0.2224  0.1869
18015W        W34863   8.631  12.686  14.001  0.0839  0.1251 -0.4116
18016W        W34864   1.102  11.993  11.916  0.2241  0.0737 -0.0471
18017W        W34865  16.320  14.057  15.386 -0.2107  0.0743  0.0475
18018W        W34866   1.960  14.262  14.796 -0.0774 -0.1335  0.1511
18019W        W34867   7.379  17.131  15.418 -0.0060 -0.0426 -0.1524
18020W        W34868  14.698  12.962   4.919  0.2198 -0.3831  0.0094
18021W        W34869  17.410   7.953   6.163  0.1780 -0.0634  0.3370
18022W        W34870   2.267  14.837  10.835 -0.0774  0.1624 -0.1129
18023W        W34871  12.935  14.061  13.244  0.0011  0.0141 -0.2384
18024W        W34872   3.783   9.522  16.264  0.3116  0.3899  0.0341
18025W        W34873   5.823  12.420  12.598  0.0339 -0.0584 -0.4245
18026W        W34874   1.433   8.114   2.688 -0.1700 -0.0059 -0.0102
18027W        W34875   3.815   7.123   3.448  0.0682  0.1546  0.0543
18028W        W34876  12.661   2.668   2.937 -0.3552 -0.1789 -0.1828
18029W        W34877   0.152   8.891  11.960 -0.1258 -0.1098  0.1481
18030W        W34878   6.807   2.081  14.562  0.4640 -0.0461  0.1230
18031W        W34879  14.729   8.956   0.868  0.0910 -0.0364 -0.1480
18032W        W34880  11.394  11.968   2.966  0.0421 -0.1719 -0.1238
18033W        W34881   6.287   3.710  15.066 -0.4022 -0.0009 -0.0913
18034W        W34882  11.055  14.174   0.751  0.0461  0.1950 -0.4551
18035W        W34883   2.955   9.090   1.755 -0.0902  0.1548 -0.0534
18036W        W34884   0.032   3.670   3.777  0.0705 -0.1331 -0.2338
18037W        W34885  16.652   6.587   4.590 -0.1794  0.1680 -0.3652
18038W        W34886   5.214   0.886  15.344 -0.2609  0.2049  0.0004
18039W        W34887   9.367   2.390  11.376  0.1206  0.3328  0.0890
18040W        W34888   0.057   6.135  12.829 -0.0208 -0.2806  0.1635
18041W        W34889  14.097   5.742   5.012  0.3142 -0.0058 -0.0172
18042W        W34890  12.499  14.466   5.108  0.1764  0.0883  0.0582
18043W        W34891   1.022  15.407   1.226  0.2864 -0.1225 -0.2635
18044W        W34892  17.391  16.502   0.708  0.0874  0.1272  0.0938
18045W        W34893   8.462   7.882   3.216 -0.0224 -0.0230  0.1946
18046W        W34894  14.872   6.909  16.625  0.1835  0.1506 -0.2480
18047W        W34895  17.611  10.348   4.614 -0.2075 -0.0838 -0.0118
18048W        W34896   3.993   4.429   4.548 -0.0640  0.0651 -0.4481
18049W        W34897   2.321   1.911  16.470  0.0278 -0.1657 -0.0232
18050W        W34898  11.769  13.076   2.942  0.2003  0.0540  0.0290
18051W        W34899  16.956   0.393   3.430  0.1490  0.1244  0.0160
18052W        W34900  14.038  15.416   2.716  0.1178 -0.1930 -0.0251
18053W        W34901  10.759   0.931   1.740 -0.0096 -0.1774 -0.1554
18054W        W34902  17.063  12.392   2.771 -0.2703  0.0032 -0.0547
18055W        W34903  14.341   3.676   2.794 -0.1349  0.0466  0.1793
18056W        W34904   3.077  10.549  12.908 -0.0280  0.0448 -0.0296
18057W        W34905  16.524   9.938  12.551  0.1604  0.2710 -0.2058
18058W        W34906  16.036   5.970  13.061  0.1508 -0.1602 -0.1210
18059W        W34907   3.899  12.991   5.670 -0.2258  0.1959 -0.0839
18060W        W34908   8.423  10.134   5.092  0.0465 -0.2144  0.1955
18061W        W34909   3.556   1.920  13.709  0.2116 -0.3579 -0.4217
18062W        W34910  14.119  11.128  13.529 -0.0979  0.5704 -0.2871
18063W        W34911   7.946   1.724   3.787 -0.0129  0.2195 -0.1986
18064W        W34912   2.641  13.858   0.687 -0.1451 -0.1670  0.0205
18065W        W34913   3.603  11.709  13.921 -0.2062  0.1600 -0.2789
18066W        W34914   4.174   6.271   2.142 -0.1403 -0.0648 -0.0704
18067W        W34915   0.073  14.294   4.555  0.0056 -0.1323  0.1032
18068W        W34916  17.585  15.664  16.137 -0.0008  0.2786 -0.0953
18069W        W34917   9.579   9.031   3.059 -0.1530  0.0077  0.1022
18070W        W34918   3.257   5.960   2.828  0.0144  0.1080  0.1400
18071W        W34919  16.581   7.678   3.426 -0.0758 -0.0382  0.1800
18072W        W34920   2.547   6.743  14.044 -0.0327  0.2162  0.1152
18073W        W34921  10.771   5.547   3.837  0.2933  0.0768  0.0816
18074W        W34922   4.961  13.820  14.355  0.1542 -0.1903  0.4710
18075W        W34923   8.348   6.378  14.904 -0.0101 -0.2732 -0.0308
18076W        W34924  15.926  14.570  11.767  0.0734 -0.1343  0.2908
18077W        W34925   0.989   3.848   2.893  0.2048 -0.1082  0.2068
18078W        W34926  15.421   6.205   5.409 -0.0302 -0.1057  0.0993
18079W        W34927   6.662  13.896   3.426  0.0154  0.0094 -0.0662
18080W        W34928  11.754   2.272   1.698  0.2783 -0.0177  0.0274
18081W        W34929  15.395   2.590   2.800 -0.2617 -0.1249  0.1158
18082W        W34930   9.635   8.473   3.300 -0.1100 -0.1669 -0.2132
18083W        W34931  15.159   7.766   1.905 -0.0765  0.3556  0.0267
18084W        W34932  11.540  11.760   3.441 -0.0323  0.0264 -0.0026
18085W        W34933   0.525   7.298   2.302 -0.0870  0.2067  0.0561
18086W        W34934  13.211   6.193  13.051 -0.2174  0.2449  0.3420
18087W        W34935  13.658   9.797   3.247  0.0102 -0.0216 -0.1978
18088W        W34936   4.521   1.164  14.394  0.0119 -0.0814  0.0315
18089W        W34937   7.950  17.342  12.347  0.0425  0.1924 -0.0738
18090W        W34938  13.250  11.353   4.234 -0.1997  0.1866 -0.0910
18091W        W34939  17.287  17.128  12.950  0.2367  0.1758 -0.1156
18092W        W34940  10.932   2.361  14.141 -0.0891 -0.3542 -0.0004
18093W        W34941  10.638  14.267   3.081  0.1082 -0.0098  0.0725
18094W        W34942  15.328   1.122  12.090  0.2715  0.1944 -0.0035
18095W        W34943   1.471  13.320  16.625  0.2857  0.0322  0.2960
18096W        W34944   6.062   5.565   4.414  0.0048 -0.1551  0.3408
18097W        W34945   7.662   1.027  15.109  0.2477 -0.0765  0.2116
18098W        W34946   6.884  17.227  13.200 -0.0208  0.3060  0.0115
18099W        W34947   2.760   6.031   1.537 -0.1344 -0.2167 -0.0964
18100W        W34948  10.128   9.650  12.699 -0.0324  0.1298 -0.0543
18101W        W34949   1.125   3.456   5.314 -0.1693 -0.0375  0.0313
18102W        W34950   8.191   6.266   1.069  0.1935 -0.0133  0.5415
18103W        W34951   2.022  17.448   2.713  0.0251 -0.3763  0.0655
18104W        W34952  16.511   6.881   0.263 -0.3355  0.1130  0.2440
18105W        W34953   0.515  12.153   3.306  0.0006  0.2558  0.0639
18106W        W34954   5.076  15.137  13.152 -0.1226 -0.2756 -0.3730
18107W        W34955   0.357  11.486  15.044 -0.0050  0.0360 -0.2905
18108W        W34956   0.714  16.423   5.211 -0.1733 -0.0142  0.0143
18109W        W34957   4.542   6.451  14.620  0.0568  0.0313  0.4013
18110W        W34958   4.529  10.018   0.643 -0.0427  0.1524 -0.0514
18111W        W34959  13.554  15.790   0.409  0.0978  0.0684  0.1120
18112W        W34960  16.355   3.892  12.648  0.2777 -0.0298 -0.1169
18113W        W34961   1.976  16.757   4.528 -0.0219 -0.0322 -0.1447
18114W        W34962  17.409  15.030  11.471 -0.0578  0.0475 -0.0542
18115W        W34963   4.860   3.434  11.720 -0.2172  0.0908 -0.1647
18116W        W34964  12.483  10.227   3.839  0.0453  0.1558  0.0828
18117W        W34965  12.734   4.551   1.962 -0.2415 -0.1533  0.1670
18118W        W34966   3.913   8.844  14.023  0.2422  0.0266  0.0646
18119W        W34967   5.212   0.014  16.292 -0.0811 -0.2861  0.0235
18120W        W34968   1.487  12.217  15.643 -0.1829 -0.0288  0.3467
18121W        W34969   6.031   8.439   2.057  0.2141  0.1250  0.2737
18122W        W34970  16.224  11.326  15.364 -0.1256  0.3946 -0.0618
18123W        W34971  16.246  17.438  15.080  0.2027  0.2161 -0.1592
18124W        W34972  14.920   1.115   3.267 -0.0704  0.0035 -0.0283
18125W        W34973  16.429   4.411   1.812  0.0958  0.1952  0.0131
18126W        W34974   7.516  17.077  14.938 -0.1878  0.0215  0.2068
18127W        W34975  15.159   9.078   2.179 -0.2639 -0.2226  0.1355
18128W        W34976  12.451  16.630  14.523 -0.0130 -0.1844 -0.2011
18129W        W34977  14.956   9.828  16.060  0.0249 -0.1546 -0.2262
18130W        W34978   3.713   7.282  16.111  0.0360  0.1316 -0.1622
18131W        W34979  12.350   6.436  14.201  0.0568  0.1743  0.1992
18132W        W34980   4.207   9.401   5.221  0.0772 -0.0775 -0.0252
18133W        W34981  13.772  12.973  15.091  0.2935 -0.0367 -0.0471
18134W        W34982  10.349   6.257  11.950 -0.1994 -0.0550  0.4515
18135W        W34983   1.814  13.661  16.049  0.1630  0.3412 -0.2045
18136W        W34984   4.457   4.190  15.965 -0.0124 -0.3385 -0.1848
18137W        W34985  12.938  14.912  12.073 -0.2695  0.1608 -0.2775
18138W        W34986  12.773   1.701   4.681 -0.0172  0.0169 -0.0991
18139W        W34987   8.038   3.290  14.927 -0.1678 -0.0713  0.0304
18140W        W34988  10.335   7.446  16.583  0.1293 -0.0016  0.1488
18141W        W34989   4.600  10.179  12.106 -0.1268  0.0513 -0.1021
18142W        W34990  11.674   5.691  16.372  0.1024  0.0716  0.0023
18143W        W34991   5.380  16.140   1.857 -0.1945 -0.1178  0.0146
18144W        W34992  10.806   6.606  12.473  0.2418 -0.2833  0.0548
18145W        W34993  10.539   1.537  12.464  0.0032  0.0389  0.2600
18146W        W34994   5.508   0.851   4.766  0.0787  0.1953  0.3075
18147W        W34995   3.011   2.086  14.360  0.0969  0.2375 -0.0334
18148W        W34996   7.718   9.745   5.363 -0.1619  0.1258  0.1230
18149W        W34997  16.343   7.541   4.915 -0.0915 -0.2502 -0.1843
18150W        W34998   4.415  10.997  12.984 -0.0511 -0.1498 -0.2052
18151W        W34999   0.907   9.239  15.707 -0.1057 -0.2128 -0.2414
18152W        W35000  16.611  17.597   4.902  0.0951  0.3594  0.0262
18153W        W35001   1.145  12.173  16.049  0.2742 -0.1795 -0.3465
18154W        W35002  16.670  12.878  16.054 -0.1648 -0.0932 -0.0955
18155W        W35003  12.338  11.577  12.893 -0.2167 -0.3212 -0.3334
18156W        W35004  13.321   5.564   0.618  0.0742  0.0313 -0.2385
18157W        W35005   8.177   1.133  13.399 -0.2649 -0.1216 -0.0708
18158W        W35006  13.178   3.831  11.424  0.0201  0.1401  0.3563
18159W        W35007   0.500  11.273   3.023 -0.0834 -0.1372  0.0810
18160W        W35008  10.584   3.167  14.669 -0.1567  0.0351 -0.1221
18161W        W35009  10.533   2.905   5.082  0.1495 -0.2329  0.3924
18162W        W35010  12.354  15.365   4.570  0.3835  0.2216 -0.2079
18163W        W35011   4.804   2.758   0.062  0.0720 -0.1676  0.2237
18164W        W35012   9.576  10.885  13.943  0.0457 -0.3482  0.2185
18165W        W35013   9.063   3.467  15.926 -0.3967  0.0201 -0.0805
18166W        W35014  14.914   8.934   0.411 -0.0554  0.1389 -0.1760
18167W        W35015  13.743   2.433   0.424 -0.3167 -0.1638  0.2025
18168W        W35016   1.742   6.651  14.242  0.1151  0.2975  0.0733
18169W        W35017  15.722   8.304  12.013  0.0134 -0.3152 -0.0893
18170W        W35018   7.107  17.490  15.228  0.0107  0.0821 -0.2189
18171W        W35019   1.257   5.638   4.859  0.1325 -0.0284 -0.1301
18172W        W35020   6.202   7.021   1.747 -0.0728  0.1293  0.0454
18173W        W35021  12.203   7.271   0.463 -0.2434  0.0955 -0.0345
18174W        W35022   3.992   7.081   3.905  0.0477  0.1793  0.0539
18175W        W35023  12.619   7.894   0.308  0.1738  0.1172  0.2562
18176W        W35024   4.731   7.242   2.860 -0.0550 -0.2194  0.3860
18177W        W35025   7.072   0.563   3.916 -0.1031 -0.1000 -0.2859
18178W        W35026   9.738   8.844  14.268 -0.0228 -0.0517 -0.1260
18179W        W35027  10.197   9.474  15.425  0.0380  0.1193  0.0981
18180W        W35028  15.063  13.636  13.106 -0.1505  0.0259 -0.1317
18181W        W35029   7.771  14.607   4.760 -0.1487 -0.0790  0.0531
18182W        W35030   9.237  11.754  13.890 -0.0862 -0.1048 -0.0482
18183W        W35031   8.754   0.707   0.061 -0.3457 -0.0800  0.1871
18184W        W35032  10.968   4.373   0.613  0.0935  0.1222 -0.0774
18185W        W35033   8.419   1.015   0.401 -0.0336 -0.2109 -0.0776
18186W        W35034  13.393   0.971  14.838 -0.1221  0.1875 -0.1526
18187W        W35035  17.550   7.723   3.610  0.1410  0.0711  0.2729
18188W        W35036  13.897   6.571   3.657 -0.2643 -0.1067 -0.1238
18189W        W35037  16.863   4.723   3.551  0.1083  0.3024 -0.1986
18190W        W35038   2.427  17.680   1.067 -0.1926  0.0915 -0.0108
18191W        W35039   7.550  14.932  12.819  0.1591  0.2187  0.2386
18192W        W35040  14.931   2.777   2.951  0.0881 -0.0039  0.0481
18193W        W35041   4.656  16.456  12.653 -0.0764 -0.1785 -0.0689
18194W        W35042  16.879   3.834   3.550  0.2181 -0.1751  0.2312
18195W        W35043   6.162  12.770  11.092 -0.2989  0.2657 -0.0617
18196W        W35044  13.023   1.334  16.109 -0.0360 -0.0529 -0.1703
18197W        W35045   7.682   8.086   1.631  0.1716  0.2848  0.2348
18198W        W35046   6.323  11.415   2.295  0.0707  0.0607 -0.0101
18199W        W35047   7.412   8.614  14.188 -0.1893 -0.0027  0.1385
18200W        W35048  10.036   8.469  15.063  0.2089  0.1073 -0.1016
18201W        W35049  13.340  17.672  14.616  0.1106  0.0742  0.1876
18202W        W35050   9.158   0.910   4.450  0.0871  0.0239  0.0000
18203W        W35051  13.214  15.659  16.278 -0.0338 -0.0288 -0.2301
18204W        W35052  15.714   6.795   4.735 -0.2478  0.3125 -0.0209
18205W        W35053  11.948   3.052  10.860  0.1478 -0.0483  0.2052
18206W        W35054   2.848   4.536  11.128  0.2899  0.1106 -0.0096
18207W        W35055  14.302  17.461   2.267  0.0602  0.1527  0.0689
18208W        W35056   1.211  11.530  11.455  0.1710 -0.1514 -0.0435
18209W        W35057   4.517   8.386   2.173  0.1337 -0.0237  0.1625
18210W        W35058   7.545  11.180  10.688 -0.1974  0.1178 -0.1183
18211W        W35059   8.111  10.662  11.929 -0.2153  0.2656  0.3298
18212W        W35060   3.004  16.067  12.903 -0.1414  0.2184 -0.1635
18213W        W35061  10.698   2.288  14.550 -0.1224 -0.0715  0.0142
18214W        W35062   4.486  14.449  12.758 -0.1517 -0.1402 -0.0347
18215W        W35063   2.855  16.448  16.595 -0.1167 -0.1505 -0.0769
18216W        W35064   7.714   6.965   0.779 -0.0733 -0.1096  0.0853
18217W        W35065   4.784   7.678  16.103 -0.0036  0.2450 -0.2589
18218W        W35066  16.492   4.898  15.776  0.1123  0.1622  0.1785
18219W        W35067   2.566   8.586   0.361 -0.0423  0.5412  0.0447
18220W        W35068  17.152  16.572  13.665  0.0328  0.2537  0.0606
18221W        W35069   4.134  10.825  11.811  0.1254  0.0666  0.1183
18222W        W35070   6.049  12.215   1.844 -0.1103  0.1719 -0.0184
18223W        W35071  11.043  10.091   2.035 -0.0466 -0.2779  0.0320
18224W        W35072  16.337   7.118  10.413 -0.0249  0.3260 -0.0810
18225W        W35073  13.621   6.897   5.602 -0.0703 -0.2820  0.0144
18226W        W35074  17.398  11.661  11.476  0.0096  0.0296  0.0406
18227W        W35075  12.077   0.981   2.711 -0.0735 -0.2609  0.0783
18228W        W35076   3.884  11.011   1.746 -0.3174  0.1631  0.2224
18229W        W35077  15.596   8.670   5.873 -0.2208 -0.2176  0.1311
18230W        W35078   3.609   0.844   5.731 -0.4945 -0.0643 -0.0304
18231W        W35079   0.594  13.396  15.196 -0.1501 -0.1924  0.3160
18232W        W35080  14.736  14.514  14.040 -0.1493  0.3765  0.0038
18233W        W35081  15.916   7.750   2.463 -0.0813  0.0190  0.2077
18234W        W35082   9.599  16.397  15.768 -0.0712  0.3490 -0.0051
18235W        W35083   9.769  13.686   1.191 -0.1487  0.0296  0.0540
18236W        W35084   6.015  10.089  14.980  0.0079  0.0894 -0.1348
18237W        W35085   7.781   8.579   1.552 -0.1354  0.1461  0.0311
18238W        W35086  12.251   8.239   0.496  0.2808 -0.1132  0.2802
18239W        W35087   1.084  15.534   0.135 -0.2227 -0.1166 -0.2313
18240W        W35088  10.569   4.830  12.232 -0.0975 -0.0655  0.3072
18241W        W35089   3.253  14.308   3.642  0.1968 -0.4300  0.2605
18242W        W35090   8.099   4.200   1.105 -0.1137  0.0057 -0.2007
18243W        W35091   8.701  10.313   0.022 -0.0609  0.2664  0.2722
18244W        W35092   4.189   2.892   5.493 -0.1721 -0.1035 -0.2289
18245W        W35093   4.031  15.951  15.927  0.0797 -0.1204  0.0544
18246W        W35094   6.024  13.162  12.030  0.1939  0.1654 -0.1600
18247W        W35095   8.631  16.181   2.323 -0.1539 -0.0962  0.1072
18248W        W35096  15.308  17.109  16.000  0.0722  0.0608  0.0527
18249W        W35097   3.693   4.564  13.078 -0.1457  0.0505 -0.0785
18250W        W35098   3.785   3.167  16.549  0.0238  0.0415  0.1980
18251W        W35099   6.148  17.336   3.618 -0.0148  0.0932 -0.2979
18252W        W35100  16.971   9.451   1.348 -0.0862  0.2315  0.1150
18253W        W35101   6.101  15.854  14.804 -0.2683  0.2466 -0.0850
18254W        W35102   2.896   1.273   2.621  0.0601  0.0797 -0.3065
18255W        W35103  14.320  16.009   1.588 -0.0497  0.1094 -0.1693
18256W        W35104  12.916  13.658  12.838  0.0194  0.2162 -0.1351
18257W        W35105   2.236  16.978   2.823 -0.1656 -0.0492  0.2973
18258W        W35106  11.991  11.335   1.244 -0.0527  0.1058 -0.1458
18259W        W35107   8.122  12.773  15.401  0.0041 -0.0045 -0.4198
18260W        W35108  11.432   0.459   3.072 -0.1388 -0.0827 -0.1231
18261W        W35109  10.117  13.847   1.475 -0.1772  0.1090  0.2403
18262W        W35110  14.413   2.302   4.527  0.3477 -0.1342  0.2224
18263W        W35111   7.644   5.417   0.989  0.1912 -0.0552  0.0097
18264W        W35112  11.098   8.704   0.470  0.1185  0.0153 -0.1867
18265W        W35113   5.277   4.448  11.280 -0.1385 -0.2120 -0.0063
18266W        W35114  16.231   4.021   4.995 -0.1990 -0.0917 -0.1504
18267W        W35115  15.997  15.804   4.624 -0.0051  0.1681  0.2031
18268W        W35116   2.993   6.271   3.476  0.0982  0.0010 -0.2811
18269W        W35117   9.240  13.376  12.035  0.1772 -0.2614  0.3030
18270W        W35118  11.415   7.870  11.868 -0.4484 -0.1623 -0.0547
18271W        W35119  14.022   0.246   0.784  0.0035  0.0278 -0.1949
18272W        W35120  16.303   7.444   2.553 -0.1495 -0.1582 -0.2295
18273W        W35121   5.829  12.743   5.915  0.0287  0.1630  0.1055
18274W        W35122   2.234  16.608  12.029 -0.0026  0.0934 -0.0412
18275W        W35123  14.862  16.430   1.013  0.1658  0.1363  0.0801
18276W        W35124  12.383   4.759  12.027 -0.1559  0.1200 -0.1856
18277W        W35125   1.825  13.678   0.206 -0.2671  0.0472  0.1412
18278W        W35126  10.624  14.288   4.458 -0.0887  0.1765 -0.1550
18279W        W35127  13.100   3.064  11.837 -0.1491 -0.0772  0.0198
18280W        W35128  15.820  17.244  12.656  0.2716 -0.1987 -0.0598
18281W        W35129   7.001   4.247  14.875 -0.0531  0.0066 -0.1388
18282W        W35130   3.932   4.957   0.981  0.0895  0.2000  0.0388
18283W        W35131  10.361   8.271  12.782 -0.0537 -0.2037 -0.1186
18284W        W35132   2.840   0.969  14.500  0.2800  0.0032 -0.1917
18285W        W35133   9.320   2.407   1.763  0.1940 -0.0563  0.2457
18286W        W35134   3.298   8.799  15.927 -0.3342 -0.0589 -0.0389
18287W        W35135   9.556  13.566   4.117  0.0464  0.0708  0.0316
18288W        W35136  14.739  12.730  15.306 -0.1703  0.0259  0.0769
18289W        W35137   5.432   1.677   5.018  0.1062 -0.1317  0.2434
18290W        W35138   2.553   2.340   4.851 -0.1205  0.1205  0.2357
18291W        W35139   4.293   9.779   1.893  0.0859 -0.0632  0.3349
18292W        W35140   3.693  12.867   0.444  0.0957 -0.0914  0.0469
18293W        W35141   3.640   9.396   4.002  0.0568 -0.2992 -0.1307
18294W        W35142   7.429   4.207   3.936  0.2968 -0.1772  0.0370
18295W        W35143   2.225   7.017   4.134 -0.1489 -0.0108 -0.1577
18296W        W35144   5.579   5.875  13.740  0.2229  0.1827 -0.1567
18297W        W35145   2.668  15.308   4.489  0.0719  0.1049 -0.1671
18298W        W35146   6.174   4.819  16.177  0.0504  0.0157 -0.0001
18299W        W35147  15.816   4.364  12.143 -0.2714  0.0535  0.0014
18300W        W35148  15.027  16.131  16.297  0.1947 -0.1083  0.0823
18301W        W35149   0.006   3.119  12.968 -0.1105  0.3207 -0.1709
18302W        W35150   4.659   1.144  16.392  0.2088  0.3576  0.1351
18303W        W35151  11.431   5.588   3.412  0.0509  0.0257 -0.3544
18304W        W35152   7.265  12.511   4.185  0.3693  0.0907 -0.2284
18305W        W35153  10.026  14.875  15.081 -0.1260  0.3692  0.0389
18306W        W35154   2.922   1.452  11.554 -0.1489 -0.0570 -0.1393
18307W        W35155   1.392   2.151   0.877 -0.1263  0.0711 -0.0615
18308W        W35156  16.098  13.388   1.136  0.0979 -0.0194  0.0156
18309W        W35157  11.850   3.536  13.425  0.3334  0.1073  0.4826
18310W        W35158   6.400   2.780  14.152  0.0081 -0.1782 -0.1750
18311W        W35159  12.373   1.206  11.832  0.2682 -0.0653 -0.0328
18312W        W35160  13.020  12.131  15.620  0.0525 -0.3095  0.0497
18313W        W35161  17.037   1.658   4.908  0.0454 -0.0100 -0.1173
18314W        W35162  15.097  15.426   5.952 -0.1124  0.0234  0.0037
18315W        W35163  13.206  11.359  15.540  0.1491  0.1389  0.1103
18316W        W35164   2.442   6.054   4.306 -0.1139 -0.1745 -0.0273
18317W        W35165  16.873   2.879  15.316 -0.2281 -0.0280  0.1848
18318W        W35166  15.910   1.331   0.487 -0.4046 -0.3921 -0.2825
18319W        W35167  11.573   0.738  12.994  0.3588 -0.2640  0.0207
18320W        W35168  11.433  10.035   2.501 -0.1541  0.1024 -0.0197
18321W        W35169  14.504  12.811  12.699 -0.2496  0.0551 -0.3672
18322W        W35170   7.094  12.423   2.597  0.2369  0.1596  0.1896
18323W        W35171  17.148  12.734  12.508  0.1354 -0.2114  0.1404
18324W        W35172   8.194   8.641   2.867  0.2735  0.3332 -0.1284
18325W        W35173  16.443  15.232  14.303 -0.3310  0.0428  0.1126
18326W        W35174  15.079  14.734   4.286  0.2255  0.0344 -0.0173
18327W        W35175   1.325  17.079  11.866  0.0524  0.0894  0.2935
18328W        W35176   6.691   1.724  11.208  0.0123 -0.1605  0.0446
18329W        W35177   6.719   2.669  12.114 -0.0706  0.1361  0.1920
18330W        W35178   1.241   0.825  12.243 -0.0875 -0.1649 -0.1435
18331W        W35179  17.150  17.054   2.105  0.1452 -0.0311  0.1072
18332W        W35180   5.725  14.122   5.714 -0.1774  0.0392  0.0773
18333W        W35181  11.558   1.463   4.783 -0.0854  0.0845 -0.0339
18334W        W35182   8.298  14.178  15.148 -0.1945 -0.3288  0.3040
18335W        W35183  12.413   7.424   2.676  0.6469  0.1034  0.1466
18336W        W35184  16.211  15.010   4.872 -0.0729  0.0371 -0.2023
18337W        W35185   0.484   9.677   5.308 -0.0861 -0.0953 -0.2375
18338W        W35186  13.179   8.718  14.030 -0.2274  0.2224  0.0797
18339W        W35187   3.571  12.074   4.191 -0.0347  0.0087  0.0903
18340W        W35188   0.274   9.433   0.389 -0.0528 -0.1829  0.1026
18341W        W35189   9.707  16.681  11.540  0.2010 -0.0531 -0.0655
18342W        W35190   3.346  10.566   4.384  0.0428 -0.1315  0.2731
18343W        W35191   2.722   0.483   0.145 -0.2181  0.0252  0.1651
18344W        W35192  16.342   8.263  16.022 -0.0688 -0.0404  0.4731
18345W        W35193   9.340   7.301  13.662  0.3653 -0.1540  0.1956
18346W        W35194  15.989   9.849   1.548 -0.0652 -0.1429  0.4181
18347W        W35195   5.422   2.836   0.695  0.2525  0.0782 -0.0339
18348W        W35196   0.459  16.626  14.313  0.2117 -0.0834  0.1345
18349W        W35197  13.437  17.291  11.104 -0.0488 -0.0838  0.2665
18350W        W35198  12.751  16.120   0.331 -0.0828 -0.1107 -0.4885
18351W        W35199   6.708   6.480  14.029 -0.0227 -0.1340 -0.1600
18352W        W35200   3.784  16.844  14.835 -0.0458 -0.0795 -0.0519
18353W        W35201  14.746  12.023   2.519  0.2554  0.4242 -0.1899
18354W        W35202  11.439  15.977  15.391 -0.0051 -0.2202 -0.2462
18355W        W35203   5.629  12.140   3.822  0.2570  0.3242 -0.1252
18356W        W35204   1.218   4.563   1.753  0.2776  0.1659  0.0325
18357W        W35205   6.633   9.052   0.175 -0.2293 -0.0839 -0.3883
18358W        W35206  13.585   7.960  14.531 -0.1287 -0.0381 -0.1943
18359W        W35207   1.161  11.758   0.527  0.2072 -0.0729 -0.1939
18360W        W35208  14.510   8.667   1.166  0.0244 -0.0275 -0.3321
18361W        W35209   1.453  10.745   3.857 -0.1065  0.1263 -0.3008
18362W        W35210   6.349   2.213   2.035  0.2243 -0.2335  0.0975
18363W        W35211  14.330   8.124  15.309 -0.1205  0.0605 -0.0300
18364W        W35212   4.682  13.454   3.931  0.2152 -0.1511 -0.0377
18365W        W35213  16.067   8.826  15.090 -0.0104 -0.2737 -0.0002
18366W        W35214  16.408   9.580  11.437 -0.2107  0.0317  0.1199
18367W        W35215   2.440   7.920  16.637  0.1508 -0.0704 -0.2991
18368W        W35216   1.505   2.980   4.549 -0.0759  0.2265 -0.0148
18369W        W35217  10.989  10.710  15.795  0.0203 -0.2715  0.1743
18370W        W35218   6.550   1.041  16.385 -0.0675  0.1390 -0.2679
18371W        W35219   1.500  17.050   1.631 -0.0588 -0.4195  0.2289
18372W        W35220   5.566   8.656  12.794 -0.1524  0.0178 -0.1227
18373W        W35221   0.876  16.866   4.904 -0.1207  0.0674  0.0360
18374W        W35222   8.822   2.066  14.813  0.4050  0.2497  0.0345
18375W        W35223  14.798   4.834   1.402  0.1696 -0.0939 -0.0642
18376W        W35224  12.299   5.176   3.304 -0.0917  0.3317 -0.1796
18377W        W35225  17.391   1.862   1.711  0.1435 -0.1829  0.3133
18378W        W35226   1.537   1.997  14.995  0.2796  0.0429  0.2037
18379W        W35227   4.987   0.179  12.264 -0.1112  0.3291  0.1547
18380W        W35228   0.197  13.934  13.474  0.0296 -0.3024  0.0596
18381W        W35229  15.198   4.169   1.801  0.2331  0.2283  0.0683
18382W        W35230  17.090  13.582   1.194  0.0634 -0.0904 -0.2494
18383W        W35231  11.141  14.768  15.792  0.3667  0.1492 -0.0327
18384W        W35232   0.925  15.327  13.742 -0.5646 -0.1558  0.0211
18385W        W35233   7.887  11.812  16.232 -0.4194 -0.4465  0.3495
18386W        W35234  12.419   0.849   1.487 -0.0638  0.2113  0.2306
18387W        W35235   4.332  15.818   5.371  0.2389 -0.0131 -0.0104
18388W        W35236  12.753  10.634   0.223  0.0763 -0.0327  0.0087
18389W        W35237   5.761   5.419  14.471 -0.1208  0.0112  0.1753
18390W        W35238  14.904   7.716  12.075 -0.1879  0.4310  0.0006
18391W        W35239   0.433  11.412  14.512 -0.0855 -0.0377  0.0864
18392W        W35240  13.067  11.802  15.062 -0.2036  0.2351 -0.0701
18393W        W35241   6.340  17.316  11.831 -0.2104  0.0484 -0.1368
18394W        W35242  15.309   4.916  16.244  0.2783  0.2747  0.0914
18395W        W35243  11.695  15.996   1.120 -0.1236  0.2620 -0.3098
18396W        W35244   4.388  13.330   2.932 -0.2633  0.0410 -0.0303
18397W        W35245   5.019   5.189   4.359  0.1299  0.0198 -0.2110
18398W        W35246   7.402  13.355   2.979 -0.2247 -0.1792 -0.1235
18399W        W35247  16.435   0.640   4.223 -0.3119 -0.0623  0.2267
18400W        W35248   2.439   5.605   0.867 -0.1768  0.1687 -0.2021
18401W        W35249  13.301  17.460  13.304 -0.2611 -0.0301 -0.1572
18402W        W35250  14.416   3.948   5.022  0.1061  0.0427  0.1255
18403W        W35251   7.953   7.826  11.637 -0.1857 -0.3080  0.0827
18404W        W35252   6.217  14.113  11.836  0.1244  0.0433  0.0510
18405W        W35253  11.678  13.736  13.423 -0.1558 -0.1006 -0.0101
18406W        W35254  16.923  13.659   2.099 -0.1715  0.0937 -0.1509
18407W        W35255   7.397  16.122  16.350 -0.2541  0.1755 -0.1427
18408W        W35256  15.488  16.034  13.703 -0.0559 -0.0096 -0.0358
18409W        W35257   4.927   0.347   2.246  0.0267  0.0465  0.0011
18410W        W35258  12.292  16.562   2.655  0.1545 -0.1857  0.1750
18411W        W35259   0.177   9.227  16.233 -0.0343 -0.0290 -0.3809
18412W        W35260  10.137   0.903   4.440 -0.1506  0.1157  0.0664
18413W        W35261   2.277   8.352  12.917 -0.0725 -0.0743  0.1510
18414W        W35262   1.504   8.023   2.155 -0.2127  0.2576 -0.1331
18415W        W35263  10.061   5.367  12.911  0.2416  0.1300 -0.1335
18416W        W35264   0.231  16.501   5.391 -0.2106 -0.2251 -0.1035
18417W        W35265  12.484  14.039  16.336  0.0859 -0.1000 -0.3120
18418W        W35266  17.599  13.815   4.313  0.0912 -0.0546 -0.0706
18419W        W35267  15.133   3.014  15.363  0.1709 -0.1376 -0.0536
18420W        W35268  16.707   8.422  16.366 -0.1366 -0.1167  0.1606
18421W        W35269   9.343  17.648  16.504 -0.0248  0.0398 -0.0661
18422W        W35270   8.207   4.995  12.925  0.2233  0.0448  0.1119
18423W        W35271   9.138   8.406   1.056 -0.5211  0.1060 -0.1351
18424W        W35272  12.094   2.478   0.603 -0.2134  0.1259 -0.0445
18425W        W35273  16.660  10.594  16.528 -0.0850 -0.0158  0.3762
18426W        W35274  14.964  11.547   4.641 -0.0754 -0.2079  0.1355
18427W        W35275  14.176  14.566   4.529 -0.2206  0.1492 -0.2326
18428W        W35276   4.329  10.387   1.261  0.2062 -0.5635 -0.0472
18429W        W35277   7.162  17.641  12.326  0.2118  0.1309 -0.1365
18430W        W35278  11.615  16.176  14.555 -0.0852 -0.0012  0.0384
18431W        W35279  13.511   1.375  11.314 -0.3730 -0.0294 -0.2554
18432W        W35280   0.605  11.239   1.349 -0.4362 -0.0968  0.0397
18433W        W35281  14.932  16.788   4.581 -0.5417  0.1013 -0.0327
18434W        W35282   8.438  13.114   5.029  0.0839  0.0968 -0.0643
18435W        W35283   0.337   1.138  15.764 -0.0423 -0.3881  0.0375
18436W        W35284   0.689   9.623  10.323 -0.1892  0.1327 -0.1089
18437W        W35285  15.348  17.091   2.141  0.3036  0.0234 -0.2724
18438W        W35286   8.138   5.973  14.555  0.0739 -0.1511  0.1425
18439W        W35287  15.282   8.469  14.469 -0.0503 -0.0709  0.0529
18440W        W35288   3.385   5.661   0.562 -0.2446  0.1587  0.1510
18441W        W35289  10.483  13.224  14.661 -0.1161  0.1419 -0.0387
18442W        W35290   1.975   9.179  13.712 -0.3310 -0.1359 -0.1256
18443W        W35291   3.038   1.664  11.989  0.2116  0.0680  0.1167
18444W        W35292  12.856   8.730   2.838 -0.1808 -0.2746 -0.2087
18445W        W35293   2.838  10.180  12.692  0.0078  0.0452 -0.1395
18446W        W35294  11.534   8.797   4.721 -0.0247 -0.0759 -0.4601
18447W        W35295   4.677  11.210  13.477 -0.0597  0.1271  0.1774
18448W        W35296   4.010   9.818   3.474 -0.0351  0.0426  0.3510
18449W        W35297   5.582  10.655  14.381 -0.2560  0.0844  0.0012
18450W        W35298   7.190  13.267  12.162 -0.2516 -0.2013 -0.0834
18451W        W35299   8.880  16.237  16.443 -0.0914  0.1049  0.1699
18452W        W35300  12.065   0.390   0.549 -0.0956 -0.0614  0.0042
18453W        W35301   4.365  12.912   1.222  0.3201 -0.0309  0.1888
18454W        W35302   4.777   6.594  12.557 -0.1546  0.1806  0.0148
18455W        W35303   7.127  12.497  11.031  0.2153  0.1598 -0.1141
18456W        W35304   9.830  15.833  14.046  0.1152 -0.0269 -0.2036
18457W        W35305   1.113  13.705  10.289 -0.0682 -0.1296  0.2456
18458W        W35306  14.509  15.854  14.457 -0.2178 -0.0052  0.1549
18459W        W35307  17.698  14.403  13.243  0.2902 -0.0569  0.1642
18460W        W35308   6.485   1.472   1.140  0.2099 -0.0645 -0.1638
18461W        W35309   9.009  14.794   2.714  0.2215  0.1405 -0.1289
18462W        W35310   7.065  17.255  11.949  0.2098  0.2495  0.1452
18463W        W35311  17.232   0.624   0.853  0.0555  0.1946  0.0249
18464W        W35312  11.488   5.879  11.339 -0.2002 -0.3651 -0.0448
18465W        W35313  12.582  12.488  11.324 -0.1903  0.1593 -0.0058
18466W        W35314   5.565   2.948   4.452 -0.1569  0.0034 -0.1981
18467W        W35315   8.107   0.532   3.880 -0.2211  0.2175  0.1393
18468W        W35316   6.489   7.293  13.288 -0.0996  0.1276  0.2135
18469W        W35317   8.307   5.926  15.828  0.1106 -0.0067  0.0016
18470W        W35318  10.134   2.447  16.035 -0.1201 -0.2703  0.0200
18471W        W35319  14.275  11.553  15.897  0.0591 -0.1137  0.0889
18472W        W35320  14.124  13.550  13.422  0.0444  0.2109  0.1204
18473W        W35321   1.942   0.794  15.559 -0.2821  0.0464 -0.3241
18474W        W35322   7.031  10.753  16.093  0.0263  0.0598 -0.0812
18475W        W35323   2.443  16.574   4.447  0.1478 -0.1196 -0.0018
18476W        W35324  15.004   5.815   0.301 -0.0093  0.2223  0.0655
18477W        W35325   1.130  16.466   2.128  0.1170  0.4153  0.0834
18478W        W35326  16.678  11.451  12.681 -0.1493  0.1891 -0.0995
18479W        W35327  13.884   1.160   4.643  0.0929 -0.2036 -0.0408
18480W        W35328   4.334  13.017   3.367 -0.3941 -0.2821  0.1237
18481W        W35329   4.481   1.003   0.402  0.1689 -0.2001 -0.3968
18482W        W35330  10.552   0.538  11.831 -0.0334 -0.0960 -0.2339
18483W        W35331   5.509   9.500  11.374 -0.0423 -0.1086  0.0024
18484W        W35332  15.402   2.402   5.117 -0.1378 -0.0785  0.2330
18485W        W35333  15.224   0.048   5.351  0.0713 -0.1491  0.1057
18486W        W35334  16.136   6.472  14.904 -0.0825  0.1336  0.2035
18487W        W35335   3.924   4.424   2.501  0.3393 -0.2961 -0.0022
18488W        W35336   8.764   0.200   1.157  0.0173 -0.4199 -0.0760
18489W        W35337  15.476   4.951  15.773 -0.1642  0.1379 -0.0869
18490W        W35338   4.842   6.622   4.026  0.0390  0.0014 -0.1763
18491W        W35339  14.077   0.859  12.382  0.1463 -0.3452 -0.0722
18492W        W35340   0.120   9.282  14.477 -0.1047 -0.1740 -0.1720
18493W        W35341   3.273  12.786  15.246  0.3573  0.0682  0.0927
18494W        W35342  12.962   6.564   4.882 -0.1045  0.0139 -0.0260
18495W        W35343   5.402   8.394  12.370 -0.1351  0.1264 -0.0209
18496W        W35344  11.014   1.735  15.174 -0.0342 -0.0874 -0.1190
18497W        W35345  13.874   6.316   0.953  0.1054  0.0282  0.0825
18498W        W35346   7.682   4.645  13.791 -0.0502  0.2954  0.1989
18499W        W35347   6.577   3.925   3.694 -0.0124  0.1297  0.0281
18500W        W35348   6.041   2.191   4.787  0.2086  0.0121 -0.1523
18501W        W35349   6.333   7.591   0.687  0.1275 -0.1707 -0.2180
18502W        W35350  15.726   3.492   4.574  0.0906 -0.1027 -0.0981
18503W        W35351   1.324   5.880  15.960  0.0395  0.2140  0.3353
18504W        W35352   8.713  13.030  11.621  0.0227 -0.0763  0.0350
18505W        W35353  12.858  13.139   2.962 -0.0275  0.0150 -0.0343
18506W        W35354   7.781   5.035   4.326 -0.0295  0.0527 -0.0348
18507W        W35355   9.924  13.446  15.376 -0.1802  0.1225 -0.3338
18508W        W35356  13.003  12.088  12.623 -0.2535 -0.0147 -0.1290
18509W        W35357   7.783   9.065   2.595  0.2942  0.1670 -0.3841
18510W        W35358   1.196   6.816   4.233  0.0383 -0.0729  0.2925
18511W        W35359  16.647  13.042  11.997 -0.0773  0.1615  0.0739
18512W        W35360   9.311  13.487   2.630  0.1619  0.0689 -0.1768
18513W        W35361   2.596  15.103  16.359 -0.1726 -0.1280  0.1831
18514W        W35362   4.166   0.132  15.609  0.3522  0.2220 -0.4174
18515W        W35363  13.825  12.311  13.077 -0.2023  0.1494  0.0385
18516W        W35364  11.179   5.188   3.108 -0.0297  0.1872  0.2922
18517W        W35365   3.221   3.103   4.308 -0.0510  0.0430  0.1026
18518W        W35366  14.749  11.314  11.526  0.0343  0.5582 -0.0398
18519W        W35367  12.486   4.112   1.155 -0.2381  0.0711 -0.2442
18520W        W35368   1.867  11.684  13.822 -0.3425  0.0383  0.1828
18521W        W35369   8.912  16.019  13.551 -0.0185 -0.0967  0.1496
18522W        W35370   4.755  12.196  13.930  0.0024 -0.2765 -0.1565
18523W        W35371  13.975   7.681   1.401  0.0589 -0.0673 -0.0771
18524W        W35372  16.528  13.966  11.409  0.1723 -0.2532  0.1931
18525W        W35373  11.894   1.206   2.270 -0.2828 -0.0446  0.0817
18526W        W35374   8.279  16.201  13.097  0.0480 -0.0158 -0.1688
18527W        W35375  15.919  13.940   2.425  0.0272  0.2184  0.1366
18528W        W35376   6.082  15.211  16.235 -0.3442 -0.1659  0.1649
18529W        W35377  12.587   8.804  10.927  0.0480  0.3457 -0.0079
18530W        W35378   9.597   0.657   4.474 -0.1381 -0.3123  0.2817
18531W        W35379   1.487  16.801  13.200 -0.0354  0.0989 -0.1564
18532W        W35380  11.900  11.049   0.792  0.0236 -0.4817 -0.0810
18533W        W35381  16.594  10.026  15.486 -0.0304 -0.0186  0.4087
18534W        W35382  12.603  16.411   1.174  0.0919  0.1195 -0.2886
18535W        W35383   6.481  13.116   1.812 -0.1680  0.2278  0.0861
18536W        W35384  15.653   0.742  10.817  0.1479  0.0035  0.0035
18537W        W35385  14.966  14.080  14.088 -0.0167 -0.2040  0.0667
18538W        W35386   7.098  16.682  15.439 -0.0861 -0.0351  0.1995
18539W        W35387  12.082   5.200  12.431 -0.1412 -0.0584 -0.1694
18540W        W35388  13.598  11.029   3.904 -0.1269  0.1288 -0.1254
18541W        W35389  12.908   5.575  12.217 -0.0833 -0.0361  0.2759
18542W        W35390   2.555   5.682  16.618  0.0823 -0.0673  0.0609
18543W        W35391   3.052  17.123   3.689 -0.1917  0.0829 -0.1730
18544W        W35392  13.656   1.965  15.111 -0.0126 -0.1059 -0.1234
18545W        W35393   6.611   8.723   3.833  0.1234 -0.2490 -0.0005
18546W        W35394   7.390   7.284  14.836  0.0015 -0.0955  0.0462
18547W        W35395   2.063   1.464   4.157  0.1442 -0.2443 -0.1446
18548W        W35396   1.761  15.029   4.705  0.2225  0.0310 -0.1181
18549W        W35397   6.500   9.083  16.290 -0.2115 -0.1680 -0.0709
18550W        W35398   8.106  16.198   1.179  0.0503 -0.1531  0.0104
18551W        W35399   1.801  14.810  11.013  0.0695 -0.1366  0.3318
18552W        W35400   1.953   0.704   5.309  0.1330 -0.0153  0.2631
18553W        W35401  11.405   0.316   0.671 -0.1527  0.0033  0.0097
18554W        W35402   8.329   8.741   1.957  0.2140  0.1902 -0.1166
18555W        W35403   9.750   4.466  12.751 -0.1192  0.0364  0.1088
18556W        W35404  12.927  11.344  13.521  0.1353 -0.1186 -0.0140
18557W        W35405   1.014   8.698   5.329 -0.1571  0.1484  0.0367
18558W        W35406  16.292  16.631  12.023 -0.0518 -0.0748  0.0100
18559W        W35407   0.885   5.317   3.942 -0.0595 -0.0985 -0.1917
18560W        W35408   0.307  14.438  14.407  0.0379  0.0072 -0.0361
18561W        W35409  12.691   0.657  14.159  0.0252  0.2105  0.2103
18562W        W35410  17.208   5.041  14.684 -0.2436 -0.1456  0.3608
18563W        W35411  17.397   2.600   2.376 -0.1678 -0.0114 -0.0798
18564W        W35412   3.513   8.534   3.221 -0.2138  0.2239  0.0504
18565W        W35413  12.491  11.879  13.908 -0.0037  0.1280 -0.1388
18566W        W35414  11.261   9.495  12.065 -0.0823 -0.0048  0.0202
18567W        W35415   8.273   3.153   0.907  0.1674  0.4090  0.0115
18568W        W35416   2.602   9.421   1.119 -0.2275 -0.0606  0.0553
18569W        W35417  14.650   6.505  12.062  0.0658 -0.0427  0.0639
18570W        W35418   6.594   3.342  14.918 -0.0862 -0.0796  0.0487
18571W        W35419   5.616   6.550  15.877  0.0567  0.0860 -0.0464
18572W        W35420  13.137   3.938   2.547 -0.0349  0.0669  0.2719
18573W        W35421   9.764   4.435   0.437 -0.2276 -0.1634 -0.0833
18574W        W35422  13.986   0.860   2.254 -0.0286  0.3131  0.1414
18575W        W35423   1.531   0.767  11.140 -0.1774  0.2451 -0.0555
18576W        W35424   7.190  11.642   0.848  0.3101  0.2863  0.0106
18577W        W35425   4.599  12.464   3.555  0.0947  0.1238  0.0839
18578W        W35426  12.099   1.677  15.277 -0.2673 -0.1878 -0.0652
18579W        W35427  10.447   2.897  15.168  0.1969 -0.1294 -0.1825
18580W        W35428  14.530  13.055   0.543  0.1882 -0.1982  0.2937
18581W        W35429  11.119  13.905  11.390  0.0375 -0.2961  0.1751
18582W        W35430  13.251   2.674   1.616  0.0927 -0.2524  0.0078
18583W        W35431  14.678   4.737  12.321 -0.0827 -0.3749  0.2218
18584W        W35432   2.590   6.854   3.776 -0.0380  0.0137 -0.1616
18585W        W35433  14.418   0.367   1.051  0.0521 -0.2513 -0.2014
18586W        W35434   0.954  11.429   3.201  0.0344 -0.2917  0.0332
18587W        W35435  15.657   2.493  12.413 -0.0258  0.1931 -0.0170
18588W        W35436   6.672  17.564  10.853  0.0606 -0.0998 -0.1017
18589W        W35437  14.029   0.024   0.305  0.0250  0.0609 -0.0182
18590W        W35438   9.471   0.889   0.685  0.0215 -0.0725  0.1109
18591W        W35439   2.554   2.353  16.304 -0.2559  0.1942 -0.1527
18592W        W35440   5.445  11.573   6.349 -0.1682 -0.3091  0.0643
18593W        W35441  12.355   2.991  15.397  0.0539  0.0287 -0.2396
18594W        W35442   4.376  14.330  13.266 -0.0059  0.3173 -0.0824
18595W        W35443   9.760   7.547  13.351  0.0936  0.3189  0.2812
18596W        W35444  15.012  14.710   1.769  0.2962  0.2337  0.1992
18597W        W35445  12.676   7.706  16.278  0.2667 -0.1903 -0.2888
18598W        W35446   3.286   2.373  14.688  0.0600 -0.4131  0.3482
18599W        W35447   2.483   4.637   1.068  0.1382  0.0811 -0.0865
18600W        W35448  16.117  17.412   4.897  0.4922 -0.2589 -0.0834
18601W        W35449  14.477   3.968  16.645 -0.2255 -0.3386 -0.0808
18602W        W35450   3.563   7.206  14.546 -0.1834  0.0164 -0.3348
18603W        W35451  14.696  14.402   2.624 -0.0105 -0.1729  0.1604
18604W        W35452   8.304   5.620  14.138 -0.2061 -0.1654 -0.0004
18605W        W35453  15.414  10.111  12.382  0.2305  0.2877  0.0034
18606W        W35454   6.990  11.300   4.901  0.4462 -0.0130 -0.1290
18607W        W35455   5.745   0.686   5.219 -0.0336  0.1745 -0.2300
18608W        W35456   0.342   0.911   0.395  0.0352 -0.0437 -0.2091
18609W        W35457  12.869  12.065  16.079 -0.4510  0.1221 -0.3041
18610W        W35458   0.237   0.848   2.604 -0.5310 -0.1377 -0.0103
18611W        W35459  15.711  11.753   2.142 -0.1508 -0.1376 -0.2116
18612W        W35460  13.765   9.637   3.696  0.0931  0.2907 -0.1577
18613W        W35461  15.466   5.601  10.772 -0.0925 -0.0023 -0.2546
18614W        W35462  15.088   8.456  12.264 -0.1170 -0.2042  0.0647
18615W        W35463   7.467  12.351   1.556  0.1896 -0.1002 -0.0854
18616W        W35464  11.730  13.876   4.017 -0.0934  0.1371  0.0646
18617W        W35465   7.445  10.765  13.477 -0.0217  0.0823  0.2300
18618W        W35466   5.756   5.140  15.939  0.1438  0.1618 -0.0850
18619W        W35467   9.975  10.395  15.484  0.2913 -0.0438 -0.2301
18620W        W35468  12.339  17.362  12.726  0.1466  0.0305 -0.2169
18621W        W35469  14.736   1.795   1.830 -0.0138 -0.1702 -0.4049
18622W        W35470   4.492  12.603  11.628  0.2367 -0.2923  0.0056
18623W        W35471   4.837   4.803  14.036  0.1054 -0.1402 -0.2000
18624W        W35472   9.208  10.088  16.444 -0.1312  0.1297  0.0488
18625W        W35473  11.489  17.418  15.141  0.0063  0.3147  0.0291
18626W        W35474  11.772   8.460  16.099  0.2442  0.1177 -0.1408
18627W        W35475  16.666  11.513  15.471 -0.0696 -0.0139  0.3798
18628W        W35476   6.060   4.598  16.627 -0.1776 -0.1245 -0.0248
18629W        W35477   3.569   2.595  14.326 -0.1765 -0.2579  0.0104
18630W        W35478  10.563   0.452  14.832  0.0836  0.3469  0.2210
18631W        W35479   5.106   0.388  14.445  0.0626  0.3511 -0.2223
18632W        W35480   8.973   9.919  12.122  0.2426  0.0638  0.2020
18633W        W35481   7.238  11.502   3.033  0.2171 -0.1632 -0.0408
18634W        W35482   6.518   0.937  13.616  0.1795  0.1454 -0.1794
18635W        W35483  16.266   6.940  14.752 -0.4357 -0.0195 -0.1451
18636W        W35484   9.417   2.774   0.893  0.2212 -0.3264 -0.0398
18637W        W35485   8.263   3.404  14.081 -0.1897 -0.0601 -0.0036
18638W        W35486   2.090   6.804  13.863  0.3460 -0.0222  0.0879
18639W        W35487  10.488   2.942  13.013 -0.0481 -0.2936  0.0070
18640W        W35488  17.013   0.202   4.805  0.2215  0.0107 -0.2171
18641W        W35489   2.596   7.022  11.519  0.0946 -0.0025  0.2198
18642W        W35490  14.110   7.310  14.950  0.0787  0.3593  0.2294
18643W        W35491  12.290  16.880  15.476  0.0379 -0.2412 -0.0321
18644W        W35492  12.979   7.433   1.653  0.0384  0.3810 -0.0687
18645W        W35493  13.167  10.979   4.998 -0.1388 -0.1302 -0.1317
18646W        W35494   4.983  15.236  16.360  0.0468 -0.0597  0.1816
18647W        W35495   5.784  10.842  16.575 -0.0190  0.0935 -0.0021
18648W        W35496   9.731  11.290   3.005  0.3117 -0.1566 -0.1901
18649W        W35497   9.259  13.050   3.544 -0.2945 -0.7125 -0.0415
18650W        W35498   2.193  16.145  13.486 -0.2400  0.1296  0.1464
18651W        W35499   1.376  12.050   0.200 -0.2133  0.2359  0.1297
18652W        W35500  10.154   5.506  16.219 -0.2526 -0.1268  0.0139
18653W        W35501  10.425   2.360   4.340  0.0943 -0.1925  0.1506
18654W        W35502  10.421   4.032   5.343  0.0011 -0.1576 -0.3148
18655W        W35503   7.280  16.511  14.185  0.4993 -0.1093 -0.1614
18656W        W35504  14.932   3.764  15.831  0.1093 -0.0555  0.0864
18657W        W35505   8.141   6.828   2.851 -0.2919  0.0695 -0.1601
18658W        W35506  13.576   5.828  12.317  0.4142 -0.1978 -0.0275
18659W        W35507   5.865   2.924   1.163  0.2718 -0.0330 -0.1269
18660W        W35508   2.818  15.647   2.519 -0.1619 -0.5633  0.0238
18661W        W35509  14.458   7.077  14.084  0.0539  0.0912 -0.2234
18662W        W35510   6.802   6.568  14.542  0.1703 -0.2254 -0.0476
18663W        W35511   9.282  13.862  15.337  0.0199  0.0687  0.0124
18664W        W35512   1.883  17.490  12.603 -0.2901 -0.0939  0.1419
18665W        W35513   2.719  14.756   2.492  0.0374 -0.2471 -0.0707
18666W        W35514   8.647   7.979  14.097 -0.2281 -0.2577  0.2056
18667W        W35515  17.496  16.802   1.400 -0.2245 -0.0115 -0.1945
18668W        W35516   6.675  13.743  15.706  0.0189 -0.2290  0.0267
18669W        W35517   4.570  10.210  15.118 -0.2550 -0.2644 -0.1839
18670W        W35518  15.125   0.357   3.863 -0.0050 -0.2638  0.0382
18671W        W35519  16.704  15.466  15.674  0.4536  0.0276  0.1195
18672W        W35520   7.158   3.221   4.246  0.2979  0.1444 -0.0786
18673W        W35521   4.086   0.111  11.351  0.0037 -0.1728 -0.0243
18674W        W35522  14.785  12.312  14.572 -0.0982 -0.1614  0.1110
18675W        W35523  15.893   9.172   5.156  0.4156 -0.1573  0.0948
18676W        W35524   2.110   0.563  13.211 -0.1633  0.0183  0.0817
18677W        W35525   8.932  13.628  12.912 -0.0572 -0.4068 -0.3986
18678W        W35526   2.837  10.970  11.729 -0.0238  0.1725  0.0060
18679W        W35527   2.831   6.014   1.037 -0.2015 -0.0145 -0.0466
18680W        W35528  10.188  17.700   0.064 -0.1283 -0.2091  0.0987
18681W        W35529  13.045  11.051   0.250  0.0026  0.1782 -0.1111
18682W        W35530  10.499  13.797   1.900 -0.0198  0.1631  0.0901
18683W        W35531   7.858   7.506   3.439 -0.0564 -0.1016  0.2381
18684W        W35532   8.340  16.732   3.515  0.1788  0.0774 -0.4091
18685W        W35533   3.691  15.139  13.223  0.2216  0.0701 -0.3399
18686W        W35534   3.581  14.746   3.516 -0.2268 -0.0709 -0.1806
18687W        W35535   8.059   1.191  13.895  0.2610  0.0188  0.1464
18688W        W35536  14.723   1.605  13.370 -0.1359 -0.1547 -0.1380
18689W        W35537   5.064  12.459   2.029 -0.1898 -0.1487 -0.1403
18690W        W35538  17.375   8.198   5.341  0.1345  0.2532 -0.0107
18691W        W35539   2.405   4.737   2.976  0.1128 -0.1294  0.3561
18692W        W35540  17.405   2.597  11.912 -0.0471 -0.1957  0.1018
18693W        W35541  14.940  17.164   2.985 -0.0435 -0.1562 -0.1139
18694W        W35542  12.628   7.348   5.106 -0.1766 -0.2701  0.2560
18695W        W35543  14.611   0.473  14.158  0.1625  0.3761 -0.1002
18696W        W35544   2.935   5.477   4.794 -0.0028  0.2308  0.2598
18697W        W35545  14.863  11.425  11.047  0.3734  0.1972  0.1427
18698W        W35546  17.300   0.116  15.239  0.1741  0.0720  0.2629
18699W        W35547  13.835   1.172  15.030 -0.3061  0.1123 -0.0440
18700W        W35548  15.045   4.369   1.133 -0.3620  0.0668 -0.1791
18701W        W35549  14.267  12.446   3.678  0.1446  0.1462  0.1512
18702W        W35550   2.568   1.705  14.088  0.0480 -0.1250  0.0305
18703W        W35551  14.999   1.070   0.043  0.1227  0.2011  0.0596
18704W        W35552  12.915   0.733   3.903 -0.2108  0.2075 -0.1319
18705W        W35553   2.818  10.905   0.257 -0.2126 -0.0207 -0.1347
18706W        W35554  16.359  14.462   4.190  0.1685  0.1281 -0.2259
18707W        W35555  10.964   2.921   0.441  0.1709 -0.1373  0.0045
18708W        W35556   2.025   6.840  12.152  0.1471  0.0231 -0.0549
18709W        W35557   7.349   4.471  14.600  0.1428  0.0272  0.0373
18710W        W35558   8.658  13.580   2.048  0.0654  0.0844  0.2380
18711W        W35559  17.612   2.128   2.167 -0.2203 -0.1152  0.1043
18712W        W35560   6.887   6.864   4.252 -0.0819  0.0638  0.3795
18713W        W35561  17.606  14.805  15.144  0.0884  0.0748  0.0635
18714W        W35562   7.399   1.820  16.475  0.2051  0.0591  0.1765
18715W        W35563  16.016  17.644  14.564 -0.1315  0.1473 -0.0891
18716W        W35564  10.722   0.963   0.899 -0.0051 -0.3086  0.0652
18717W        W35565  14.145  14.090  13.407 -0.1083  0.2857  0.0592
18718W        W35566  10.067   4.081   5.048  0.4077 -0.0082  0.0702
18719W        W35567  12.228   4.283   3.755  0.0057  0.0425  0.0671
18720W        W35568   5.173  17.346  15.972 -0.4196 -0.1096 -0.0520
18721W        W35569  14.004  15.182  16.610 -0.0318 -0.1536  0.1687
18722W        W35570   8.186   5.746   2.243 -0.2309 -0.2717  0.2105
18723W        W35571  13.385  17.657  15.106 -0.0549 -0.1270  0.1668
18724W        W35572  11.168  12.553  13.593 -0.1591 -0.0013  0.0262
18725W        W35573  15.759   3.142   1.185  0.3581 -0.0496 -0.2818
18726W        W35574   6.352   7.672  10.896 -0.0173 -0.0362 -0.1614
18727W        W35575   9.057   1.584   0.454  0.0447 -0.0757  0.0154
18728W        W35576  16.712  15.016   0.106  0.2509 -0.1276 -0.0391
18729W        W35577  17.422   9.756   0.601 -0.1736 -0.3376 -0.4297
18730W        W35578   9.961  10.776   2.694  0.0274 -0.0446 -0.1074
18731W        W35579   7.835   1.012   4.526 -0.2296  0.0763  0.0526
18732W        W35580  10.873   3.444   0.198  0.4624  0.0553  0.1229
18733W        W35581  15.076   9.316   0.651  0.1104 -0.0813  0.1242
18734W        W35582   7.025   7.178  16.329  0.0136 -0.2264 -0.2290
18735W        W35583  13.533   6.709   1.614  0.0188  0.0353  0.1159
18736W        W35584   6.317  16.110   4.981  0.1751 -0.0336 -0.2307
18737W        W35585   2.354   9.832  15.645  0.4483 -0.0440  0.0481
18738W        W35586   6.302   2.634  12.645  0.1948  0.0038  0.0779
18739W        W35587   5.160  14.432   4.148  0.1889 -0.0851  0.0450
18740W        W35588  16.732   2.451   1.104  0.2443 -0.0337  0.2171
18741W        W35589  14.566   5.235  15.048 -0.4018 -0.0562 -0.0120
18742W        W35590   4.557   6.679  10.956  0.2792  0.1328 -0.0670
18743W        W35591   5.251   9.287   6.004 -0.1030  0.2056  0.0241
18744W        W35592   1.420   9.276   0.142  0.0024 -0.1199 -0.0742
18745W        W35593   6.426   2.630  16.609 -0.3551  0.2005 -0.2234
18746W        W35594   2.811   0.822  16.415  0.0760 -0.0168 -0.1477
18747W        W35595  15.262  12.587   2.712  0.0325 -0.2660  0.1586
18748W        W35596   4.109   9.329   4.225 -0.1207  0.3770  0.0737
18749W        W35597  11.163   3.549  12.366 -0.3971 -0.0353  0.1128
18750W        W35598  13.650  16.997   4.223  0.0629  0.0476  0.1202
18751W        W35599   3.452  11.332  12.882  0.1844 -0.1594  0.2502
18752W        W35600  10.539   5.448   2.969  0.3773 -0.0324  0.1327
18753W        W35601  17.485   0.132   1.073  0.0181 -0.1350  0.1643
18754W        W35602   8.438   3.010   2.385 -0.1185  0.0054 -0.0496
18755W        W35603  11.984   9.802  11.704  0.0204  0.0103  0.1614
18756W        W35604   0.821  15.109   0.888 -0.1423 -0.0428 -0.0504
18757W        W35605  16.365  12.366   5.127 -0.0744  0.1235  0.0152
18758W        W35606   9.875  14.563  13.563 -0.1104  0.1943 -0.1584
18759W        W35607   5.120  16.771  13.722  0.0203  0.3872  0.0122
18760W        W35608   4.306  11.065  10.792  0.0718 -0.1821  0.3807
18761W        W35609   6.800   4.105   1.064  0.0255 -0.1094 -0.0345
18762W        W35610   0.640  12.978  16.034  0.0500  0.0024 -0.3371
18763W        W35611   8.885   7.668  14.422 -0.1006  0.3869 -0.0381
18764W        W35612   6.594   1.390   5.677  0.1177  0.1586 -0.2091
18765W        W35613   6.147   6.088   4.391 -0.1267  0.0036 -0.1269
18766W        W35614  16.482  17.141  11.941 -0.1070 -0.0656  0.0075
18767W        W35615   9.510  11.980   5.030 -0.2031 -0.0616 -0.0155
18768W        W35616  10.918   7.880   3.774  0.0521 -0.0177 -0.1924
18769W        W35617   0.092   9.958   3.505 -0.2989 -0.2795  0.2327
18770W        W35618  16.976  10.906  14.121 -0.4608 -0.0925  0.1946
18771W        W35619   4.840   4.007   3.418 -0.1285 -0.3004  0.0173
18772W        W35620   1.255   7.001  12.930  0.1415 -0.1005 -0.0126
18773W        W35621   5.362   9.745   2.387  0.2642 -0.0288 -0.1104
18774W        W35622   7.649   5.805  13.288  0.1468 -0.1193  0.0865
18775W        W35623   3.705  11.781   4.770  0.2275 -0.0746 -0.3760
18776W        W35624   9.296   0.717   4.929  0.1135 -0.0642 -0.0388
18777W        W35625   8.369  12.771   0.498 -0.0015  0.0498  0.1030
18778W        W35626  17.418  13.060  12.807  0.0258  0.0187  0.0385
18779W        W35627  14.559   6.375  15.782 -0.0156 -0.0063  0.1570
18780W        W35628   5.694  11.191   5.121  0.1871  0.0476  0.2481
18781W        W35629  11.728   1.411   1.830  0.1345 -0.0690  0.0119
18782W        W35630  13.044   3.016   2.859 -0.3908  0.0127  0.0868
18783W        W35631   3.146   2.806  15.805 -0.0474  0.1467  0.3208
18784W        W35632   1.527   6.016   4.226  0.1631  0.1169  0.1414
18785W        W35633  13.656  15.598  16.654  0.1765  0.3311 -0.1146
18786W        W35634  12.339   2.456   2.636  0.1217  0.1325 -0.2471
18787W        W35635   6.785  10.457  11.948  0.2582  0.0172 -0.2313
18788W        W35636   1.019  17.411  12.099 -0.0677  0.0597  0.0691
18789W        W35637   4.151   5.522  13.224  0.1463  0.2956 -0.0497
18790W        W35638  14.263   7.459   3.323  0.1890  0.1344 -0.0276
18791W        W35639   4.073  13.218  13.729  0.2358 -0.3060 -0.2396
18792W        W35640  16.218   2.847  16.137  0.0235  0.2965 -0.0177
18793W        W35641  14.099   0.905  15.379  0.2712  0.1736  0.1757
18794W        W35642  15.588   9.621   3.627 -0.2066 -0.0766  0.1737
18795W        W35643   0.116   0.662   4.549 -0.0125 -0.0342  0.0189
18796W        W35644  12.023  10.866   2.356  0.3410  0.0901 -0.0566
18797W        W35645  10.980  12.895   1.733 -0.1177  0.2912 -0.3146
18798W        W35646  11.237   7.869   3.341 -0.0922  0.3253  0.0562
18799W        W35647   8.118  16.279  15.743  0.0151  0.2088 -0.3174
18800W        W35648  13.217   3.222   0.789  0.1936 -0.3253 -0.0429
18801W        W35649   5.433   5.609   3.906  0.0572  0.0419 -0.0293
18802W        W35650  13.493   7.046   0.342 -0.0535  0.2655 -0.1457
18803W        W35651  16.078  17.427   0.365  0.0756  0.0299 -0.0021
18804W        W35652   0.093  10.227  12.472  0.1461  0.3163 -0.0121
18805W        W35653  14.219  14.999  12.200 -0.3043  0.0490 -0.1978
18806W        W35654   8.995   9.132   2.320 -0.1502 -0.1251  0.0672
18807W        W35655   8.699  12.548  11.944 -0.1718 -0.0038 -0.4592
18808W        W35656  16.260   6.707  15.353  0.3604 -0.1705  0.1769
18809W        W35657  16.857  12.490   0.643 -0.0395 -0.0679 -0.1888
18810W        W35658   1.509  15.724   1.515 -0.2046  0.1477  0.1787
18811W        W35659  16.900  10.940   4.415  0.0650  0.0786  0.2280
18812W        W35660   4.094   3.934   4.642 -0.3129  0.1557 -0.0217
18813W        W35661  16.137   7.531  13.971  0.1945 -0.2200  0.0641
18814W        W35662   8.598   8.891   3.002  0.1500  0.1902 -0.0007
18815W        W35663  13.164  16.824  15.608  0.0164 -0.2789  0.1146
18816W        W35664   6.752   6.156  14.788  0.1407 -0.1594 -0.1025
18817W        W35665   0.753   4.377   4.919  0.2077 -0.2667  0.1011
18818W        W35666   3.127   7.610   3.827  0.0298  0.3134  0.4425
18819W        W35667  13.387   4.337   1.072  0.0621 -0.1795  0.2222
18820W        W35668  16.790   9.164  14.471  0.0059 -0.0870 -0.1965
18821W        W35669   0.171   9.298   1.538  0.1468  0.0844  0.1267
18822W        W35670   3.468  11.393   1.777 -0.0089 -0.3910  0.0670
18823W        W35671  14.034   2.772   0.072 -0.0954 -0.0169 -0.0339
18824W        W35672   5.838   3.681   2.273 -0.0810  0.0289 -0.2067
18825W        W35673   7.203   2.099   5.398 -0.4070 -0.1009  0.0106
18826W        W35674   1.258   0.364  11.963 -0.3147 -0.1693 -0.3664
18827W        W35675  13.432   6.199  12.568  0.2185  0.1778 -0.0234
18828W        W35676  17.560   9.262   4.501  0.3589 -0.0739  0.2861
18829W        W35677  17.346   7.073  13.992 -0.0877  0.3588 -0.1917
18830W        W35678  14.553   6.856  15.382  0.0869  0.1192  0.0223
18831W        W35679   7.334  12.026  13.795  0.0369 -0.3591 -0.0636
18832W        W35680  13.333   2.243  11.839 -0.1310 -0.3295  0.0255
18833W        W35681  12.001  13.807  16.232 -0.0716  0.1782 -0.0413
18834W        W35682   6.886   7.020   4.702  0.2897  0.0390  0.1104
18835W        W35683   1.685  13.369   3.773  0.0440  0.1463  0.2397
18836W        W35684  12.612   6.964   1.631  0.2666 -0.0504 -0.3939
18837W        W35685  16.465   2.381   1.830 -0.0588 -0.0699 -0.0271
18838W        W35686   7.154   5.546  15.555 -0.0132 -0.2531  0.1284
18839W        W35687   1.105  11.448   1.923 -0.0173  0.1475  0.0919
18840W        W35688   4.635  14.616   4.059  0.1279 -0.0050  0.1879
18841W        W35689   7.696   6.697  13.604 -0.1108 -0.3965 -0.0318
18842W        W35690  13.093   9.222  15.970 -0.0320  0.1265 -0.2449
18843W        W35691   1.505   9.548  14.569 -0.0984 -0.2092 -0.0296
18844W        W35692   4.284  10.196  12.891  0.1367  0.1964 -0.1858
18845W        W35693   3.971   6.611   2.411 -0.0247  0.1247  0.1035
18846W        W35694   8.656   2.553   2.994  0.0437  0.0478  0.0642
18847W        W35695  15.527  10.941   3.502 -0.1128 -0.0126  0.1077
18848W        W35696  15.097   8.623   5.273 -0.1220 -0.1632  0.0880
18849W        W35697  15.508   3.898   2.909  0.0641  0.2377 -0.2354
18850W        W35698  13.817  10.477   4.013  0.0151  0.0323 -0.0961
18851W        W35699  13.666  15.246  11.611 -0.0203 -0.1836 -0.1064
18852W        W35700   9.690  10.973   1.645 -0.0313 -0.3754  0.0141
18853W        W35701   0.266   5.140  16.435  0.1582 -0.4018 -0.2764
18854W        W35702   6.456  16.082  16.592  0.2229 -0.1262 -0.0361
18855W        W35703  16.396   8.209   0.808 -0.1721 -0.2662 -0.0537
18856W        W35704   2.088   8.941  15.562  0.1725 -0.2288 -0.1433
18857W        W35705  16.085   7.910   0.032  0.2862 -0.0191 -0.0329
18858W        W35706   3.234  11.539   3.553 -0.2429 -0.2535  0.0005
18859W        W35707   2.939  15.185   2.621  0.0504 -0.1072 -0.1050
18860W        W35708  16.349  13.286  15.991  0.0567 -0.3224 -0.0509
18861W        W35709  12.141   5.403   1.579  0.0614 -0.0403 -0.1130
18862W        W35710   8.049  13.155  16.042  0.1060  0.0821  0.0702
18863W        W35711   5.716   1.686   2.480 -0.0251 -0.1736  0.0075
18864W        W35712   6.430  12.088   6.227  0.0408  0.2128 -0.2874
18865W        W35713   5.446   5.641  11.643 -0.2383 -0.0369 -0.2652
18866W        W35714   6.885  16.935   0.047  0.3225  0.1899  0.0115
18867W        W35715  17.285   8.572   2.765 -0.0078 -0.3180 -0.1223
18868W        W35716  15.710   1.143   2.692 -0.3416  0.0140 -0.1206
18869W        W35717  10.664   5.356  14.361  0.0519 -0.2241 -0.2779
18870W        W35718   0.086   7.467  11.401 -0.0967 -0.1746 -0.3484
18871W        W35719   7.953  14.708   5.426  0.3123  0.4714 -0.0985
18872W        W35720   4.208   1.349   2.583 -0.4086 -0.2339  0.0237
18873W        W35721   2.768  11.376   0.447  0.0529  0.2089  0.1836
18874W        W35722  13.431   8.281  15.815  0.1160 -0.0925  0.1561
18875W        W35723  17.160  10.404  13.192  0.0890  0.0014  0.1212
18876W        W35724   8.415   7.376  14.089  0.1777 -0.3618  0.2621
18877W        W35725  15.022  10.658   0.879 -0.0519  0.0594 -0.1739
18878W        W35726   0.539   4.320   5.813  0.1044  0.1747  0.3984
18879W        W35727   8.323  13.531  14.344 -0.0455  0.0605 -0.2391
18880W        W35728   9.824  17.598  12.178  0.0574  0.0323  0.2374
18881W        W35729  11.622  11.824   1.622 -0.1351 -0.0846  0.0075
18882W        W35730  10.195  14.932  13.764 -0.2629 -0.1512  0.5007
18883W        W35731  16.001  11.692  16.241 -0.0055 -0.0101  0.1616
18884W        W35732   5.017  13.846   2.479 -0.1148 -0.1126 -0.2103
18885W        W35733  12.274   5.425   4.578  0.0492 -0.2671  0.0274
18886W        W35734   9.651   3.019   0.456  0.0006 -0.2607 -0.0068
18887W        W35735  13.761  16.177   1.935  0.2312 -0.0253 -0.1241
18888W        W35736  14.920  10.234  11.710 -0.1538 -0.1199 -0.4902
18889W        W35737  11.312   1.308  15.186  0.2129  0.1482 -0.1969
18890W        W35738  11.666  14.672   3.233  0.0424  0.1681 -0.0604
18891W        W35739  16.864  17.038   4.253  0.1722  0.2334 -0.1422
18892W        W35740  11.658   3.725   6.066  0.0007  0.4082 -0.3941
18893W        W35741  16.232  17.699  12.561 -0.2317  0.0764 -0.0187
18894W        W35742  15.915   8.271  11.533  0.2563 -0.2174 -0.0395
18895W        W35743  13.792  10.829  12.264 -0.3624  0.3821  0.0616
18896W        W35744   1.024   0.428   0.805  0.0265 -0.1614 -0.0722
18897W        W35745  15.412  16.584  15.283 -0.1384  0.1735  0.3045
18898W        W35746  15.081  13.030   1.844 -0.0350  0.5043  0.1149
18899W        W35747   9.381   4.255  14.788  0.2344 -0.2748  0.1807
18900W        W35748   1.232  17.191   0.231  0.1104 -0.1971  0.3227
18901W        W35749  12.130  10.169   0.948  0.2228  0.1757  0.2906
18902W        W35750   5.373   9.421  16.292 -0.0522  0.0783 -0.2034
18903W        W35751  14.160  16.215  13.572  0.2685 -0.1418 -0.1370
18904W        W35752   0.079   1.670  11.987  0.0159 -0.1737  0.0511
18905W        W35753  12.485   6.207  12.896  0.0500 -0.3509 -0.1711
18906W        W35754  10.710  11.955   4.189  0.0984 -0.2907 -0.1753
18907W        W35755   9.116  15.221  14.760 -0.0299  0.4086 -0.1943
18908W        W35756  10.135   2.675   0.446 -0.1338  0.0783  0.3028
18909W        W35757  15.232   1.997   2.757  0.0931 -0.2070  0.1802
18910W        W35758   6.425   5.905   2.999 -0.2201 -0.0048 -0.2685
18911W        W35759  10.343   1.061  12.604 -0.2786 -0.2191  0.0028
18912W        W35760   7.453   5.281   1.520  0.1573 -0.1603  0.3623
18913W        W35761   7.232  10.979  12.528 -0.2649 -0.0491  0.1258
18914W        W35762   9.963  11.121  14.126  0.2421 -0.0032  0.0408
18915W        W35763  11.027   0.971  14.387  0.3563  0.0781 -0.0528
18916W        W35764   5.641  12.520   1.902  0.1959  0.0858 -0.2008
18917W        W35765   2.065   4.240   1.865 -0.0961 -0.1387  0.0821
18918W        W35766   2.696   3.327  12.500 -0.3150 -0.0969  0.0086
18919W        W35767   4.755   4.037   3.959 -0.1828 -0.0173 -0.0090
18920W        W35768   1.104  14.857   1.897 -0.0190 -0.0028 -0.1909
18921W        W35769  16.444   3.076  15.388 -0.2349 -0.1927  0.1511
18922W        W35770  15.841   4.748  14.641  0.1186  0.0883  0.1180
18923W        W35771   4.209   9.467  15.138 -0.0246  0.0870 -0.0024
18924W        W35772   1.240  16.520  12.680  0.2257  0.2418 -0.0413
18925W        W35773  10.923   4.366  14.325  0.1931 -0.1930 -0.2852
18926W        W35774   4.027   0.261  14.539  0.2019 -0.2993 -0.0651
18927W        W35775  16.465   8.059   3.808 -0.1971  0.2260 -0.1114
18928W        W35776  12.490   5.343   0.787  0.1492  0.3552  0.0173
18929W        W35777  11.217   6.280  15.458  0.0222 -0.4428 -0.0820
18930W        W35778   7.881   4.196  16.199  0.4862 -0.0309 -0.2411
18931W        W35779  12.992   6.094  12.335 -0.0343 -0.0632  0.1559
18932W        W35780   2.672  11.468  13.897 -0.1270  0.0577  0.0449
18933W        W35781  10.604   7.745   4.186  0.1463 -0.0789 -0.2750
18934W        W35782   8.436   5.297  15.881 -0.1005 -0.3386  0.1338
18935W        W35783  10.400   1.176   3.229 -0.0195  0.2118  0.2803
18936W        W35784  15.608   6.842  13.000 -0.2092  0.1738  0.2409
18937W        W35785   6.226   3.851   4.896  0.0160 -0.0076  0.4580
18938W        W35786   5.476   6.089  12.606  0.1203  0.0323  0.2831
18939W        W35787   1.625   1.456  14.132 -0.0316  0.1408  0.0976
18940W        W35788   1.901   9.195  16.638 -0.2495 -0.0767 -0.1127
18941W        W35789   0.486   7.522   1.853 -0.0510  0.0220 -0.0845
18942W        W35790  12.811   9.554  12.616  0.0089  0.1272 -0.1019
18943W        W35791   2.792  15.797   0.711  0.1193 -0.0134  0.0164
18944W        W35792   2.370   6.954  15.801 -0.0377  0.2739  0.0529
18945W        W35793  15.553  11.807   3.591 -0.2642  0.1822  0.2396
18946W        W35794   0.183   6.249   3.501 -0.2571 -0.3307 -0.0197
18947W        W35795   7.388  12.986   3.899  0.2252  0.3625  0.2525
18948W        W35796   3.662   0.241  15.644 -0.1978 -0.4251 -0.0962
18949W        W35797  12.512   5.914  12.114  0.0418 -0.3248  0.0200
18950W        W35798  11.471  10.024   6.112 -0.2169  0.4423  0.1438
18951W        W35799   4.112  10.563  13.123  0.0635  0.0066  0.2119
18952W        W35800   4.198  14.230   4.079 -0.1928  0.2106 -0.2352
18953W        W35801   4.164  14.136   2.327 -0.2407  0.0556  0.0878
18954W        W35802   0.457   3.909   3.683 -0.0395 -0.1448  0.0490
18955W        W35803   3.614  11.223   1.266  0.0637  0.0165  0.0875
18956W        W35804   5.856  14.611  15.862  0.0646 -0.1128  0.3628
18957W        W35805  17.521   5.886  12.150 -0.0009  0.1012  0.1328
18958W        W35806   8.527  17.606   3.235  0.1128 -0.0675 -0.1931
18959W        W35807  13.622  16.145  16.546 -0.1917  0.2825 -0.2545
18960W        W35808  11.741   6.764  16.178 -0.0169 -0.0241 -0.1268
18961W        W35809   2.806  14.527   5.608 -0.3027 -0.2746  0.0151
18962W        W35810   7.897   2.544   4.411 -0.0897  0.4732 -0.0633
18963W        W35811   0.740   2.486   0.133 -0.0987  0.0824 -0.1112
18964W        W35812  12.474   8.618   3.967 -0.4157  0.3119 -0.0881
18965W        W35813  13.660  16.323   2.434 -0.3187 -0.1282  0.0019
18966W        W35814  16.693  12.191  11.717 -0.0006  0.0034  0.0965
18967W        W35815   2.322   2.654  12.621  0.0980 -0.0151 -0.0478
18968W        W35816   4.929   1.743   0.361  0.0763  0.0105  0.0624
18969W        W35817   5.262  17.526  14.829 -0.1249  0.0411  0.1042
18970W        W35818  13.839  13.042   0.436  0.0088 -0.1161  0.2178
18971W        W35819  10.013   9.320  13.099  0.2274 -0.0046 -0.1196
18972W        W35820   6.701  17.334   1.268  0.1202  0.1419  0.2074
18973W        W35821  13.132   7.758   3.743 -0.1242  0.0053 -0.0333
18974W        W35822   9.389  11.204   3.426 -0.0778  0.0878  0.2438
18975W        W35823  13.874   5.034  12.512  0.0882 -0.0574 -0.6435
18976W        W35824  12.940  12.537  14.582 -0.2842  0.1512 -0.0294
18977W        W35825  12.860   4.124   6.199 -0.2189  0.0684 -0.2736
18978W        W35826  11.471  12.509   0.882 -0.1698 -0.1615 -0.0742
18979W        W35827  12.701  13.132   5.299 -0.0101  0.1917  0.3080
18980W        W35828  10.930   5.582   3.243  0.0770 -0.0452  0.1409
18981W        W35829   3.124   4.085   0.514 -0.2191 -0.1863 -0.1277
18982W        W35830   1.548  15.845   3.686 -0.2532  0.1409  0.0235
18983W        W35831   1.909  11.602   1.007  0.0675 -0.0188  0.1605
18984W        W35832   6.436   8.256   3.639  0.1327 -0.4277 -0.0080
18985W        W35833   5.603   0.559  12.513  0.0374  0.2903  0.2343
18986W        W35834  14.887  16.104  11.890  0.0362  0.1361  0.3183
18987W        W35835  15.116  16.577  15.667  0.1360 -0.3911 -0.0744
18988W        W35836  10.932   7.700  12.825 -0.1447 -0.1048  0.0802
18989W        W35837  10.165   6.339   3.855  0.1392 -0.1943 -0.0394
18990W        W35838  12.823   5.591   4.811  0.1929  0.0696 -0.2271
18991W        W35839   5.484  10.064  15.083  0.4344  0.4528 -0.2406
18992W        W35840   9.146  10.046   2.122  0.1066 -0.1646 -0.2559
18993W        W35841  13.788  14.132  13.034  0.0408 -0.0200 -0.0542
18994W        W35842   7.547   6.763  12.785  0.0079 -0.0059 -0.0531
18995W        W35843   0.923   7.719  16.029 -0.0832 -0.1346 -0.0663
18996W        W35844  13.090  17.474  15.789 -0.1649 -0.1605  0.0841
18997W        W35845  15.771   7.639  13.682  0.0034  0.0844 -0.0634
18998W        W35846   8.891   7.561  13.935 -0.2669 -0.0261  0.0638
18999W        W35847  15.725   4.886  12.810 -0.0803  0.0051 -0.1388
19000W        W35848   4.551   4.459   0.300 -0.2723  0.0350  0.2054
19001W        W35849  12.696   7.295   5.647 -0.1531  0.0608 -0.0777
19002W        W35850   9.886  14.417   2.297 -0.1261 -0.0262  0.0734
19003W        W35851   3.270   5.451   2.940 -0.3410  0.0139  0.0429
19004W        W35852  13.301   9.750  13.876  0.3989 -0.0066 -0.0356
19005W        W35853  12.029   8.853  11.144 -0.2094  0.1227 -0.1560
19006W        W35854  15.272   8.904  12.039  0.0544  0.0866  0.0301
19007W        W35855  12.618  13.130  11.982 -0.2356 -0.1762  0.0912
19008W        W35856   8.491   7.832   0.256 -0.2693  0.2389  0.0011
19009W        W35857  15.515   6.052   1.200 -0.0619  0.1041  0.1866
19010W        W35858   1.625   1.334   3.823 -0.0056 -0.0102  0.2219
19011W        W35859   2.314   8.969   1.239 -0.0841  0.1694 -0.1639
19012W        W35860  13.998   6.858  14.045  0.0121 -0.0402  0.1275
19013W        W35861  16.462   7.617   3.959 -0.1298  0.0690  0.0730
19014W        W35862   1.434   7.195  11.492  0.0974  0.0525 -0.3174
19015W        W35863   6.945  13.267   0.283 -0.0764 -0.0925  0.2809
19016W        W35864   5.790   8.885   2.817  0.0588  0.0372 -0.0545
19017W        W35865   1.234   2.295  14.745 -0.2973  0.0690 -0.1565
19018W        W35866   7.689  14.875   0.013 -0.0351  0.0056  0.2036
19019W        W35867  10.870  10.112   2.567 -0.1990  0.1722 -0.3589
19020W        W35868   1.093  16.524   3.049  0.0276 -0.0998  0.0278
19021W        W35869   9.862  13.744   2.564 -0.0037  0.1315  0.2663
19022W        W35870  12.911   9.066   4.690  0.1125 -0.2734  0.0606
19023W        W35871   6.849  12.808   4.794 -0.2382  0.1188 -0.0286
19024W        W35872   8.773  10.276  13.682  0.0026  0.2047 -0.0976
19025W        W35873  15.127   3.873   3.273  0.0222 -0.1931  0.1321
19026W        W35874  17.403   0.137  15.769 -0.0242  0.2354  0.2479
19027W        W35875   9.006  14.096  11.797  0.1172  0.4106 -0.0118
19028W        W35876  10.639   9.674  15.139  0.1031  0.1959 -0.4346
19029W        W35877  12.510   8.249  12.166  0.0358 -0.0840 -0.0110
19030W        W35878  11.857   2.187  10.989 -0.0475 -0.4025  0.2205
19031W        W35879  15.212   0.955  15.705  0.0930 -0.1354 -0.3431
19032W        W35880   8.539  10.220   1.017  0.2703 -0.0497 -0.0762
19033W        W35881   0.181   0.183  15.502  0.1880 -0.1182 -0.1533
19034W        W35882   7.806   1.793   4.625 -0.0243  0.0336 -0.2373
19035W        W35883  12.703  13.788   4.106  0.1691  0.0492  0.1149
19036W        W35884  12.945   3.990   0.708  0.0245  0.0014  0.2701
19037W        W35885   3.133  12.291  14.448 -0.1011  0.0409  0.1698
19038W        W35886   7.013  14.235   3.582  0.0462 -0.0570  0.0085
19039W        W35887   7.932  16.061   2.459  0.0117  0.0670 -0.0002
19040W        W35888   7.369   9.093  12.373 -0.1035 -0.0057  0.0791
19041W        W35889  14.014   7.551  10.810 -0.2468 -0.0575  0.3297
19042W        W35890   3.532  13.265   0.064 -0.2846  0.3717  0.0877
19043W        W35891  13.448  16.305  12.203  0.3132 -0.3098 -0.2224
19044W        W35892   7.849  10.491   2.669 -0.0314  0.0495  0.0781
19045W        W35893   0.792   8.833   3.480 -0.3132  0.1957  0.2273
19046W        W35894   7.083   6.920   0.089 -0.0951  0.0650 -0.2004
19047W        W35895   5.990  17.014  16.419  0.1122 -0.0542 -0.0659
19048W        W35896  16.167  11.197   1.634  0.1392 -0.0539  0.2091
19049W        W35897   3.971   5.123   5.077 -0.0031 -0.0503  0.1393
19050W        W35898  16.435   6.065   4.483  0.1693 -0.2378  0.0964
19051W        W35899   4.845  10.533   4.414  0.1108 -0.2840 -0.2236
19052W        W35900  13.212   4.804  13.722  0.0442  0.0859 -0.2521
19053W        W35901   9.381   0.973  12.556 -0.0417  0.2453  0.0632
19054W        W35902  11.489   2.733  13.038 -0.2699  0.0574  0.2397
19055W        W35903  13.218  14.248  15.867  0.3060  0.5512  0.2365
19056W        W35904  15.373   6.855  16.007 -0.0822  0.3050 -0.0399
19057W        W35905   4.510   1.422   2.994 -0.3050  0.1034  0.1312
19058W        W35906  14.847  14.953   4.778 -0.0712 -0.0962 -0.2244
19059W        W35907  15.544  15.065   5.658  0.1369  0.0047 -0.2107
19060W        W35908   7.990  11.979   2.556  0.1803 -0.1816 -0.0759
19061W        W35909  10.274   9.317   0.783  0.2359  0.1791  0.0099
19062W        W35910  15.510   4.692   4.991  0.0229  0.1102 -0.1329
19063W        W35911   1.409   6.748  14.746  0.1508 -0.0964 -0.0636
19064W        W35912   1.812  12.496   3.467  0.1960 -0.0063 -0.0321
19065W        W35913   4.100  17.044   4.167  0.0436 -0.1176  0.2208
19066W        W35914   8.506   9.192   0.615 -0.0989  0.0636 -0.1513
19067W        W35915   0.371   8.081  15.606  0.0663 -0.0350  0.3740
19068W        W35916  12.978  13.187  13.820 -0.0100  0.2495  0.0048
19069W        W35917  15.129  13.974   1.748 -0.0513  0.1367 -0.1092
19070W        W35918   2.805   7.086  16.045 -0.1485 -0.1755 -0.0236
19071W        W35919  11.835   4.113   0.568 -0.1600 -0.1048  0.0318
19072W        W35920  13.249   4.320  11.803  0.0723 -0.0781 -0.0315
19073W        W35921   6.731  14.760   0.587 -0.0373  0.1853 -0.0257
19074W        W35922   9.628  12.221  15.602 -0.1228 -0.0528  0.2755
19075W        W35923  17.173  13.953  15.725  0.0821  0.1348  0.1155
19076W        W35924   6.700  12.007  16.669 -0.1463 -0.1029 -0.1701
19077W        W35925  17.202  15.566  16.672 -0.0524  0.2232  0.0183
19078W        W35926  10.612  11.293   1.219 -0.1617  0.1058 -0.0729
19079W        W35927   3.713   0.196   4.630 -0.1099  0.1817  0.2081
19080W        W35928   4.421  16.777   1.533  0.0210 -0.5256 -0.0940
19081W        W35929   4.674  14.293   0.931 -0.2064 -0.0670 -0.1660
19082W        W35930  15.665   0.773   3.607  0.1393  0.1520  0.1012
19083W        W35931   7.125   5.691  13.227  0.1480  0.0333  0.2416
19084W        W35932   2.506  14.538  13.257 -0.1938 -0.0925  0.1678
19085W        W35933   5.073  12.720  11.613 -0.0760  0.1231  0.2585
19086W        W35934  11.751  12.425   0.457  0.1016  0.0532 -0.1554
19087W        W35935   9.320   9.957  14.344  0.1284 -0.0739  0.0133
19088W        W35936  17.033   7.407  14.304 -0.1104 -0.1981  0.4223
19089W        W35937  10.972  10.077  13.902  0.1910 -0.0210 -0.2352
19090W        W35938  12.931   1.308   1.035  0.3444  0.0415 -0.0574
19091W        W35939   7.986  14.465  16.446 -0.0827 -0.2641  0.2229
19092W        W35940  15.893   1.192   3.568 -0.2051 -0.2495  0.0427
19093W        W35941  11.463   5.226  13.045  0.0564  0.0961 -0.3049
19094W        W35942   8.073  17.222   5.243 -0.1326 -0.0670  0.0327
19095W        W35943   3.210   2.917  12.229  0.0009 -0.1965 -0.0324
19096W        W35944   8.545   5.709   3.160 -0.0869 -0.2885 -0.0816
19097W        W35945   1.195   6.471   2.804  0.0900  0.2580  0.1174
19098W        W35946   8.301   1.195  15.531  0.3130  0.5303 -0.1694
19099W        W35947   8.028  11.813  13.348  0.0065  0.0258 -0.3039
19100W        W35948   6.289   7.537   3.378  0.0897 -0.0565  0.0220
19101W        W35949   6.696  17.264  14.744  0.1008 -0.1801  0.2930
19102W        W35950   3.213  10.081   3.764  0.1342 -0.0830 -0.1803
19103W        W35951   0.184  17.289   5.376  0.0752  0.0085 -0.5375
19104W        W35952  11.257  15.163   2.492 -0.0771  0.3171  0.1078
19105W        W35953   6.517   9.262   1.550  0.1867 -0.0671 -0.0130
19106W        W35954   5.893   1.915   2.024  0.0313 -0.2327  0.0961
19107W        W35955   2.317   5.783   1.751  0.2104  0.0425 -0.1218
19108W        W35956   4.575  10.607  11.682 -0.1810  0.0665 -0.1744
19109W        W35957   6.197   2.185  12.980  0.3898  0.1418 -0.0497
19110W        W35958  14.226  14.076  12.097 -0.0232 -0.0368 -0.1753
19111W        W35959   9.322  14.737  15.718  0.3014  0.0872  0.2838
19112W        W35960   2.727  11.739   2.189  0.1413  0.2104 -0.0333
19113W        W35961   5.027  13.887  15.944  0.1047  0.3294 -0.0152
19114W        W35962  16.462   5.860   1.511  0.0149 -0.0019 -0.0422
19115W        W35963   9.485  16.138   2.535  0.0970  0.0367  0.0723
19116W        W35964   0.867   1.267  11.728  0.0980  0.1856  0.0472
19117W        W35965   2.921  14.819  12.530 -0.0317  0.0294 -0.1950
19118W        W35966   4.089  16.062  12.041  0.0613 -0.1877  0.2120
19119W        W35967  12.218   3.366  14.172  0.2467 -0.1826 -0.1127
19120W        W35968  14.683   1.929  12.870 -0.0673 -0.0990 -0.1372
19121W        W35969   5.013  13.610   5.449  0.0033 -0.2055 -0.2261
19122W        W35970  16.499   0.046   2.582 -0.1118  0.0945  0.1676
19123W        W35971  12.369  13.530  16.546  0.3154  0.0959  0.1072
19124W        W35972   0.756   4.070   0.945 -0.1807 -0.1807 -0.3733
19125W        W35973   0.438  16.635  12.131 -0.1244 -0.1583  0.2775
19126W        W35974   2.966   6.037  12.337 -0.3125  0.1598 -0.1384
19127W        W35975   6.067   9.748  14.563 -0.1213  0.0080 -0.4210
19128W        W35976  12.587  10.033  15.581 -0.3389 -0.0197 -0.0826
19129W        W35977  14.488   5.715   1.884 -0.2033 -0.1204  0.2708
19130W        W35978   1.785  11.227  10.027  0.1330  0.0739  0.0524
19131W        W35979   4.357  12.451  12.057 -0.0882 -0.1004  0.0429
19132W        W35980   9.704   7.308  10.704  0.0061 -0.1078 -0.1012
19133W        W35981   3.024   2.105  12.973 -0.1112  0.0426 -0.1502
19134W        W35982   1.806  15.364   4.314  0.1306 -0.1777 -0.0741
19135W        W35983  15.938   6.076   0.197  0.1153  0.2511 -0.1764
19136W        W35984  11.802   5.569  13.289  0.0144 -0.1115  0.0027
19137W        W35985   1.494  17.009   4.621 -0.0455  0.0791  0.1083
19138W        W35986  10.787   1.540   4.104  0.1975  0.1976  0.0153
19139W        W35987  15.213  13.865  12.085  0.2284  0.1036  0.0171
19140W        W35988   5.095  14.853   4.823  0.0769 -0.1487  0.1439
19141W        W35989   7.506   9.101   0.750 -0.0063 -0.0987  0.2182
19142W        W35990   3.492   4.556   3.235  0.0873 -0.3570 -0.1803
19143W        W35991   0.195   4.902  15.143 -0.2147 -0.0008  0.0730
19144W        W35992   1.423   2.382  13.427  0.0243  0.1082 -0.2036
19145W        W35993   1.558  13.500  14.825  0.2412  0.1864  0.1398
19146W        W35994  17.696   8.260   2.824  0.2082 -0.3880  0.0409
19147W        W35995  16.471   5.497   6.101 -0.0613  0.2543 -0.1620
19148W        W35996   7.666  11.561  14.335 -0.1482 -0.3602  0.0928
19149W        W35997   6.725  14.172  16.055  0.1863  0.0707 -0.0681
19150W        W35998   3.435  10.965  13.513 -0.0252 -0.1429 -0.2155
19151W        W35999  16.399  14.457  15.044  0.0512 -0.0743 -0.0594
19152W        W36000   2.991  13.402  16.670 -0.2329 -0.2131 -0.1396
19153W        W36001   8.008   3.241   3.183  0.0981 -0.1694  0.0338
19154W        W36002   3.730   8.107   3.408  0.0292 -0.3146 -0.2177
19155W        W36003   3.136   3.493   0.973 -0.3110  0.0479 -0.2285
19156W        W36004   7.179   7.964   1.090 -0.2539  0.0257  0.2121
19157W        W36005   5.323   8.939  15.894 -0.0271 -0.0678 -0.0629
19158W        W36006   0.151   1.769   6.031  0.1494  0.2633  0.2247
19159W        W36007  15.904  15.496   4.192  0.0326  0.0221  0.2132
19160W        W36008   6.255   5.300  12.951  0.1330 -0.1234  0.2359
19161W        W36009  17.117   6.912   2.894 -0.0407 -0.0475  0.2888
19162W        W36010  11.996   6.571   3.038 -0.2376  0.0021 -0.0914
19163W        W36011   1.565  14.635  12.694 -0.2496 -0.2962 -0.0043
19164W        W36012   1.743  14.454  12.245 -0.1988 -0.0635 -0.1133
19165W        W36013  17.315  12.626  12.999 -0.0865 -0.0378 -0.1611
19166W        W36014  13.089  17.532   4.427  0.2414  0.2161 -0.0785
19167W        W36015   9.735   1.263  11.958 -0.1279  0.0807  0.0764
19168W        W36016   1.908   2.783   5.339 -0.1121  0.1019 -0.1962
19169W        W36017  15.822   7.565   0.750 -0.0773 -0.2993 -0.1213
19170W        W36018  17.260   5.039   5.467  0.0007  0.0085 -0.1926
19171W        W36019  17.126  10.531   3.914 -0.1038  0.0427  0.1689
19172W        W36020   1.960  13.445  15.098 -0.0463  0.0176 -0.1936
19173W        W36021  17.570   9.928  16.370  0.1978 -0.0379 -0.0344
19174W        W36022  15.666  13.156   0.877 -0.1755  0.0217  0.1745
19175W        W36023  13.549  12.458   4.182  0.0717 -0.0756  0.0122
19176W        W36024  17.581   1.600   4.272 -0.0982 -0.0737 -0.3163
19177W        W36025   7.816  13.174   3.920 -0.0913  0.0974  0.1038
19178W        W36026  16.847   1.671  14.836  0.4851 -0.0029  0.2140
19179W        W36027   0.549  10.239   3.521 -0.1542 -0.1817  0.2230
19180W        W36028  15.668  14.272   4.730  0.0830  0.0261  0.3065
19181W        W36029  15.685  15.232  13.540  0.0094  0.1059  0.2833
19182W        W36030   3.613  14.460  14.909  0.0224  0.2177  0.0136
19183W        W36031   2.695  15.095   0.711  0.3010 -0.3357 -0.2445
19184W        W36032   0.333   2.725   1.453 -0.1684  0.0788  0.1359
19185W        W36033   3.479  17.527  14.698  0.2742  0.0856 -0.3044
19186W        W36034  14.280   4.082   1.413  0.1365 -0.1637 -0.0323
19187W        W36035  14.637  15.613  13.934 -0.0898 -0.3032  0.0311
19188W        W36036   1.212   1.870  11.397  0.1242 -0.1086 -0.2041
19189W        W36037   2.699   7.295  15.632  0.2291 -0.1132 -0.1789
19190W        W36038   6.548   6.587   1.773 -0.0899 -0.0109  0.0074
19191W        W36039  16.545   2.994  14.814  0.0137  0.0552  0.3217
19192W        W36040  11.993  14.233   3.156  0.0297  0.2777  0.0714
19193W        W36041  14.955   7.357   1.276  0.1256 -0.1867 -0.4370
19194W        W36042  16.613   3.657  16.384 -0.0383  0.0210 -0.2025
19195W        W36043   2.742   4.327   0.665  0.2219 -0.0393 -0.0306
19196W        W36044   6.942   3.589   1.210  0.1966  0.0175  0.1552
19197W        W36045   8.979  10.575   4.305 -0.0677  0.0406  0.1009
19198W        W36046  15.591  11.496  16.072  0.2167 -0.2932  0.2221
19199W        W36047   1.083   9.411  12.433 -0.1726  0.0019  0.1412
19200W        W36048   7.496  10.082  15.877  0.1467  0.1645 -0.2443
19201W        W36049   4.772   2.006   5.436 -0.3204 -0.1303  0.2070
19202W        W36050   2.642   0.656  16.016 -0.0290  0.0699 -0.3253
19203W        W36051  17.522   9.318   1.148 -0.1222 -0.0369  0.2754
19204W        W36052  10.021   2.582   2.656 -0.1948 -0.3008 -0.1035
19205W        W36053   5.933   0.079   0.815  0.0207 -0.2985  0.0895
19206W        W36054   5.466   6.231  14.560 -0.0236  0.5153  0.3069
19207W        W36055  11.354   3.317   3.453  0.0290  0.3491 -0.0676
19208W        W36056   0.899  12.567  15.063  0.0892  0.0037  0.0458
19209W        W36057  12.435   7.281  12.813  0.0231  0.2646  0.2275
19210W        W36058   0.469   2.105   0.317 -0.2592  0.0924  0.3406
19211W        W36059   8.210  13.002   1.301 -0.1994 -0.0155 -0.1700
19212W        W36060   2.398   9.571   5.046 -0.2172 -0.1241 -0.1564
19213W        W36061   6.055  11.143   4.694  0.1707  0.1485 -0.2509
19214W        W36062  12.211  14.530  12.425 -0.1910 -0.0774 -0.1355
19215W        W36063   1.572   2.086  15.992  0.0474  0.1630 -0.1509
19216W        W36064  17.574   4.835   1.673 -0.0110 -0.0119  0.0258
19217W        W36065   4.178  11.121  15.453  0.1071  0.3189 -0.0943
19218W        W36066  11.119  13.082  13.481 -0.3285 -0.0411 -0.0715
19219W        W36067   3.060   3.300  11.588 -0.0358 -0.1215  0.2274
19220W        W36068  11.571  12.335  13.818  0.0580  0.0231  0.1648
19221W        W36069   6.049   4.012   5.388 -0.0770  0.2452 -0.0516
19222W        W36070  14.675   5.945  15.558  0.1023  0.2025 -0.1346
19223W        W36071   3.655  10.048  12.353 -0.0480 -0.0576  0.1216
19224W        W36072   9.769  16.552  13.062  0.0112 -0.0817  0.0940
19225W        W36073   8.315   8.858   2.437  0.1710  0.0005 -0.0507
19226W        W36074   6.254  14.672   4.057 -0.2785 -0.0816 -0.1621
19227W        W36075  16.019  11.901  13.446  0.3084  0.1003 -0.0636
19228W        W36076   9.607  15.317   0.981  0.1803 -0.1900 -0.1600
19229W        W36077   0.916   3.719   4.322  0.0627  0.0826 -0.1140
19230W        W36078   8.561   9.959   1.921  0.1897 -0.0093  0.3865
19231W        W36079  16.619  16.243  15.659  0.0563  0.2358 -0.0349
19232W        W36080   5.476   8.929   0.870 -0.2525  0.0993  0.0296
19233W        W36081  11.256   5.869  16.190 -0.0108  0.0279  0.1057
19234W        W36082   5.722   1.760  10.669  0.1744 -0.1004 -0.0822
19235W        W36083  14.169   5.629   3.573  0.1361  0.0258  0.0096
19236W        W36084   2.317  17.177  16.564  0.1226 -0.1621  0.0288
19237W        W36085   1.405   2.580  15.943  0.1359 -0.1480  0.1569
19238W        W36086   7.872   1.238  15.961 -0.1421  0.0968 -0.1322
19239W        W36087  11.748  16.680  14.723  0.1033  0.1419  0.1028
19240W        W36088  14.094   7.738  14.651 -0.2447  0.2245  0.0974
19241W        W36089  12.296  10.192  12.196  0.1772 -0.0758  0.3384
19242W        W36090   9.192   2.744  14.558  0.1680 -0.2621 -0.2358
19243W        W36091  17.505   0.555  10.725 -0.1319  0.2460 -0.1563
19244W        W36092   6.532  12.873  11.461  0.2221 -0.0330 -0.1505
19245W        W36093   9.404   4.514  11.721 -0.3248  0.1763 -0.1553
19246W        W36094  14.985  13.574   4.905  0.0084 -0.2476 -0.0534
19247W        W36095  12.881  13.757   6.097 -0.1490  0.1325  0.0544
19248W        W36096   3.658  10.539  15.289 -0.0704 -0.0454 -0.0278
19249W        W36097  14.683  15.732   1.924  0.0916 -0.0510  0.1044
19250W        W36098   2.762   9.888   1.330  0.1002  0.1269  0.0014
19251W        W36099   6.025  14.979   4.361  0.0438 -0.0519 -0.1948
19252W        W36100   7.763  13.145   5.209 -0.1000 -0.1118  0.0566
19253W        W36101   7.976   2.918  14.213 -0.0871  0.1068 -0.0522
19254W        W36102  10.530   0.632  11.345  0.0082 -0.1291  0.1530
19255W        W36103   6.322   0.619  14.068 -0.1494  0.1800 -0.1331
19256W        W36104   1.662   3.389  12.548 -0.3071  0.0276 -0.1358
19257W        W36105  10.659  15.502  13.112  0.0627 -0.1227 -0.1263
19258W        W36106  17.358   8.693   4.022  0.0391  0.2271  0.0176
19259W        W36107   6.728   3.699   1.863 -0.1040  0.1552 -0.1754
19260W        W36108   9.766   1.900   0.898  0.0818 -0.2423 -0.1766
19261W        W36109  16.411   5.550  13.450  0.0859 -0.1487 -0.0969
19262W        W36110   6.736   7.740  13.542  0.4666  0.0332  0.0730
19263W        W36111   3.714  10.499   2.573 -0.0463 -0.0248  0.2059
19264W        W36112   2.267   2.067   3.538  0.0568 -0.0887 -0.1009
19265W        W36113   7.007   0.553   2.173  0.1052  0.0022 -0.0421
19266W        W36114   8.280  15.039  15.691 -0.2529 -0.2688 -0.0089
19267W        W36115   1.739   3.829   1.727 -0.0967  0.3378 -0.1456
19268W        W36116  11.682   4.408  16.220 -0.1785  0.2033  0.1671
19269W        W36117  15.099   7.870  13.126  0.1006 -0.1808 -0.2383
19270W        W36118  16.668   3.880  12.095  0.3506  0.0945  0.0849
19271W        W36119   7.806   3.743  15.246 -0.1769  0.2600  0.3312
19272W        W36120   7.108   8.046   3.493 -0.0669 -0.0905  0.1668
19273W        W36121  14.849   9.329   3.121  0.0333 -0.3062  0.1523
19274W        W36122  12.998  16.954  13.413 -0.0904  0.1855 -0.0158
19275W        W36123   3.497  14.274  11.679 -0.1216 -0.0262 -0.0058
19276W        W36124   0.328  12.455   2.491 -0.2177 -0.4152  0.1203
19277W        W36125   3.285  16.422   2.341  0.2369  0.1390  0.1065
19278W        W36126  10.314   0.897   3.783 -0.0150  0.4318 -0.0834
19279W        W36127   8.469   4.796  15.768 -0.0941 -0.1090  0.1813
19280W        W36128   1.653  15.840   3.158  0.0819 -0.0758  0.0778
19281W        W36129  10.239   2.217   0.772 -0.1773 -0.0033  0.0662
19282W        W36130   2.990   9.034   4.781  0.1886  0.2704  0.3311
19283W        W36131   0.684  17.094  13.324  0.0764  0.0037  0.1806
19284W        W36132  17.257   2.248   2.760 -0.0211 -0.0783 -0.3657
19285W        W36133  17.369  13.063  11.304 -0.0206 -0.2009 -0.3505
19286W        W36134  11.445  17.598  11.861 -0.2283 -0.0928 -0.3121
19287W        W36135   6.563   4.610  14.079  0.1054 -0.1890 -0.1252
19288W        W36136   1.335   9.357   3.003 -0.0882 -0.0132  0.0429
19289W        W36137  14.408   3.951  13.515 -0.1333  0.1043  0.0888
19290W        W36138  13.827  16.277  15.680  0.3725  0.0689  0.1529
19291W        W36139   3.399  14.014  14.948 -0.2799  0.1889  0.2127
19292W        W36140   4.008   4.581   4.998  0.0074 -0.1208  0.1524
19293W        W36141   3.490   7.688  15.980  0.0877 -0.2094  0.0176
19294W        W36142   6.968  16.075  14.046  0.0101  0.0874  0.0920
19295W        W36143   4.113   9.200   2.668  0.0694  0.0552 -0.0246
19296W        W36144  17.186  16.507   1.188 -0.1701 -0.0635  0.0414
19297W        W36145   5.324  15.113  12.464 -0.0268 -0.1906 -0.1284
19298W        W36146  17.001   2.469   1.523  0.0374 -0.0351  0.0497
19299W        W36147   1.069   3.273  11.846  0.0136  0.0408  0.1879
19300W        W36148  11.510  16.957  14.314  0.1435  0.0109  0.0876
19301W        W36149  14.541  10.979   0.732 -0.2931  0.1361  0.1838
19302W        W36150  12.048   7.196  11.825 -0.2323  0.2703 -0.0457
19303W        W36151  12.318   4.334   2.266 -0.1746 -0.0825  0.2544
19304W        W36152   2.586   5.941   2.627  0.1133  0.0068 -0.4516
19305W        W36153  11.154  14.902   3.362  0.2226 -0.0842  0.0603
19306W        W36154  11.531  14.666  11.909  0.0248 -0.1230 -0.1878
19307W        W36155   3.790   6.476  15.039 -0.0744 -0.0527 -0.1254
19308W        W36156   1.101   0.269  13.968 -0.2464 -0.0343 -0.1329
19309W        W36157  11.051   0.764  16.586 -0.0029  0.0006 -0.1210
19310W        W36158   8.068  12.068   0.394  0.3286 -0.0882  0.0162
19311W        W36159   7.340  11.088   4.595 -0.0221 -0.0627  0.1497
19312W        W36160   8.451   8.256   2.069  0.2048 -0.2190 -0.0019
19313W        W36161  14.567   7.005   1.133  0.1100  0.0483  0.2399
19314W        W36162   2.585  10.106   3.348 -0.0195 -0.3299  0.1372
19315W        W36163  13.228  14.845  14.123  0.1531 -0.0251 -0.1356
19316W        W36164  16.639  14.234  16.620 -0.1058  0.1870  0.0092
19317W        W36165   8.078  12.262  12.008 -0.1195 -0.2657  0.3571
19318W        W36166   2.950  11.149  16.473  0.1500 -0.1694 -0.1530
19319W        W36167  11.431   9.161  16.597  0.2114  0.0262 -0.2165
19320W        W36168   4.822  12.580  12.002  0.0593  0.1162 -0.2657
19321W        W36169  14.276  16.423  15.901 -0.0775 -0.2100  0.1262
19322W        W36170  14.438   2.377  15.873 -0.2368  0.0335 -0.0135
19323W        W36171  14.712   5.406   4.842  0.4264  0.2749  0.0633
19324W        W36172   1.549  12.893  16.398 -0.1554 -0.0232 -0.1793
19325W        W36173   5.646   4.299  14.644 -0.3052 -0.1976 -0.1285
19326W        W36174  13.286   5.619  15.262  0.0276 -0.0772 -0.3997
19327W        W36175  12.942   6.007  14.143 -0.1520  0.1708  0.0826
19328W        W36176  17.374   0.261   2.497  0.1546  0.3299  0.2429
19329W        W36177   6.006   2.227  10.892 -0.0309  0.0331  0.2159
19330W        W36178  17.149   9.248  14.029  0.0005  0.1610  0.3540
19331W        W36179   8.143   0.058  14.352  0.0227  0.3159 -0.1468
19332W        W36180  13.768   3.182  12.609 -0.3280  0.0108  0.2934
19333W        W36181   5.531  11.541   0.541  0.1687 -0.0017 -0.1830
19334W        W36182   7.331   1.148  15.558 -0.1142  0.1366  0.0544
19335W        W36183   5.078  10.698  13.026  0.0235 -0.0074 -0.0512
19336W        W36184   4.751   4.091   4.660  0.1271 -0.0666  0.2765
19337W        W36185   0.197   4.837   0.904  0.1658 -0.2785  0.5559
19338W        W36186  14.526  10.244  13.489  0.1375 -0.2298 -0.1081
19339W        W36187   4.062   0.663   3.576 -0.2062 -0.1031 -0.0085
19340W        W36188   7.597   6.992   0.267  0.0780 -0.2284  0.1539
19341W        W36189  12.726  16.804   4.547  0.0375 -0.0224 -0.0311
19342W        W36190   1.539   0.012  12.226 -0.3531 -0.1308 -0.1739
19343W        W36191   0.952   7.807  14.379 -0.0689  0.1908 -0.1263
19344W        W36192  16.863  11.191   1.024 -0.0175  0.1550 -0.1288
19345W        W36193   2.381   7.502  15.980 -0.2188  0.0393  0.1497
19346W        W36194   7.196   0.474   2.701  0.4259  0.0172 -0.0938
19347W        W36195  15.648  12.361  11.486 -0.1279 -0.0213  0.0209
19348W        W36196  13.513  15.430   2.498 -0.3122  0.0083 -0.0671
19349W        W36197   9.109  11.763   2.984 -0.2308 -0.2668 -0.0068
19350W        W36198   1.892   1.158   2.335  0.2361  0.4236 -0.1052
19351W        W36199  16.637   8.780  11.827 -0.0894 -0.0008  0.0786
19352W        W36200   4.169   9.120  13.261  0.0626  0.0330  0.1129
19353W        W36201   8.380   7.673   1.078  0.5230  0.1670  0.0307
19354W        W36202   8.544   1.169  12.976 -0.1802 -0.0115  0.2557
19355W        W36203   4.023   0.414   0.244 -0.3045  0.3918  0.3898
19356W        W36204  13.183  14.660   4.437  0.2237 -0.0030  0.2155
19357W        W36205   0.856  13.416  11.953 -0.2007 -0.0709 -0.1726
19358W        W36206   2.596   6.246   0.640 -0.0515 -0.0903 -0.3299
19359W        W36207   0.377  13.723  13.025 -0.2719 -0.1152  0.0360
19360W        W36208   7.943   8.052  11.140  0.0903  0.3249 -0.0717
19361W        W36209  14.738   1.216   0.978 -0.2307  0.2767  0.2309
19362W        W36210  14.896  17.458  12.702  0.2964  0.1344  0.1361
19363W        W36211  14.569   0.038  14.485 -0.3181 -0.2435 -0.3642
19364W        W36212  14.547  13.851  13.092 -0.2752 -0.2942  0.0647
19365W        W36213   6.775   9.631  15.326  0.1061 -0.0315 -0.2211
19366W        W36214   9.760  10.282  12.796 -0.1279 -0.1039  0.0927
19367W        W36215   9.896   5.410  13.715  0.0618  0.3050  0.2230
19368W        W36216   4.402   7.289   3.651  0.5056 -0.1841 -0.1496
19369W        W36217   4.145   3.517  11.048 -0.2218 -0.1343  0.0670
19370W        W36218   0.764   7.196  13.198 -0.2442 -0.0645  0.2422
19371W        W36219   1.069   2.708  14.183  0.3524  0.1115  0.0645
19372W        W36220   9.288   7.968  14.661 -0.0601  0.2150 -0.2007
19373W        W36221   0.890   1.586   1.467 -0.1352  0.4085 -0.2191
19374W        W36222   5.740   4.461  11.931 -0.1856  0.1676 -0.0091
19375W        W36223   2.061  16.374  15.768  0.0124  0.1870  0.0449
19376W        W36224  16.032   3.669   3.003  0.0501 -0.0451  0.0223
19377W        W36225  12.661   4.601   1.334 -0.0628 -0.1354  0.3591
19378W        W36226   2.349  16.421   3.552  0.2376  0.0444  0.0445
19379W        W36227  12.165  14.452   3.588 -0.1600 -0.1002 -0.1386
19380W        W36228  15.742   4.913  13.305  0.0189 -0.0512 -0.2295
19381W        W36229  15.306   6.652   2.674  0.2956 -0.1156  0.0107
19382W        W36230  12.947   5.271   4.362 -0.2196 -0.1841 -0.1247
19383W        W36231  14.135  16.569   2.839  0.0222  0.2197  0.0153
19384W        W36232  10.774  11.718  11.900 -0.1710 -0.1814 -0.1358
19385W        W36233   8.463  10.111   0.521  0.1874 -0.1301 -0.0730
19386W        W36234   5.970   1.115   4.438 -0.3420  0.0744  0.2564
19387W        W36235   6.258   7.746  11.390 -0.1578  0.0992 -0.1875
19388W        W36236   3.374   1.433  15.125  0.3182  0.0225 -0.0606
19389W        W36237  15.199   6.087  12.640 -0.0028 -0.0037  0.0090
19390W        W36238  16.771  14.351   0.798 -0.2328 -0.1066 -0.0670
19391W        W36239  13.894  14.176   4.417 -0.0844 -0.1296 -0.1568
19392W        W36240  10.283   2.134   2.756 -0.1105  0.2136  0.1783
19393W        W36241   0.748   6.255   3.740 -0.1305  0.2520 -0.2774
19394W        W36242   2.264  14.064  12.387 -0.0720 -0.5072 -0.0175
19395W        W36243   1.008  16.541  14.424  0.2012 -0.4597 -0.0836
19396W        W36244   9.147  16.097  14.770  0.3115  0.1970  0.0857
19397W        W36245  17.163   9.789  16.110 -0.1450  0.0547  0.1534
19398W        W36246   6.373   9.350  15.362 -0.2410  0.1129  0.2292
19399W        W36247   1.094   1.158   3.025  0.0023  0.2006  0.4147
19400W        W36248  11.264  16.907  13.005  0.1976  0.0620  0.0486
19401W        W36249   7.402  16.150  14.894 -0.0739  0.1422 -0.0106
19402W        W36250   7.115  13.381   4.691 -0.1792 -0.1044 -0.0293
19403W        W36251   5.600   1.370   4.630 -0.2898 -0.0120 -0.3759
19404W        W36252  16.059  17.043  11.655 -0.1158 -0.0390  0.1605
19405W        W36253   0.624   1.909  16.244  0.0046 -0.0471  0.0419
19406W        W36254   1.587   5.247  14.395 -0.2621 -0.2660  0.2382
19407W        W36255  14.970   1.008   3.775  0.1589 -0.2079 -0.0636
19408W        W36256   4.773  15.103   4.047  0.0818  0.1203 -0.1039
19409W        W36257  15.058  16.953   1.682  0.1140 -0.2553 -0.0517
19410W        W36258   3.381   0.309  13.833 -0.0547 -0.0366 -0.1545
19411W        W36259  15.591   5.154   3.425 -0.1472  0.2601 -0.0165
19412W        W36260   3.382   3.437  13.030 -0.0524 -0.1306 -0.2983
19413W        W36261  16.098   5.209   3.255 -0.0452 -0.0793  0.2017
19414W        W36262  14.020  14.066  14.393 -0.2716 -0.4192 -0.1856
19415W        W36263  15.388  11.164   0.988 -0.1873  0.0199 -0.2531
19416W        W36264  13.512   5.487  16.350 -0.1787 -0.0623 -0.0169
19417W        W36265  11.851  13.201   1.125 -0.5144  0.0799 -0.1572
19418W        W36266  12.271   8.912  14.964  0.0471 -0.0737  0.0109
19419W        W36267  14.973   5.167   5.217  0.3030  0.0059  0.1523
19420W        W36268   6.519   4.726  10.820 -0.1165  0.1000 -0.1074
19421W        W36269  10.966   1.220  16.352  0.0473 -0.3278 -0.2336
19422W        W36270   2.370  11.642   0.294  0.1929 -0.1349 -0.2753
19423W        W36271   7.643   1.110   0.365  0.0990  0.0462  0.0163
19424W        W36272   2.667   6.148   2.154  0.0844  0.2413 -0.3675
19425W        W36273  11.131   7.266   0.085  0.1465 -0.0259 -0.0721
19426W        W36274  10.563   1.877  11.973 -0.1664 -0.1032 -0.3187
19427W        W36275   7.957   3.228  12.817 -0.0772 -0.2352  0.0295
19428W        W36276   3.094   1.280  16.510 -0.1725 -0.1402  0.1427
19429W        W36277  15.973  12.111   1.849  0.0920 -0.2492  0.1571
19430W        W36278   3.888  15.676   4.301  0.2270  0.0567 -0.0443
19431W        W36279   7.447   7.977  12.774  0.3677  0.0121 -0.0496
19432W        W36280   5.166   6.841   1.701  0.0429  0.0314  0.1128
19433W        W36281  11.361  13.239   2.710  0.1118  0.0238 -0.0031
19434W        W36282  16.530  12.429  15.802 -0.0858 -0.0616 -0.0081
19435W        W36283   8.594  17.665  16.395 -0.0736  0.0794 -0.0391
19436W        W36284  13.786   5.934   2.317  0.1747  0.0637  0.1066
19437W        W36285  16.734  12.951   2.772  0.0031  0.0545  0.3082
19438W        W36286   7.906   7.043  12.992 -0.0279  0.0941  0.0376
19439W        W36287  13.331  13.449  14.372  0.0074  0.1131 -0.4064
19440W        W36288   0.133   6.648  12.676  0.2525  0.0549  0.2742
19441W        W36289   6.316  17.612   5.403  0.1959  0.0172 -0.1257
19442W        W36290  11.728  12.407   2.124  0.2033 -0.0034 -0.1678
19443W        W36291  12.540   6.660  13.633  0.1584 -0.0058  0.0171
19444W        W36292  11.640   2.910   1.290  0.1166  0.0031  0.1793
19445W        W36293  11.232  10.783  12.648 -0.5821 -0.3648  0.1497
19446W        W36294   7.676  11.686   0.954 -0.1413  0.1882 -0.1736
19447W        W36295  12.298  15.594  16.395 -0.0906 -0.0195 -0.0568
19448W        W36296  13.332   8.329  14.297 -0.2099  0.0054  0.0741
19449W        W36297  10.560  16.122  11.490  0.2428 -0.1910  0.0749
19450W        W36298  10.769   1.950   0.919  0.0535 -0.0192 -0.1806
19451W        W36299   9.585   3.848  16.030 -0.0981  0.1005 -0.0052
19452W        W36300   0.793   4.762   1.560  0.0783  0.0904 -0.2584
19453W        W36301   8.779   4.319  12.505  0.0068 -0.0506 -0.1231
19454W        W36302  12.496   8.086   2.584 -0.1764  0.2349  0.0793
19455W        W36303   8.407   5.497   1.757  0.1760 -0.3204 -0.3244
19456W        W36304  11.559  14.050   5.027  0.4765  0.0858  0.0523
19457W        W36305  10.842   8.082  12.484  0.0482 -0.1651 -0.1100
19458W        W36306   1.266   7.584   1.189 -0.0052 -0.1434 -0.0687
19459W        W36307  15.099   2.916   4.248 -0.1633  0.1294  0.0066
19460W        W36308   3.357   0.688  13.534 -0.2659  0.0080 -0.1266
19461W        W36309   3.968   9.330  12.854  0.1615 -0.2805  0.1737
19462W        W36310   1.696  17.000  14.758 -0.2461 -0.3774  0.1944
19463W        W36311   9.054  12.953   0.115 -0.2044 -0.1021  0.1036
19464W        W36312  16.908  17.006  15.538  0.3628 -0.1864  0.1485
19465W        W36313  13.743  15.837   4.690  0.3357 -0.2013  0.1822
19466W        W36314  17.559   0.597   1.252 -0.1076 -0.2990 -0.1347
19467W        W36315   9.611  13.251   1.047  0.1310 -0.0017  0.3197
19468W        W36316  16.398  16.601   2.620 -0.0088  0.0310 -0.1566
19469W        W36317   7.104   5.757  14.705 -0.0450  0.0239  0.3484
19470W        W36318   7.589   9.676  15.558 -0.0126  0.1449 -0.1206
19471W        W36319  16.447  14.993   4.035 -0.0474 -0.3121  0.1949
19472W        W36320   9.574   1.282  13.680 -0.0899  0.4468 -0.1688
19473W        W36321   1.300   6.592  13.266  0.0040 -0.0428 -0.0862
19474W        W36322   1.974   0.432  14.060 -0.1390 -0.0375  0.1793
19475W        W36323   1.267  16.983  14.455  0.0988 -0.0632  0.0017
19476W        W36324   2.369  14.373   5.135 -0.0601  0.0352 -0.0771
19477W        W36325   8.728   8.492  14.088 -0.1844 -0.0822 -0.4721
19478W        W36326  16.834   0.862  15.133 -0.0258 -0.0128 -0.1648
19479W        W36327  15.607   7.812   5.388  0.0752 -0.3155  0.0020
19480W        W36328  13.796   0.368   2.503 -0.0798 -0.3074 -0.0172
19481W        W36329   3.543   3.973   0.192 -0.1457 -0.3418  0.0894
19482W        W36330   2.549   5.369   5.301 -0.2123 -0.2458 -0.0123
19483W        W36331   0.405   7.020   1.922  0.0656  0.1291 -0.0581
19484W        W36332  14.160  16.527  15.332 -0.0646  0.1042  0.1448
19485W        W36333  13.357  12.224   4.987 -0.1849 -0.2087  0.1385
19486W        W36334   9.153  11.685  12.731  0.0673  0.0369  0.1218
19487W        W36335   2.320   7.150  12.423 -0.0929 -0.0237 -0.1097
19488W        W36336  12.156   3.722  15.950 -0.0277 -0.2612 -0.1283
19489W        W36337   3.814  17.408   3.117 -0.2010  0.1824  0.0456
19490W        W36338  13.083   0.305   4.567 -0.0764  0.3492  0.0561
19491W        W36339   3.794   7.191   0.315 -0.0551  0.2829  0.1087
19492W        W36340   5.570   1.924   3.283 -0.2455 -0.1385 -0.0937
19493W        W36341   0.855   4.466   5.398 -0.0355  0.1624 -0.0648
19494W        W36342  13.985  16.838  15.746  0.1593 -0.1271  0.0216
19495W        W36343  17.103   9.282   3.523 -0.0363 -0.2032  0.0745
19496W        W36344  13.872   8.963  15.407  0.1976  0.0107 -0.2273
19497W        W36345   9.917  11.447   4.364 -0.3211 -0.0082  0.5842
19498W        W36346  16.016   8.491   0.281 -0.0233  0.1343 -0.1349
19499W        W36347   7.937   6.451  12.943  0.1680 -0.1687  0.1084
19500W        W36348   0.157  14.744  11.270 -0.1461  0.2443  0.1035
19501W        W36349  14.141   0.086   4.693  0.2320 -0.3278  0.2624
19502W        W36350  12.182   6.405  13.277 -0.2285  0.0701 -0.1155
19503W        W36351  11.836   6.922   5.565  0.0995 -0.2004 -0.0278
19504W        W36352   0.460   7.115  11.149  0.4048 -0.1619  0.0193
19505W        W36353  13.589   9.332  13.838 -0.0550  0.0339  0.0010
19506W        W36354  14.640   9.455   3.505  0.3542  0.0361 -0.0437
19507W        W36355   2.851  11.659  15.199  0.0920 -0.0569 -0.1207
19508W        W36356   4.508  15.953  13.951 -0.0335 -0.0861  0.1723
19509W        W36357   0.943  17.579  13.530 -0.0588 -0.1531  0.1975
19510W        W36358   5.907   0.698  12.975 -0.0001  0.2753 -0.0057
19511W        W36359   8.896   6.538   1.549 -0.1729 -0.0575  0.0172
19512W        W36360   4.565   5.199   3.011 -0.3942 -0.0871  0.0604
19513W        W36361   3.510   4.634   4.603  0.0090 -0.0692  0.0563
19514W        W36362   4.432  13.575  15.435  0.1183 -0.1086  0.1411
19515W        W36363  11.711   5.128  13.514  0.4335 -0.0110  0.0692
19516W        W36364  14.814   5.598   2.876  0.3578  0.2444 -0.0195
19517W        W36365  10.327  10.201  15.185 -0.3277  0.0678 -0.0578
19518W        W36366   5.963   8.282  15.960  0.0000 -0.1789  0.2136
19519W        W36367   2.484  14.681  11.815 -0.2359 -0.0189  0.0598
19520W        W36368   1.772  12.811   2.689  0.1861  0.1648  0.0349
19521W        W36369  10.418  12.469   0.595  0.2936 -0.2121 -0.2841
19522W        W36370  12.133   3.257  16.195  0.0290  0.3144 -0.0184
19523W        W36371  12.979   3.547  12.165  0.0588  0.0548  0.0166
19524W        W36372   4.122   7.759   4.423 -0.0321 -0.0803 -0.1038
19525W        W36373  15.349   4.299   3.143  0.0442  0.0497  0.2776
19526W        W36374  12.337   6.893   4.875  0.0320  0.2954  0.0474
19527W        W36375  13.048   5.882   3.015  0.3808 -0.0056  0.2728
19528W        W36376  11.685   1.494   1.266 -0.0103  0.2276  0.1132
19529W        W36377   4.661   7.164  15.963  0.0367 -0.1430  0.3375
19530W        W36378  10.826   3.469  10.716 -0.0049 -0.1403  0.0202
19531W        W36379  10.620   0.920  15.218  0.1044  0.0961 -0.0466
19532W        W36380   3.076   4.719  15.144  0.3566 -0.0565  0.1343
19533W        W36381   8.436  15.347   0.152  0.0019 -0.0499 -0.1709
19534W        W36382  11.647   9.729  15.060 -0.1380 -0.0553 -0.1937
19535W        W36383   4.713  10.041  12.639 -0.1106 -0.4563  0.0167
19536W        W36384  13.089   0.099   0.449  0.0401  0.4248 -0.4576
19537W        W36385  11.497  16.235   5.231  0.0920 -0.5013 -0.0441
19538W        W36386  11.812   3.526  16.611  0.1973  0.0447  0.1631
19539W        W36387   7.279   8.078   4.888  0.0841  0.2039 -0.0116
19540W        W36388   5.182   4.598   5.165  0.1937  0.0450  0.1038
19541W        W36389  11.448   9.293  13.559 -0.0809  0.0547 -0.1604
19542W        W36390   9.431   2.915  14.944 -0.0487 -0.0149 -0.0397
19543W        W36391   5.128  14.046  11.642  0.1480  0.0813 -0.2902
19544W        W36392  12.618  10.882   4.198 -0.0112  0.2761  0.4690
19545W        W36393   9.692  10.122   1.975  0.2843 -0.1312  0.0526
19546W        W36394  16.584   9.237   4.481 -0.0059 -0.1427  0.1267
19547W        W36395  12.757   7.459   4.099  0.2942  0.0265 -0.1648
19548W        W36396   8.018   5.478   1.396  0.2239 -0.2511  0.1526
19549W        W36397   5.532  13.143   6.294  0.0359 -0.2411  0.2000
19550W        W36398  12.263  12.439   3.795  0.2906 -0.1886  0.0656
19551W        W36399  17.589   6.540  14.568  0.1284 -0.0973  0.2742
19552W        W36400   6.678  15.125   1.790  0.2072 -0.1970 -0.0925
19553W        W36401   1.107   4.341  16.662  0.0176 -0.1286 -0.0446
19554W        W36402  13.062   5.701  16.293  0.0953  0.0079 -0.4186
19555W        W36403  11.348  15.044  13.395  0.0995 -0.2689 -0.0233
19556W        W36404   2.070   3.686  13.454  0.1189  0.0080  0.1387
19557W        W36405  13.104   3.535  13.203 -0.0850  0.4333 -0.0749
19558W        W36406   1.266  16.707   5.153  0.0702  0.3752  0.4439
19559W        W36407   2.120  13.772   4.689 -0.0399 -0.0280 -0.0134
19560W        W36408   9.210   3.807  10.367  0.2249 -0.2889  0.1008
19561W        W36409  13.200   8.293  12.601 -0.2576 -0.0827 -0.1423
19562W        W36410  13.601   7.406   5.470  0.0961 -0.1050 -0.4117
19563W        W36411   1.638   6.820  13.674 -0.3118  0.4295 -0.3486
19564W        W36412  15.766  12.508  14.907  0.1578  0.1836 -0.5375
19565W        W36413  10.325  14.172  11.710  0.1541 -0.2660  0.2342
19566W        W36414   0.347   0.265  12.360 -0.0768 -0.1452 -0.3155
19567W        W36415   4.880   0.470   4.791  0.0120 -0.3710 -0.0291
19568W        W36416  17.699  13.000  10.893 -0.0681 -0.0719  0.0704
19569W        W36417  13.304  15.156  12.393 -0.0110 -0.0442  0.0103
19570W        W36418   5.204   1.440  16.500  0.1928  0.0704  0.0428
19571W        W36419  15.452   8.665   2.828  0.0343  0.3184  0.2667
19572W        W36420   1.832   2.917  12.203  0.0407  0.1813 -0.3091
19573W        W36421  13.630   6.024   0.619 -0.0005 -0.3296 -0.0806
19574W        W36422   6.356   1.657   2.769  0.2889  0.1977 -0.0671
19575W        W36423   6.788  15.389  12.732  0.2710 -0.0266 -0.2554
19576W        W36424  13.886  14.912   2.595 -0.0010  0.3035  0.0034
19577W        W36425   7.590  14.140   4.797  0.1046  0.0856  0.2381
19578W        W36426  12.895   8.027  12.294  0.0970 -0.0268 -0.0724
19579W        W36427   4.737   4.340  14.206  0.0994  0.1842 -0.0282
19580W        W36428   6.256  14.939   0.883  0.1120 -0.1244  0.4863
19581W        W36429   3.759  14.671   1.108 -0.0189  0.2032  0.0882
19582W        W36430  12.706  16.318   4.396  0.1447 -0.0783  0.0272
19583W        W36431   7.263  13.798   3.506 -0.0310 -0.0096  0.0620
19584W        W36432   0.730  17.448   1.376 -0.0126  0.1045  0.2081
19585W        W36433  15.143  17.070   0.294 -0.0306 -0.1455  0.2449
19586W        W36434   8.070   7.990  15.256  0.1099  0.0304  0.2384
19587W        W36435   9.580  14.728  15.267  0.5529 -0.0638 -0.0183
19588W        W36436  15.985   0.399  12.791  0.0239  0.2283  0.2367
19589W        W36437   8.036  14.587   0.286 -0.1759 -0.1145 -0.3015
19590W        W36438  10.557  15.250   4.102 -0.1785  0.0354  0.0597
19591W        W36439   8.725   4.742  12.322  0.2135  0.1435 -0.0761
19592W        W36440  15.990  14.796  13.649  0.0812  0.0060  0.2008
19593W        W36441  10.106  17.183  14.407 -0.0935 -0.0552 -0.0516
19594W        W36442   7.255   2.255  14.537  0.0559 -0.1888 -0.1747
19595W        W36443   5.702   8.550  14.391  0.3096  0.0263  0.2275
19596W        W36444  10.172  17.400  13.030 -0.0235  0.1730 -0.1096
19597W        W36445   6.919   7.027  13.319 -0.1890 -0.0774 -0.1159
19598W        W36446  11.958  17.215   1.061  0.0090 -0.0434  0.1136
19599W        W36447   0.316  15.843  14.814  0.0405  0.4316  0.0966
19600W        W36448   6.872   8.050  16.095  0.2036  0.0212 -0.0594
19601W        W36449  10.468  15.909  12.783 -0.0032 -0.1534 -0.2500
19602W        W36450   5.460  13.858  14.184  0.0884 -0.2091  0.0511
19603W        W36451  10.832   9.376  16.471 -0.1619 -0.1197 -0.0216
19604W        W36452  14.368   8.899  14.157 -0.2822 -0.5689  0.2561
19605W        W36453  10.087   5.263  14.154  0.0211 -0.2628  0.2209
19606W        W36454   2.842  15.367  12.433  0.1830  0.0306 -0.0574
19607W        W36455   6.259   0.358   0.498 -0.2547  0.1109 -0.0886
19608W        W36456  17.141   8.209   5.813  0.0579  0.0272  0.0391
19609W        W36457  13.629   4.285  12.095  0.0417  0.3093 -0.0278
19610W        W36458  13.546  13.941  14.540  0.2506  0.1457  0.2257
19611W        W36459   5.395   0.701   3.022  0.1556  0.0939  0.1226
19612W        W36460  17.567  11.633  15.684 -0.0593 -0.3107 -0.1285
19613W        W36461   4.452  12.466  12.582 -0.5474  0.0789  0.2058
19614W        W36462   8.802  16.316  13.998  0.0505 -0.1842  0.0250
19615W        W36463  10.166   4.639   0.777  0.0460 -0.1286  0.2097
19616W        W36464  11.317   5.046  15.001 -0.0327  0.0307  0.1042
19617W        W36465   9.425   5.710   4.951 -0.0603  0.2420 -0.1150
19618W        W36466   4.922  16.798   5.127 -0.0559  0.0075  0.1926
19619W        W36467  10.630   6.114  12.378  0.1327  0.3504 -0.2199
19620W        W36468  15.259   5.994   3.046 -0.0209  0.2232  0.1448
19621W        W36469   2.766   5.625  12.525 -0.2203 -0.2138  0.0304
19622W        W36470  11.626  14.828   2.572 -0.1693  0.0229  0.1077
19623W        W36471   6.977  11.558  16.639 -0.1930  0.3518 -0.2251
19624W        W36472   2.634   4.141   1.288  0.0412 -0.0708  0.1270
19625W        W36473   9.371  10.016   2.670 -0.0297  0.0311  0.0781
19626W        W36474   1.232  12.490  14.697  0.0545  0.2176  0.1797
19627W        W36475   6.495  14.624  15.334 -0.1070 -0.2982 -0.0439
19628W        W36476   4.296   3.854   5.368  0.2382  0.1341 -0.0118
19629W        W36477  14.279  15.488  12.229  0.0698 -0.2325 -0.1432
19630W        W36478  17.622   9.381  14.880 -0.0762  0.2995  0.0964
19631W        W36479  12.434   4.704  15.440 -0.1455  0.0927 -0.0430
19632W        W36480   9.696   9.327  10.339  0.0722 -0.2653  0.1160
19633W        W36481   2.553   6.886  12.038  0.0028  0.0502 -0.0424
19634W        W36482   3.382   5.307  15.904  0.1412  0.0026  0.2916
19635W        W36483   5.869  12.423  16.129 -0.0202 -0.1356 -0.2197
19636W        W36484   1.091  12.898  14.171  0.0348 -0.0869 -0.1842
19637W        W36485   1.285   2.294   5.553 -0.0313  0.1301  0.0032
19638W        W36486   3.798   1.662  12.072  0.2473 -0.0508  0.0521
19639W        W36487  12.574   3.670   4.520 -0.1934  0.1017  0.2176
19640W        W36488   5.998   3.113   1.619  0.0416  0.1632  0.0053
19641W        W36489   6.711  15.281  14.231 -0.0622  0.1629  0.1768
19642W        W36490   5.647  12.921   2.803  0.0383  0.0457  0.0358
19643W        W36491   0.624  11.655   0.601 -0.1283 -0.0760  0.2381
19644W        W36492   4.715   8.083   1.790 -0.2526 -0.0617 -0.2577
19645W        W36493  16.016   4.227   1.156 -0.1024 -0.0155 -0.0251
19646W        W36494   3.053   3.671  16.296  0.1485  0.0203 -0.1236
19647W        W36495  15.619   0.547   3.132  0.1507  0.0266 -0.1158
19648W        W36496  14.738   9.236  14.254 -0.0481  0.0439  0.2115
19649W        W36497   2.997   9.210  12.045  0.2540 -0.0449 -0.2547
19650W        W36498   9.132   1.607  14.661 -0.2046  0.0264  0.0953
19651W        W36499  15.725  14.401  12.861 -0.2261 -0.2081 -0.0321
19652W        W36500  13.498  11.021   1.480 -0.0690  0.0455  0.1023
19653W        W36501  12.611   1.460   1.610  0.0051 -0.0626  0.2183
19654W        W36502   4.295   7.513   2.655 -0.3880  0.4034 -0.2736
19655W        W36503   4.939  17.414   1.898  0.1799 -0.4157 -0.1074
19656W        W36504   7.117   7.383   4.238 -0.0191 -0.1549 -0.0862
19657W        W36505  11.100   9.263  13.897  0.5402 -0.2554 -0.2130
19658W        W36506  12.747  10.379   3.444 -0.0240  0.2156  0.0096
19659W        W36507   0.812   4.160  11.641  0.2070 -0.1870  0.1409
19660W        W36508   2.015  16.572  10.348 -0.0288 -0.2836 -0.0510
19661W        W36509   3.297   8.605   2.666  0.1574 -0.1494 -0.2587
19662W        W36510  16.413   9.516  13.695 -0.2517  0.1271 -0.2236
19663W        W36511   5.191   1.789  12.223 -0.0358 -0.1204  0.3469
19664W        W36512   7.025   6.091   2.821  0.2110  0.1272 -0.0574
19665W        W36513  14.748  12.823   3.124 -0.2447 -0.3393  0.2166
19666W        W36514  17.101  17.009   1.087 -0.2920  0.0686  0.0743
19667W        W36515  14.163   1.155  16.411  0.0849  0.1247 -0.3690
19668W        W36516   7.980  12.486   3.247  0.1622 -0.2787  0.0323
19669W        W36517  16.555   9.886  13.431  0.1912 -0.1313  0.0481
19670W        W36518  16.960  11.398   0.486 -0.1583  0.0315 -0.0541
19671W        W36519   0.176  11.006  12.955 -0.1029 -0.0923 -0.3156
19672W        W36520   4.430   0.521   4.078  0.0663 -0.0556  0.0184
19673W        W36521   1.994  10.632  15.455 -0.3380  0.0885  0.1800
19674W        W36522   7.658   3.029   2.878 -0.0543 -0.2803  0.1810
19675W        W36523   6.401   9.004  13.760 -0.1023 -0.3415  0.3945
19676W        W36524   5.616   1.121  14.173 -0.2295  0.1775 -0.0934
19677W        W36525   2.528   6.471   3.404  0.0503 -0.0586  0.3703
19678W        W36526  10.282  14.588   3.390  0.1249 -0.0069 -0.2037
19679W        W36527   4.539  13.829  13.182 -0.1436 -0.2189  0.1323
19680W        W36528  12.734  10.528  16.337 -0.3783 -0.1604 -0.1011
19681W        W36529  15.099   5.281   0.115 -0.1377 -0.0280 -0.0619
19682W        W36530   9.355  10.493   1.958  0.1121 -0.2033  0.3164
19683W        W36531  12.723   6.915   5.314  0.3772 -0.0137  0.0435
19684W        W36532  14.090   7.173   1.094 -0.2241  0.1287  0.2180
19685W        W36533  12.376   4.159  12.771  0.2122  0.0260 -0.0816
19686W        W36534   6.341   6.152   1.465 -0.0567  0.1831  0.0343
19687W        W36535   8.756   7.956  12.239 -0.2865  0.2942  0.1727
19688W        W36536   7.119   0.300  15.190  0.0808  0.3172 -0.0922
19689W        W36537  14.411  10.916   1.287  0.1146  0.0733  0.2523
19690W        W36538   9.208   7.607  12.189  0.2726 -0.1045 -0.0526
19691W        W36539   4.750   6.810  15.016  0.2389  0.2453  0.2358
19692W        W36540  17.435   3.769   1.949 -0.0621  0.4991 -0.0742
19693W        W36541   8.487  17.563   4.375  0.0380  0.2665  0.0859
19694W        W36542   1.400   3.683  13.527  0.0483  0.0114 -0.0163
19695W        W36543  17.285   2.299  12.472  0.2151  0.0617 -0.2183
19696W        W36544   2.896   0.167  12.626  0.1611 -0.0606  0.2771
19697W        W36545  14.275  14.944   2.298  0.1597  0.1209 -0.0275
19698W        W36546   6.993  13.738  16.141 -0.2671  0.0577  0.1303
19699W        W36547  11.099   5.168   4.118  0.1302  0.1329 -0.0687
19700W        W36548  14.585  16.421   1.403  0.1739 -0.0751 -0.2017
19701W        W36549   8.113   9.655   1.954 -0.0811  0.0317 -0.0067
19702W        W36550   7.250  14.274  11.729  0.0908 -0.0668 -0.2907
19703W        W36551   2.551  15.999   1.747  0.0800  0.0849  0.2130
19704W        W36552   2.891   1.022   3.883 -0.0586 -0.1438  0.4074
19705W        W36553  15.079   0.514  14.326 -0.1350 -0.0515 -0.2127
19706W        W36554  10.789  15.621  15.813 -0.1385  0.1773 -0.0471
19707W        W36555   2.688  12.673   3.032  0.2742 -0.0153 -0.0706
19708W        W36556  16.585   1.235  11.313  0.3285  0.1122  0.1975
19709W        W36557   4.650  13.200  16.000  0.0588 -0.0482 -0.0039
19710W        W36558  12.160   0.013   1.804  0.2598 -0.1975  0.1499
19711W        W36559   5.051  17.260  13.907  0.2205 -0.0400  0.1887
19712W        W36560  16.744   0.854   0.570 -0.2561  0.0340 -0.1520
19713W        W36561   5.350   7.401   3.302 -0.2721 -0.1589  0.3049
19714W        W36562  16.206  16.525   1.359  0.0195 -0.1831  0.0506
19715W        W36563   7.762  12.740   1.561  0.2831  0.0875 -0.0075
19716W        W36564   1.844   0.781   0.999 -0.2945 -0.0029  0.1210
19717W        W36565   7.450   2.411  15.003  0.2847  0.0648 -0.1451
19718W        W36566   8.875  17.289   3.609  0.0339 -0.2185 -0.0225
19719W        W36567   2.750   2.570   3.821  0.1004  0.2659 -0.2530
19720W        W36568  15.249  13.328  12.759  0.2248  0.0397 -0.1207
19721W        W36569  10.215   3.338  14.991  0.1747 -0.0587  0.0405
19722W        W36570  16.163  15.121  15.685 -0.2350  0.0819  0.1444
19723W        W36571   0.573  13.834  16.358  0.3691  0.3672 -0.0243
19724W        W36572  10.214  13.347   6.082 -0.0696 -0.2835 -0.0335
19725W        W36573   1.767  10.024  16.445 -0.1657 -0.3285  0.0526
19726W        W36574   7.018  16.244  12.881 -0.1903 -0.1873  0.3605
19727W        W36575   6.807   1.928   5.034 -0.2512  0.1500 -0.3817
19728W        W36576   8.290   7.346   1.887 -0.1131  0.0562 -0.3006
19729W        W36577  13.369   9.635  11.747  0.4758  0.2252 -0.1570
19730W        W36578   8.230  10.779   3.519 -0.2623  0.1214  0.1566
19731W        W36579  14.877  11.071   2.827  0.1482 -0.0780 -0.1560
19732W        W36580  17.479  14.636  16.475 -0.1335  0.0545 -0.0261
19733W        W36581  13.828   2.016  14.076  0.0457 -0.0289 -0.0349
19734W        W36582   6.934   2.997  13.998 -0.0497 -0.1072 -0.2033
19735W        W36583   6.617  11.465  16.242  0.3036  0.2930 -0.0100
19736W        W36584   8.379  15.355   1.137  0.1308 -0.4304  0.2021
19737W        W36585   9.108  10.179   1.616 -0.0308  0.0022 -0.0390
19738W        W36586   8.696   1.011   4.932  0.0042  0.3483  0.0718
19739W        W36587  16.475  17.095   0.491 -0.0308  0.0044  0.3935
19740W        W36588  10.329  12.917   1.786  0.0286  0.2787 -0.4229
19741W        W36589  11.612  10.543  11.271 -0.1775 -0.1201  0.2284
19742W        W36590   7.291   6.317  14.822 -0.1706  0.0906  0.1110
19743W        W36591   4.944   4.927  14.689  0.1787  0.2435 -0.1307
19744W        W36592   7.700   2.182  16.315  0.0853  0.0972 -0.1476
19745W        W36593   9.359  16.254  16.188 -0.1197 -0.0630  0.1413
19746W        W36594   0.705  16.227   3.084  0.2743  0.0251  0.0184
19747W        W36595   2.444   9.267   1.635  0.0092  0.1110  0.0124
19748W        W36596  16.178   9.667  14.618  0.0714  0.0965 -0.0229
19749W        W36597   8.255  11.950  13.745 -0.3101  0.0506 -0.0955
19750W        W36598  15.485  11.324  14.110 -0.0839 -0.0677  0.1836
19751W        W36599  16.207   0.309   1.085  0.0857 -0.0683 -0.2344
19752W        W36600  17.231   8.960   4.809  0.1869  0.3939  0.0671
19753W        W36601  13.734   6.136   4.939 -0.1544 -0.1790 -0.0767
19754W        W36602  16.448  16.050  14.203 -0.1787  0.1027  0.1017
19755W        W36603  11.873   2.623  13.523  0.0549  0.1226 -0.1371
19756W        W36604   0.135   3.512   2.060 -0.2460  0.1458 -0.2529
19757W        W36605   6.923   0.707   4.449 -0.1279 -0.1807  0.1295
19758W        W36606   4.700  15.731   3.827  0.1468  0.0729 -0.0824
19759W        W36607  14.294  12.002   2.715 -0.0377  0.3365  0.0079
19760W        W36608   1.554  13.648  15.421 -0.2021  0.0750  0.0386
19761W        W36609  14.401  16.228   0.091  0.2204 -0.0983  0.0374
19762W        W36610   3.989  11.479   1.412 -0.0122 -0.0166  0.2083
19763W        W36611  10.402  15.740  13.869 -0.1666 -0.0660  0.0637
19764W        W36612   8.828  14.839  14.541 -0.1232 -0.0445  0.0285
19765W        W36613  12.976  12.206  13.261 -0.1023 -0.0136 -0.1159
19766W        W36614  13.158   4.716   3.323  0.0839  0.0107 -0.2092
19767W        W36615   7.120   7.956  15.570  0.1429  0.0951 -0.0720
19768W        W36616   3.198   8.810   4.364  0.1381 -0.2436 -0.0890
19769W        W36617   5.091   8.159   1.453 -0.0947 -0.0836 -0.1190
19770W        W36618  13.357  13.112   2.170  0.0552  0.1698 -0.2161
19771W        W36619   9.012   0.090   3.382  0.2369 -0.0214 -0.1286
19772W        W36620   8.029  17.345   0.578  0.2167 -0.0333 -0.1018
19773W        W36621   2.108   3.151  11.844 -0.2098 -0.1236  0.0551
19774W        W36622   4.402  13.281  13.314  0.2598 -0.2010  0.1048
19775W        W36623  16.778  11.035  15.575  0.0292  0.0301 -0.0051
19776W        W36624   2.764   8.367   3.576  0.1824  0.0493 -0.0263
19777W        W36625   5.290  10.815   4.445 -0.3114 -0.0086  0.0673
19778W        W36626  12.579  13.682  13.950  0.1146 -0.1027 -0.3062
19779W        W36627  16.026  14.065  11.649  0.0566 -0.0948 -0.0026
19780W        W36628   7.853  11.516   3.934  0.0407 -0.0556  0.2663
19781W        W36629  13.759   0.755   3.573 -0.0667  0.0564 -0.2288
19782W        W36630   7.079   4.475   1.339  0.0374  0.1142  0.0694
19783W        W36631  15.088  16.489   1.563  0.3172 -0.1839  0.6333
19784W        W36632   7.359   5.352  16.634 -0.0306 -0.0165 -0.2483
19785W        W36633  13.424   0.377   2.826 -0.2732 -0.0923 -0.0803
19786W        W36634  17.001   3.514   3.226  0.0072  0.2010  0.0606
19787W        W36635   7.265  14.692  14.097 -0.2071 -0.0442  0.2856
19788W        W36636  10.571  16.438  14.614 -0.1007 -0.1431  0.1911
19789W        W36637   0.073  17.510   0.201 -0.0222 -0.0759 -0.0598
19790W        W36638   1.897  13.333  16.390 -0.1999 -0.0995 -0.2378
19791W        W36639   8.669   0.750   4.408 -0.1422 -0.2252 -0.3270
19792W        W36640  10.004   2.546   2.164 -0.2320 -0.0330 -0.0614
19793W        W36641  13.158   6.130  14.623  0.2722 -0.0297  0.1234
19794W        W36642  15.573   8.892  15.839  0.1308  0.0678 -0.0103
19795W        W36643  15.712  16.792  15.699  0.0857 -0.0988  0.1851
19796W        W36644  14.388   3.491  16.502 -0.0232  0.2650 -0.1671
19797W        W36645  11.019   4.576  11.692  0.0651  0.2883 -0.0561
19798W        W36646   9.373   0.045  15.961 -0.1772 -0.2577  0.0328
19799W        W36647   0.224   2.193   1.663  0.1570  0.4014  0.1235
19800W        W36648   1.402  12.849   4.983 -0.2325 -0.0235  0.0863
19801W        W36649  15.953  10.418  11.758  0.1176  0.0908  0.0214
19802W        W36650  17.045   4.296  11.464  0.1918 -0.1859  0.0507
19803W        W36651  15.789   6.688  13.582 -0.1062 -0.0442 -0.2603
19804W        W36652  13.051   1.249   4.830 -0.3120  0.0726  0.1027
19805W        W36653   3.840   8.420  11.951 -0.0752  0.0754 -0.1328
19806W        W36654   0.532  12.872  11.732  0.1844  0.0272  0.0300
19807W        W36655  12.269   6.589   4.338  0.2401  0.1771 -0.3789
19808W        W36656  15.580   0.176  15.375  0.3004  0.2883  0.2270
19809W        W36657   8.472   3.998  13.965  0.2171 -0.0101  0.3417
19810W        W36658  17.431   3.376   4.674 -0.0462 -0.1739  0.0406
19811W        W36659   5.389   9.748   5.000 -0.0179 -0.0249 -0.1696
19812W        W36660   5.682   1.342  14.623  0.0197 -0.2259  0.2470
19813W        W36661   2.668  12.065   3.860  0.0698 -0.2365  0.0228
19814W        W36662  14.843   3.617   0.147 -0.1479 -0.3191 -0.0788
19815W        W36663   8.479  16.222   1.477 -0.0370  0.1500 -0.1068
19816W        W36664  17.557   4.207  15.722  0.1023  0.1891 -0.0659
19817W        W36665   4.045  10.078   1.551 -0.1549  0.1075  0.1518
19818W        W36666  13.398  12.356   1.041  0.3710 -0.1461  0.1195
19819W        W36667   3.223   5.412  14.200  0.2395  0.0336 -0.0104
19820W        W36668   6.273  17.334   2.953 -0.0139 -0.0616  0.1111
19821W        W36669  13.155   1.809  15.240 -0.2951  0.0365  0.1964
19822W        W36670  14.478  13.380  11.402  0.0988 -0.0592 -0.0425
19823W        W36671   6.998   9.919  14.848  0.0796 -0.2010  0.2886
19824W        W36672  11.661  10.354  15.878 -0.2593  0.0239  0.4983
19825W        W36673  12.728   4.029   3.696 -0.0651  0.0709 -0.1145
19826W        W36674  14.972   7.926   0.463 -0.0981 -0.0447 -0.2257
19827W        W36675   0.662  14.291   1.538  0.3521 -0.1153 -0.2494
19828W        W36676  12.747   6.992  13.283 -0.0652  0.0140  0.2409
19829W        W36677  12.989   1.009  14.329  0.1651 -0.1527 -0.1843
19830W        W36678   3.753   7.541  13.430 -0.3702 -0.0189  0.2007
19831W        W36679   2.612  17.271   2.699  0.0266 -0.1833 -0.1641
19832W        W36680   7.508   5.820   4.849  0.1358 -0.2652  0.2410
19833W        W36681  13.198  16.308   3.495 -0.0957 -0.0352 -0.0971
19834W        W36682  11.965  15.260  16.541  0.0076  0.0145  0.1877
19835W        W36683  15.079  14.390  14.524 -0.3346 -0.2457 -0.1137
19836W        W36684  16.439   5.653   3.546 -0.3309 -0.0996  0.3065
19837W        W36685   8.305   2.295  11.721  0.2260  0.0711 -0.0401
19838W        W36686  14.281   0.107  13.414 -0.0076 -0.1782  0.0138
19839W        W36687   0.682   5.902  11.485 -0.0099  0.1741 -0.0048
19840W        W36688   6.250   8.768  11.893  0.2343 -0.1632  0.1564
19841W        W36689   3.634  12.155   3.669  0.1331 -0.1538  0.2232
19842W        W36690   8.743  13.274  12.051 -0.2674  0.1140  0.0297
19843W        W36691   1.321  10.175   3.341  0.1527 -0.3328 -0.2106
19844W        W36692  11.878  15.948  14.093 -0.1589  0.0027  0.0859
19845W        W36693  10.258   2.684  15.573 -0.0041 -0.2589  0.2761
19846W        W36694  17.419  11.880   2.890  0.0188  0.1532  0.0468
19847W        W36695   4.169   5.043   1.448  0.3806 -0.1504  0.2065
19848W        W36696   7.201  12.682  15.012 -0.0722 -0.0304 -0.0566
19849W        W36697  12.673  13.965  14.978 -0.0961 -0.0751  0.0872
19850W        W36698  12.006  14.677   1.814  0.1358 -0.0905 -0.2511
19851W        W36699   0.797   2.792   3.999 -0.1240  0.0236  0.1837
19852W        W36700  15.057   5.666  12.473 -0.0146  0.2018  0.0109
19853W        W36701  12.896  12.556  15.977 -0.3998 -0.0335 -0.2782
19854W        W36702  15.991  11.174  14.849  0.1553 -0.3341  0.1010
19855W        W36703  13.604  12.062  14.948 -0.2613 -0.0090 -0.1346
19856W        W36704   1.792   3.039   1.026  0.0771  0.1305  0.1773
19857W        W36705   5.023   4.041   2.035  0.1167 -0.2450 -0.0292
19858W        W36706  12.177   6.078   5.718 -0.2921 -0.3996  0.1581
19859W        W36707  13.293   2.208  13.253  0.0967 -0.1027 -0.1062
19860W        W36708  11.147   2.388   4.337  0.3082  0.2240 -0.1406
19861W        W36709   2.064   1.709  12.806 -0.1848  0.3325  0.0716
19862W        W36710   1.811  15.765  13.556 -0.0140 -0.1479  0.1060
19863W        W36711  10.070  13.581  14.223 -0.1780  0.3013 -0.2456
19864W        W36712   1.574   4.347  16.408  0.1044  0.0873 -0.0008
19865W        W36713   8.464  17.471  15.954 -0.0285 -0.2283 -0.2107
19866W        W36714   8.186   1.022   4.204  0.0501  0.0686  0.2358
19867W        W36715   0.089   9.720   3.037 -0.0081  0.0132 -0.1023
19868W        W36716   8.531  17.484  14.046 -0.0358  0.0070  0.1061
19869W        W36717   7.958   0.426  13.964  0.1137  0.0686  0.2172
19870W        W36718  16.023  15.188  13.979  0.1546 -0.3268 -0.2607
19871W        W36719  17.295  11.066   3.998 -0.2388  0.2595  0.0643
19872W        W36720  12.965  17.327   4.868  0.3658  0.0035 -0.0563
19873W        W36721   6.055   9.119  16.549  0.0553 -0.1013  0.1747
19874W        W36722   1.269   1.184  12.576 -0.4455  0.1130  0.0475
19875W        W36723  14.932   9.426   2.505 -0.0032  0.1397  0.1180
19876W        W36724   8.959   9.474   3.921 -0.0562  0.0519 -0.2470
19877W        W36725   3.666   8.903   4.091 -0.3604 -0.1357  0.0543
19878W        W36726   6.303   8.578   3.269 -0.2485  0.0286  0.1006
19879W        W36727   1.680  12.297  14.459  0.1467  0.1041 -0.1312
19880W        W36728   5.473   6.753  14.931  0.1928  0.0624  0.0612
19881W        W36729   4.805   5.050  13.328 -0.0799 -0.0647 -0.2070
19882W        W36730   0.272   4.001  14.913  0.0625 -0.1296  0.2089
19883W        W36731  14.894   8.612   2.071  0.0010 -0.1402  0.0769
19884W        W36732   2.337   5.655   3.171  0.0763  0.0918 -0.4079
19885W        W36733  14.877   9.387  15.192 -0.0729 -0.0927  0.0174
19886W        W36734   2.789   1.923   2.735 -0.1281  0.1065 -0.0712
19887W        W36735  13.021   8.213   4.256  0.0958  0.0912  0.0022
19888W        W36736  14.220  16.697   0.351  0.3470 -0.2237 -0.4708
19889W        W36737  14.585  15.587  11.081  0.2222  0.0452  0.0718
19890W        W36738   8.423  10.212  14.662  0.1619 -0.1815 -0.0252
19891W        W36739   7.353  16.816   0.161 -0.0459 -0.0335 -0.1133
19892W        W36740   1.076   5.985   3.474  0.1715  0.0725 -0.0526
19893W        W36741  10.185   3.651  14.129  0.2109  0.3459  0.3198
19894W        W36742  15.497  14.687   5.290  0.4324 -0.2144  0.0230
19895W        W36743   5.823   8.656   1.485  0.0768 -0.1975 -0.1354
19896W        W36744   7.819   9.880   1.484  0.0641 -0.2149 -0.2355
19897W        W36745   5.692   1.986  12.272  0.2003  0.0710  0.1627
19898W        W36746  10.754   0.289   1.878  0.0723  0.1018  0.2170
19899W        W36747   1.898   1.804  16.261  0.0292 -0.1789  0.3233
19900W        W36748   1.626   5.884   3.678 -0.0198 -0.0090 -0.0262
19901W        W36749   8.872  16.736  10.746 -0.1743  0.0343 -0.0507
19902W        W36750  14.858   3.253   1.643 -0.1208  0.0601 -0.2878
19903W        W36751   8.007   9.961   3.199  0.1870  0.0520 -0.0083
19904W        W36752   1.514  13.496   4.641 -0.2321  0.1946 -0.1362
19905W        W36753   2.099  11.042   4.417  0.1201 -0.2269  0.2016
19906W        W36754  11.157   2.457  15.825  0.1202  0.1318 -0.0012
19907W        W36755  15.944   6.046   4.582  0.1289 -0.1757 -0.1340
19908W        W36756  16.643  14.969   4.534  0.1682 -0.0738  0.1863
19909W        W36757   0.840  16.900   1.437  0.0967 -0.4682  0.0889
19910W        W36758  10.630  15.009  15.069 -0.0473  0.0621  0.0521
19911W        W36759   4.248   3.432   5.645 -0.1823  0.1189 -0.0716
19912W        W36760   2.825   7.534  10.776  0.2718  0.0327  0.3913
19913W        W36761   3.445  16.479  15.206  0.2617  0.2364 -0.0400
19914W        W36762  15.374   2.985   3.766  0.0827  0.0169 -0.5009
19915W        W36763  14.160   9.968  14.911 -0.0080 -0.1799 -0.1403
19916W        W36764   7.602   8.750   2.203  0.0619 -0.1007 -0.2665
19917W        W36765  11.531  14.603   5.220  0.1032  0.0425  0.2453
19918W        W36766   1.614   0.053   4.043  0.1581  0.0275 -0.1263
19919W        W36767   1.108   9.786  11.408 -0.0885  0.1383 -0.1317
19920W        W36768   4.774  10.968  10.455  0.0375  0.1228  0.2646
19921W        W36769  15.284   6.533  13.434 -0.0517  0.0862  0.1003
19922W        W36770   0.400   4.796  13.237 -0.2169  0.3601  0.0786
19923W        W36771   9.423   1.771  16.449 -0.1556 -0.1066 -0.3683
19924W        W36772  10.870   3.262  13.609  0.0792 -0.2874 -0.1447
19925W        W36773   3.924   2.640   4.823  0.1064  0.1271 -0.0626
19926W        W36774   7.896  14.682  12.116  0.1763  0.1371 -0.3250
19927W        W36775   0.252  16.027   2.300  0.0088  0.1241 -0.0139
19928W        W36776  14.643  12.223  16.481  0.3846 -0.3289 -0.1404
19929W        W36777   8.342  14.258   4.160 -0.3834  0.0669  0.2689
19930W        W36778  11.137  13.658   2.811  0.1978 -0.1449 -0.0683
19931W        W36779  16.130   0.316   0.548  0.0936  0.2555 -0.1894
19932W        W36780  14.785  16.479  12.827 -0.0740 -0.1993  0.0571
19933W        W36781  14.382   6.539   0.187 -0.1445  0.0948 -0.0260
19934W        W36782   1.679  11.987   2.340  0.1233  0.0294  0.3092
19935W        W36783  11.198   3.631   5.743 -0.0043  0.2694  0.2777
19936W        W36784  16.536  13.361  16.428  0.0255 -0.0766 -0.1752
19937W        W36785   6.451   8.023  13.817  0.1863 -0.0333  0.3274
19938W        W36786   8.650   3.893  15.303  0.1842 -0.1506  0.0901
19939W        W36787  13.763   2.081   5.006  0.0886 -0.0648 -0.2738
19940W        W36788  16.640  11.188  13.888 -0.2333  0.0996  0.1379
19941W        W36789   6.834  11.893  13.830 -0.1311 -0.0797 -0.2130
19942W        W36790  12.794   8.916  13.401  0.0686 -0.1679  0.3469
19943W        W36791  17.511  12.061  15.247  0.0292  0.0160  0.1492
19944W        W36792  10.125   6.467   4.355 -0.2099  0.1289 -0.0855
19945W        W36793   6.988   6.913  14.110  0.1318  0.3118  0.2395
19946W        W36794  13.453   0.896  11.609  0.1946 -0.1251  0.0455
19947W        W36795  11.065  11.620   1.536  0.2167  0.0011  0.0663
19948W        W36796  17.356  14.365   1.107 -0.0923 -0.4386  0.1303
19949W        W36797  11.638  14.688  13.900 -0.1575 -0.2854  0.3140
19950W        W36798   3.544   6.906  15.351  0.1004 -0.0238  0.1808
19951W        W36799   6.189   4.386   3.808  0.2044  0.1677 -0.3605
19952W        W36800   4.842   8.801   3.703 -0.2382  0.0052  0.2944
19953W        W36801   6.853   7.631  14.839  0.1232 -0.0418  0.0480
19954W        W36802  12.938  10.026   5.186 -0.1331  0.0209  0.1720
19955W        W36803   6.086   8.965   1.823  0.1182 -0.0219 -0.0302
19956W        W36804  14.239  10.634  13.667 -0.0332 -0.1982  0.0419
19957W        W36805   4.957   2.191   2.120 -0.1188 -0.0744 -0.2531
19958W        W36806   2.983   9.620  13.017 -0.1229 -0.1288 -0.1069
19959W        W36807   8.352   5.011   2.601 -0.3223 -0.1540  0.4318
19960W        W36808   2.861   3.392  11.067  0.0277  0.1443 -0.1907
19961W        W36809   6.255  14.882  13.000  0.1431  0.0564 -0.1008
19962W        W36810  12.705   2.345   4.698  0.1438  0.0632  0.0250
19963W        W36811  16.826   1.896  13.551  0.3700  0.3063  0.4169
19964W        W36812   3.136   7.426  16.314 -0.0008  0.2137 -0.0229
19965W        W36813   2.699   4.633  15.542  0.0165  0.0560  0.0015
19966W        W36814  11.880   5.953  11.888  0.1016  0.0725 -0.0505
19967W        W36815   1.857   9.096  16.037 -0.0728 -0.1983  0.0671
19968W        W36816   4.090   0.530   2.978  0.0330 -0.2204 -0.1118
19969W        W36817  17.143  16.009   5.774  0.1199 -0.3757  0.0122
19970W        W36818  10.094  16.693   4.122 -0.0591  0.2965  0.2977
19971W        W36819  12.777   7.141  13.754 -0.0872  0.2218 -0.0514
19972W        W36820   9.165   2.799   4.681 -0.0904 -0.0998 -0.0367
19973W        W36821  12.493  11.282   4.481 -0.2782 -0.0074 -0.2418
19974W        W36822   0.274  15.548  15.335  0.0635 -0.0359  0.0088
19975W        W36823   1.847  12.082  10.751  0.0123 -0.2589  0.2650
19976W        W36824   4.135   1.840   3.798  0.2584 -0.1347  0.1037
19977W        W36825  13.701  13.529   3.803  0.3852  0.0808  0.0226
19978W        W36826  13.748  13.425   0.861 -0.0114  0.0532 -0.4255
19979W        W36827   9.628   2.591  13.285 -0.0852 -0.1373 -0.2461
19980W        W36828  16.243   8.626   3.201 -0.1466 -0.1568  0.0601
19981W        W36829   4.502   3.985   2.648 -0.3527 -0.0604  0.0651
19982W        W36830  14.154   0.721   2.724 -0.2302 -0.3854  0.2127
19983W        W36831   2.622   9.556  11.450 -0.2849 -0.0776 -0.1855
19984W        W36832   6.583   1.374   2.428 -0.0056 -0.1783  0.0033
19985W        W36833  10.857  17.409   3.217 -0.2839 -0.2777 -0.0776
19986W        W36834  17.621  11.491  16.575 -0.4426 -0.1373 -0.0135
19987W        W36835  11.475   9.723   4.446  0.0568  0.0643 -0.2252
19988W        W36836   5.765   1.194   1.504  0.5899 -0.2047 -0.1029
19989W        W36837  16.943  10.843  11.336 -0.4504 -0.2020 -0.1647
19990W        W36838   3.089   7.198   1.050 -0.1537  0.0275 -0.0873
19991W        W36839  14.704   8.901   5.442 -0.2568 -0.0114 -0.0810
19992W        W36840   2.791   2.255   1.562  0.0837 -0.1501  0.1790
19993W        W36841   0.056   4.425  12.576 -0.0487 -0.0048  0.1527
19994W        W36842   0.233  16.423   0.668  0.2829  0.3890  0.0921
19995W        W36843   6.291  17.001   2.578  0.0225  0.1982 -0.0357
19996W        W36844   3.331   5.144   2.542 -0.1735  0.1624 -0.2842
19997W        W36845  15.547  15.438  11.244  0.1643 -0.1919  0.0304
19998W        W36846   1.918   1.518  13.304  0.0051 -0.0693  0.1220
19999W        W36847   5.124   4.387   4.755  0.0493  0.3125 -0.1204
20000W        W36848  13.616   7.591   4.664  0.3170  0.1206 -0.2208
20001W        W36849   4.124   3.956   3.738  0.2158  0.0624  0.0847
20002W        W36850   8.611  15.388   5.232 -0.2100 -0.0636 -0.2130
20003W        W36851  16.407   1.101   2.928 -0.0442 -0.3076  0.1510
20004W        W36852   1.085   9.009  16.093  0.2207 -0.0174  0.0904
20005W        W36853   8.246  17.302   1.685 -0.1346 -0.2953 -0.0534
20006W        W36854   7.844   4.498   3.127  0.0758 -0.1162  0.1249
20007W        W36855  16.839  11.777  16.284  0.1028 -0.0117  0.0538
20008W        W36856   8.823   7.262  15.463 -0.0116  0.1519  0.0177
20009W        W36857   0.157   4.051   6.011 -0.2126  0.1063 -0.0796
20010W        W36858   9.960  10.869  15.664 -0.0685 -0.0070 -0.0197
20011W        W36859  16.944  17.527   1.927 -0.3867 -0.0666  0.1212
20012W        W36860  17.121   4.482   0.727  0.3363 -0.3228  0.2825
20013W        W36861   2.058   1.709  14.218 -0.0458  0.0684 -0.0501
20014W        W36862  16.503  12.645  11.709  0.0557  0.1755 -0.2137
20015W        W36863   5.424  14.771  16.114 -0.3374 -0.0758 -0.1802
20016W        W36864  17.427  10.486  11.050 -0.0399 -0.0084  0.0616
20017W        W36865  11.489   7.004   4.560 -0.0314 -0.0785  0.0889
20018W        W36866  13.300  10.890   1.927 -0.0364  0.0582 -0.2110
20019W        W36867   5.591   8.360   0.618 -0.1171  0.1657 -0.0727
20020W        W36868  13.859  15.796   2.459  0.0461 -0.2307 -0.1047
20021W        W36869  10.705  11.476   3.938 -0.2330  0.0880 -0.1838
20022W        W36870  13.961   7.909   4.464  0.1459  0.3638 -0.4000
20023W        W36871   4.123   2.042   2.242 -0.0520  0.0673  0.1451
20024W        W36872  14.984  15.980  15.796  0.2392  0.0521 -0.0594
20025W        W36873   4.968  13.810  12.903  0.2704 -0.2456  0.0878
20026W        W36874   0.202   4.984  11.803 -0.0352 -0.2293 -0.1558
20027W        W36875   6.063  13.300  14.422 -0.0101  0.0225  0.4269
20028W        W36876   7.449   6.219   5.046 -0.0471 -0.2392  0.0686
20029W        W36877  14.705  13.399   4.480 -0.1029  0.2294 -0.1148
20030W        W36878   6.485  16.383  16.011 -0.1408  0.2582  0.2000
20031W        W36879   9.887   5.423  12.042 -0.1717 -0.2333  0.0328
20032W        W36880  16.627   7.125  13.558  0.3308  0.0921  0.1233
20033W        W36881  11.478  13.435  15.519  0.0005  0.2585 -0.0448
20034W        W36882   8.062  10.369   0.852 -0.0089 -0.3222 -0.1683
20035W        W36883   2.892   7.918  13.539 -0.1549 -0.0059  0.1277
20036W        W36884   4.329   2.741   3.274  0.1574 -0.1843  0.4140
20037W        W36885   4.736   9.658  12.295 -0.1592  0.0817 -0.2922
20038W        W36886   5.136   0.887  12.310 -0.0188  0.0759 -0.1610
20039W        W36887  14.413   8.654  15.576  0.0893  0.1625 -0.1984
20040W        W36888  15.781  16.977   1.828 -0.2087  0.0130 -0.0073
20041W        W36889  17.084  12.144  12.968  0.1115  0.0083  0.1222
20042W        W36890   6.661  16.443  11.920 -0.2291  0.0335  0.3353
20043W        W36891  10.698   0.472   3.710 -0.0176  0.0825  0.2458
20044W        W36892  16.010  12.838   0.999  0.1626 -0.1160  0.0466
20045W        W36893  12.611   0.628  15.866 -0.1603 -0.1798 -0.0992
20046W        W36894  11.964   9.740   5.394 -0.1264  0.0676 -0.2377
20047W        W36895   5.189   6.953  16.519 -0.0289 -0.2142  0.0042
20048W        W36896  14.245  11.286  11.795  0.0214 -0.0575  0.1565
20049W        W36897  11.654   3.909   4.414  0.0110 -0.0447  0.2554
20050W        W36898   4.003   5.489   2.415  0.1993 -0.1374 -0.2023
20051W        W36899   0.955   9.619  14.945  0.0153 -0.1172  0.0165
20052W        W36900   9.207   5.036   4.440 -0.0598  0.1098 -0.0976
20053W        W36901   4.873  14.817   1.808 -0.0536  0.1390 -0.0007
20054W        W36902   0.377   9.470  15.068  0.1688 -0.0214  0.2059
20055W        W36903   7.519  17.539  13.197  0.0673 -0.0592  0.3259
20056W        W36904   1.044   2.478  10.809  0.0024  0.2082 -0.1000
20057W        W36905   4.136  13.339  11.829 -0.3655  0.0915 -0.0839
20058W        W36906   1.869  13.314   0.761  0.1783  0.0568 -0.0615
20059W        W36907   0.917   2.707   3.499 -0.2850 -0.3108 -0.2891
20060W        W36908  10.157   2.864  11.155 -0.0266  0.0562 -0.0011
20061W        W36909  16.251   5.714  14.755  0.3626  0.2030  0.0670
20062W        W36910  10.920  12.458   4.970 -0.0418 -0.1279 -0.0578
20063W        W36911  16.958  14.749   1.294 -0.2127  0.2647 -0.1462
20064W        W36912   5.292   3.011  11.863 -0.2158  0.1851  0.0562
20065W        W36913   0.376   5.477   4.659  0.0669 -0.2193  0.0068
20066W        W36914   6.497  11.303  12.099 -0.4485  0.0422 -0.0555
20067W        W36915   7.702   3.805   1.370 -0.2399 -0.0498 -0.0049
20068W        W36916  12.318   2.046   5.929  0.0029  0.2671  0.0200
20069W        W36917   8.893   1.594   3.793  0.0178  0.1850 -0.2181
20070W        W36918   3.921   4.968  11.471 -0.0523 -0.1039  0.1487
20071W        W36919   8.120   7.126   3.678 -0.0149  0.1113  0.3929
20072W        W36920   4.153  15.972   2.979  0.0203  0.0404 -0.1982
20073W        W36921  16.810   4.462   2.170 -0.1809  0.0003  0.2395
20074W        W36922  14.711   7.293  15.758 -0.1947  0.2183 -0.0640
20075W        W36923   1.490  12.457   1.724 -0.1656 -0.0687 -0.1538
20076W        W36924   3.694   9.810   4.935 -0.1131 -0.0862 -0.1414
20077W        W36925   6.392  11.737  14.017  0.2136  0.0058 -0.2758
20078W        W36926  11.553  11.165   4.381  0.0731  0.1746  0.0760
20079W        W36927  13.654   7.997  16.160 -0.3865 -0.0262  0.3512
20080W        W36928   6.074   2.154   1.600  0.0132 -0.0659 -0.0862
20081W        W36929   0.779  12.662   2.451  0.0933  0.1758  0.0308
20082W        W36930  14.409  10.070  12.017  0.2466 -0.0432 -0.2413
20083W        W36931  10.085   2.901  13.856 -0.0989  0.2310 -0.1879
20084W        W36932  12.892   0.273   4.098  0.2733  0.1528 -0.3246
20085W        W36933  11.176   0.679   5.876 -0.0392  0.1881 -0.0330
20086W        W36934   7.839  14.279   1.498 -0.0755 -0.0788 -0.4038
20087W        W36935  10.779   0.315  13.303 -0.1410  0.1413 -0.2641
20088W        W36936   9.538   7.658   1.137 -0.1487 -0.0785 -0.1142
20089W        W36937  17.385   1.862  15.801  0.1340  0.1205 -0.1264
20090W        W36938  10.730   7.863   3.279  0.2074  0.0503 -0.3452
20091W        W36939  12.191   8.821  16.246 -0.1560 -0.1148  0.0957
20092W        W36940   3.660  10.388  11.249 -0.1204  0.1069 -0.0210
20093W        W36941   3.816   5.727  12.429 -0.1458  0.2178  0.0436
20094W        W36942   2.541  13.493  14.837  0.2492 -0.0077  0.1669
20095W        W36943   9.213   2.912  12.214  0.1167 -0.0253 -0.0288
20096W        W36944   3.237   7.794  12.135 -0.1391  0.1476 -0.0963
20097W        W36945   0.808   4.809  16.454 -0.1525  0.2993  0.1885
20098W        W36946   3.154   1.639   0.255  0.0813  0.0801 -0.0275
20099W        W36947   7.579  13.696  11.176 -0.2665 -0.1435 -0.2442
20100W        W36948  10.703  13.456  12.191  0.0572 -0.1201 -0.0366
20101W        W36949  10.688   2.519  13.344 -0.0348 -0.2482 -0.0116
20102W        W36950  17.374  17.391  15.929  0.0477  0.2170 -0.0822
20103W        W36951  11.773   9.413  11.971  0.0746  0.3427  0.2312
20104W        W36952   0.977   5.971   2.976 -0.1631 -0.2961  0.1658
20105W        W36953  17.234  16.309   4.001 -0.2687 -0.2633 -0.2707
20106W        W36954   2.882  12.945  12.341 -0.0912 -0.3968 -0.1346
20107W        W36955   2.050  14.420  12.736 -0.1668  0.1045 -0.1679
20108W        W36956   0.441  14.745  12.637  0.2433 -0.1290 -0.0844
20109W        W36957  16.252   9.225  14.357 -0.0177  0.1179 -0.2824
20110W        W36958   0.564   0.969  13.920  0.0201 -0.0097  0.1394
20111W        W36959   1.640  16.190  16.111 -0.0550 -0.1571 -0.0405
20112W        W36960  15.603   3.135  15.701 -0.0523 -0.0795 -0.4807
20113W        W36961  10.253   5.067   4.078 -0.0270  0.1935 -0.0163
20114W        W36962   4.224   6.803  14.713  0.0436 -0.2397 -0.0531
20115W        W36963   1.938  12.991  11.907 -0.1299  0.4983 -0.1695
20116W        W36964  15.054   2.351   2.323  0.2366  0.1044  0.0420
20117W        W36965  12.529   3.426  12.009  0.0606 -0.2595  0.1239
20118W        W36966   3.413  17.221   0.614  0.2013 -0.2834 -0.0356
20119W        W36967   1.891   1.986   4.323 -0.2275  0.0682  0.3003
20120W        W36968   4.071  11.115  12.273  0.1526 -0.1991  0.1811
20121W        W36969   8.971   2.140   4.026 -0.3217  0.0814  0.0853
20122W        W36970  11.087  10.290   5.072 -0.0207 -0.1356 -0.0154
20123W        W36971   1.311   2.419   3.695 -0.1225  0.0602  0.2020
20124W        W36972   9.882  16.842   5.407 -0.0961 -0.2609 -0.2044
20125W        W36973   9.978  16.277  15.349 -0.2582 -0.1529  0.1684
20126W        W36974   0.479  15.173   1.335 -0.0828  0.2238 -0.3172
20127W        W36975   3.873   6.161   4.163  0.1949  0.1171  0.0027
20128W        W36976   7.760  17.340  13.687 -0.0386 -0.0040  0.0948
20129W        W36977   8.331  16.401  15.189  0.0923 -0.1823  0.2873
20130W        W36978   6.656   2.363  12.953 -0.1427  0.0756  0.0402
20131W        W36979   2.320   3.702   0.983 -0.3238  0.1632  0.1218
20132W        W36980  12.757  10.243  12.642 -0.0521 -0.2401 -0.0307
20133W        W36981  13.531   2.302  12.793 -0.1267  0.1024 -0.1359
20134W        W36982   6.800   8.152   4.930  0.0492  0.2449 -0.1825
20135W        W36983  11.564   1.876   3.670  0.2067 -0.1833  0.1855
20136W        W36984   2.010  16.974  13.881  0.0797 -0.0055 -0.0068
20137W        W36985   5.961   2.300  14.833  0.1020 -0.6321  0.3542
20138W        W36986   7.102  13.841   1.682  0.0338  0.2669 -0.5533
20139W        W36987   6.786  17.195   3.022  0.2967  0.1911 -0.3458
20140W        W36988   2.066   2.282   3.056 -0.2425  0.1523  0.1415
20141W        W36989   7.920   6.148   0.101 -0.0499 -0.3364 -0.1378
20142W        W36990   6.692   0.244   1.927  0.1859  0.2525 -0.1194
20143W        W36991   5.757  16.683   4.132 -0.0434  0.1228 -0.2949
20144W        W36992  16.868   7.458   4.809 -0.1403 -0.0787  0.2514
20145W        W36993   4.457  14.556   3.111 -0.3173  0.1622 -0.2057
20146W        W36994   8.504  14.785   4.408 -0.3644  0.2952 -0.1088
20147W        W36995   4.293   9.944   4.559  0.3237  0.1304 -0.1389
20148W        W36996  17.146  14.258   6.054  0.3105  0.1040  0.1488
20149W        W36997   0.229  14.288  11.449  0.2491  0.1731 -0.3929
20150W        W36998  12.472  14.791  15.325 -0.0654 -0.1890 -0.1507
20151W        W36999   1.534  11.904   1.385 -0.1264 -0.1943 -0.5967
20152W        W37000  10.189   5.985   1.229 -0.2548  0.2133 -0.0329
20153W        W37001   9.314  17.679   2.224 -0.0274 -0.1142 -0.1955
20154W        W37002  12.129  16.818  15.934  0.3250  0.3155 -0.2079
20155W        W37003  14.786  12.615  11.321 -0.1453 -0.0789 -0.0454
20156W        W37004   4.372  10.148  13.369 -0.1571 -0.0817  0.1899
20157W        W37005  15.126  10.391   4.273 -0.1384  0.0365 -0.0150
20158W        W37006  15.985  10.155  14.866  0.0469 -0.0448 -0.0814
20159W        W37007   5.597   9.072  15.073 -0.3322 -0.0672 -0.0835
20160W        W37008   3.581  16.747   0.897 -0.0695  0.1499 -0.3812
20161W        W37009   7.360   8.558   0.690 -0.2319  0.4123 -0.3335
20162W        W37010   2.558   5.619  15.631  0.5258  0.0807 -0.0292
20163W        W37011  16.746   3.926  13.457 -0.1243 -0.0497 -0.0250
20164W        W37012   9.567   6.325   0.609 -0.0480  0.2302  0.1082
20165W        W37013   4.928   3.599  14.783  0.0331 -0.0465 -0.1779
20166W        W37014  16.561   2.091  15.572  0.3936  0.0290 -0.0768
20167W        W37015   6.106  10.947   1.684  0.2956 -0.0989 -0.2075
20168W        W37016  14.013   1.355   2.014  0.1178 -0.0875 -0.1382
20169W        W37017   0.430  16.308  10.593  0.1825  0.0611  0.3682
20170W        W37018  11.274   2.391   4.867  0.0106  0.1296 -0.0418
20171W        W37019   4.603  11.020  14.742  0.0987  0.1562 -0.2211
20172W        W37020   9.711  11.783   4.083  0.1400 -0.0371 -0.0801
20173W        W37021   9.033  14.430   5.469  0.3316  0.2290  0.1606
20174W        W37022   6.422   2.681   5.348  0.4821  0.1947  0.0153
20175W        W37023   2.192  16.195   5.295  0.1389 -0.0446 -0.0528
20176W        W37024   5.657  17.433  12.758 -0.3976 -0.2425  0.1617
20177W        W37025   1.290  16.703  12.219 -0.1155  0.1885  0.0066
20178W        W37026   5.753   2.285  11.741 -0.0548 -0.0283 -0.1322
20179W        W37027   0.718   8.745  13.872  0.0672 -0.1634  0.2184
20180W        W37028  14.296  15.423   2.193  0.0578  0.1622 -0.1196
20181W        W37029   7.316   1.399  15.000  0.0770 -0.1209 -0.0876
20182W        W37030  17.640  15.570   3.398 -0.1057  0.2288  0.0631
20183W        W37031   1.209   6.563   4.695  0.3838  0.2715  0.0967
20184W        W37032   3.155  10.951  12.609 -0.0109  0.1224 -0.4722
20185W        W37033   2.751  12.124  16.612  0.1921 -0.0518 -0.0888
20186W        W37034  16.923  13.986   2.541  0.2482 -0.1406  0.0368
20187W        W37035   8.752   7.932   4.737 -0.2030 -0.2804 -0.0611
20188W        W37036  11.066   9.799  11.693 -0.0836 -0.2653  0.0620
20189W        W37037   2.140   3.654  16.176  0.0033  0.1420 -0.0931
20190W        W37038  17.662  15.543  12.708  0.1310  0.2545 -0.2329
20191W        W37039   6.294  12.930   0.106 -0.0388 -0.3240 -0.1766
20192W        W37040   4.255   2.712   4.432  0.1993  0.4235 -0.1062
20193W        W37041   6.685   2.053  15.030  0.2155  0.1032  0.2403
20194W        W37042   3.084   6.587   3.825  0.1900 -0.2871 -0.0475
20195W        W37043   6.974   1.821  16.235 -0.4086 -0.1441 -0.0109
20196W        W37044   5.338  15.843   2.332  0.0306 -0.2025 -0.3148
20197W        W37045   4.123   1.384   1.576  0.3406 -0.0710  0.3817
20198W        W37046  13.968   0.162   2.075  0.0075 -0.1846 -0.2998
20199W        W37047   8.767   2.374  11.490 -0.0068  0.0800 -0.1109
20200W        W37048  15.458   8.097  12.391 -0.2664 -0.1465 -0.1205
20201W        W37049   9.316  17.090   0.122 -0.0697 -0.2523 -0.0726
20202W        W37050  10.226   2.675  12.085 -0.0633 -0.0295  0.1819
20203W        W37051  15.392   1.221   3.563  0.3064  0.1026  0.1629
20204W        W37052   3.569   9.450   5.848  0.4061 -0.1830 -0.1943
20205W        W37053   9.065   2.943   5.522  0.2273 -0.3171  0.0616
20206W        W37054   2.191   3.728  14.377 -0.1233  0.2178 -0.1296
20207W        W37055  15.636   3.090   0.082 -0.0132 -0.0043  0.0247
20208W        W37056   9.559   8.878  12.186  0.1288  0.4453  0.0412
20209W        W37057   2.104   6.330   1.372  0.1486 -0.0596 -0.0903
20210W        W37058  17.441  14.852  11.964  0.2279 -0.1769  0.2723
20211W        W37059  10.120  13.567   0.040  0.1023  0.1805  0.0975
20212W        W37060   0.675   0.036   0.945  0.0094  0.0561  0.3286
20213W        W37061  12.598   6.743   1.167  0.2202 -0.0942  0.1467
20214W        W37062  14.575  17.054   0.582  0.2301  0.2215  0.2690
20215W        W37063  12.783  17.404   0.836 -0.0473 -0.0523 -0.1097
20216W        W37064  16.999  16.932  16.657  0.0512  0.0077 -0.1119
20217W        W37065   7.297   6.325   1.335  0.1099  0.0190 -0.1233
20218W        W37066  15.506   5.403   2.153 -0.0200 -0.1062 -0.0981
20219W        W37067   7.243   6.085  12.255 -0.1264 -0.1406 -0.0479
20220W        W37068  10.677  10.934   3.927  0.1646 -0.2626  0.0773
20221W        W37069  16.799  10.515  14.770 -0.0210 -0.1432  0.1462
20222W        W37070  15.538   8.580   1.938  0.1879  0.0344 -0.1143
20223W        W37071   3.479  10.836  16.087 -0.0628  0.4939  0.1332
20224W        W37072  17.235  14.303   2.251  0.0818  0.1119  0.1599
20225W        W37073   8.691   8.193  13.181  0.0212  0.1426  0.2045
20226W        W37074  16.053  15.214  11.878  0.2953  0.1814  0.0654
20227W        W37075  11.828  13.185   3.557 -0.1710  0.0527 -0.0562
20228W        W37076   1.753   3.332  14.352 -0.2270 -0.2127 -0.1122
20229W        W37077  10.606   7.815  15.366 -0.0512 -0.1340  0.0096
20230W        W37078  14.030  10.873   3.116 -0.1655 -0.1151  0.0937
20231W        W37079  12.045   6.961  14.410  0.1539  0.0609 -0.0988
20232W        W37080  14.826  12.374   2.855  0.1702  0.2056 -0.2126
20233W        W37081   1.805   0.992  16.429 -0.1532  0.2337 -0.0766
20234W        W37082   7.540  16.432  11.888  0.2059 -0.0387  0.1632
20235W        W37083   3.720   0.899  13.789  0.0342 -0.3743 -0.1365
20236W        W37084   9.408  15.601   4.799  0.0076 -0.0215  0.3103
20237W        W37085   6.126   2.983   0.161 -0.0317  0.4701 -0.1133
20238W        W37086   6.295  10.617  11.833  0.4217  0.1567 -0.1626
20239W        W37087   7.453   8.597  13.428  0.2474  0.2640 -0.1353
20240W        W37088   2.396   3.118   5.306 -0.2105 -0.2381  0.3614
20241W        W37089   1.310   4.418   0.517 -0.1687 -0.1369  0.1195
20242W        W37090   9.913   3.006  13.344  0.0358 -0.1140  0.1073
20243W        W37091  12.717  16.030   4.924 -0.1050  0.1407  0.3898
20244W        W37092  14.403   8.290  12.564 -0.0344 -0.0190 -0.0335
20245W        W37093  11.978  15.791   0.091 -0.2215 -0.2670 -0.0105
20246W        W37094   2.079  15.170   5.890  0.0193  0.1414 -0.0365
20247W        W37095  10.137   8.871  16.629  0.2586 -0.0278  0.2037
20248W        W37096   0.834   6.223   0.190  0.2623  0.2027 -0.1162
20249W        W37097  14.738   8.665   4.037 -0.2097  0.3281  0.2389
20250W        W37098   4.166   5.093  12.444  0.2527 -0.0173  0.1182
20251W        W37099   9.951  13.225  11.572  0.1124  0.2195 -0.0231
20252W        W37100  11.804  15.115  14.314  0.1402 -0.0317  0.0509
20253W        W37101  12.157  16.777   0.371 -0.1819  0.1033 -0.0610
20254W        W37102   5.141   8.623   1.638 -0.2028  0.0753 -0.0932
20255W        W37103  14.945   6.316   2.773 -0.0331 -0.0868  0.1040
20256W        W37104  10.121   0.995  14.353  0.0664 -0.1161 -0.1075
20257W        W37105  15.865   2.712   0.853  0.0514 -0.2045  0.3032
20258W        W37106  16.122   6.204   1.262 -0.0087 -0.0101 -0.0769
20259W        W37107   1.860   8.417   3.239  0.0927  0.1593  0.0677
20260W        W37108   5.911  14.921   5.303 -0.0629  0.1036 -0.5479
20261W        W37109   0.787   9.686   4.313 -0.3224 -0.2545 -0.2616
20262W        W37110  10.103   3.844   0.572 -0.1877 -0.1256 -0.3949
20263W        W37111  12.371  11.485   3.995  0.0595 -0.0855 -0.5536
20264W        W37112   0.925  12.492   5.010 -0.3254  0.0425 -0.0734
20265W        W37113  10.431   7.360   0.890 -0.1488 -0.1157  0.0697
20266W        W37114   9.876   9.989   4.256  0.2833  0.0486  0.0183
20267W        W37115  10.416  15.831   1.894 -0.0425 -0.0042  0.0555
20268W        W37116  12.782   5.777   1.976  0.0080  0.0376 -0.0490
20269W        W37117  10.103   4.836  12.868 -0.2196 -0.2378 -0.3130
20270W        W37118  10.765   4.246  11.330 -0.2788 -0.0466 -0.0267
20271W        W37119  10.519   9.145   1.920  0.1082  0.0583 -0.2112
20272W        W37120   4.358  13.393   2.412  0.1540 -0.2196 -0.2471
20273W        W37121  17.336   6.703  11.927 -0.1757  0.0995  0.2930
20274W        W37122   5.349   7.785   0.174  0.1070  0.2668 -0.2537
20275W        W37123  12.582   6.526  15.861 -0.1655 -0.2792 -0.1183
20276W        W37124  14.462  11.576   4.847  0.0041  0.0888 -0.1637
20277W        W37125   5.654  15.190   4.079  0.0737  0.1801  0.0470
20278W        W37126   2.914   6.460  16.515  0.1097  0.1329  0.2947
20279W        W37127  13.012   7.129   1.258 -0.2576  0.0322 -0.2040
20280W        W37128   0.777   9.085   2.347 -0.0910 -0.1114 -0.2361
20281W        W37129   2.534  13.860   1.968 -0.0391  0.1973  0.0050
20282W        W37130  13.796   2.988  16.187 -0.0733 -0.0595  0.2072
20283W        W37131   9.307   5.280   0.025  0.3285 -0.1477 -0.0380
20284W        W37132   4.241  15.701  16.324 -0.1637  0.1830 -0.1687
20285W        W37133  16.328  10.106  13.870 -0.1930 -0.0060  0.0197
20286W        W37134   3.720  16.862   3.140  0.6113  0.1772  0.1616
20287W        W37135   3.776   2.147  15.670 -0.0957  0.3368  0.2418
20288W        W37136   9.337  13.882  14.804  0.0739 -0.1826  0.2628
20289W        W37137  14.463   5.825   0.333 -0.1706 -0.1178  0.0431
20290W        W37138  10.595   3.791  11.620 -0.1238  0.4791  0.1871
20291W        W37139   3.707   2.688   5.363 -0.2857 -0.5569 -0.0086
20292W        W37140   3.050   6.708   2.129 -0.1557 -0.1659 -0.0253
20293W        W37141   7.878   0.336   1.373 -0.2140  0.0388  0.0789
20294W        W37142   3.630  12.534   1.667  0.4884 -0.2203 -0.0383
20295W        W37143  17.062   8.810  14.805 -0.1691  0.1119 -0.5428
20296W        W37144   0.404   0.626   3.215  0.2032 -0.3757 -0.1096
20297W        W37145   8.014  16.815  16.404  0.0083  0.0519 -0.1138
20298W        W37146   1.395   6.408  15.783  0.1173 -0.2003  0.1695
20299W        W37147   9.304  14.201   2.584  0.0647  0.1396  0.0382
20300W        W37148   9.924  13.627  13.354  0.0093 -0.0989  0.1596
20301W        W37149   8.316  17.095  15.576 -0.1649 -0.0599 -0.1563
20302W        W37150   8.594  15.040  12.535 -0.2268  0.3312  0.1402
20303W        W37151  10.489   8.417  14.889  0.0934 -0.2852  0.0877
20304W        W37152  15.608  15.170   0.874 -0.1018 -0.4400  0.3067
20305W        W37153  11.039   8.195   5.065 -0.1327  0.2543 -0.1480
20306W        W37154   7.120   3.373   2.064  0.1415 -0.0267  0.1102
20307W        W37155   3.618  17.158  12.593 -0.1890 -0.2174 -0.2792
20308W        W37156   8.559   7.015   3.496 -0.2508  0.3544 -0.1224
20309W        W37157  11.609  11.080  14.336 -0.0901 -0.2371 -0.1024
20310W        W37158  17.687   8.947   1.955 -0.1481 -0.1234 -0.0443
20311W        W37159  12.051   3.805   0.287 -0.0726  0.0344  0.1222
20312W        W37160   2.100   2.809   1.341 -0.2268 -0.1378 -0.1480
20313W        W37161   9.780   2.959   4.298  0.0854  0.0832  0.2575
20314W        W37162  14.236   5.282   4.001 -0.0320  0.0795 -0.1502
20315W        W37163  12.005   7.776   3.416 -0.1969 -0.0724  0.1945
20316W        W37164  11.797   0.003   0.805 -0.1898  0.1293  0.0046
20317W        W37165   8.298  15.815  14.543 -0.0345  0.0693 -0.1313
20318W        W37166   5.971  13.200   5.816  0.2741 -0.2019 -0.0371
20319W        W37167   1.579  16.363   2.877  0.1489  0.0973 -0.0910
20320W        W37168   6.993  13.419   2.635 -0.0905 -0.2920 -0.1065
20321W        W37169  12.183   7.344   1.707 -0.0868 -0.2101  0.2012
20322W        W37170  12.446  15.815  15.487 -0.1875 -0.0645 -0.0175
20323W        W37171   4.895   2.230  12.242  0.1011 -0.0534 -0.2531
20324W        W37172  15.826   0.315   1.841 -0.2033  0.1760 -0.0811
20325W        W37173  11.957   6.270   3.566 -0.0954  0.1348  0.2279
20326W        W37174  13.074   9.074   5.553 -0.1620  0.0461  0.2904
20327W        W37175   0.297  12.550  15.791 -0.1792  0.2668 -0.0997
20328W        W37176  11.406   3.636  14.611 -0.3182 -0.0156 -0.0715
20329W        W37177  17.678  10.304   1.232 -0.0451  0.1344 -0.0389
20330W        W37178   6.265   4.489  15.529 -0.2629 -0.1697  0.1092
20331W        W37179   8.052   5.380  10.687  0.1304 -0.1951  0.0384
20332W        W37180  11.400   9.556  16.172  0.1045  0.2012 -0.0972
20333W        W37181   1.126  11.106   2.311  0.3245 -0.1042 -0.1160
20334W        W37182  13.709  16.918   4.875  0.0013  0.0366 -0.0879
20335W        W37183  16.020   8.625   1.689  0.2273 -0.0972 -0.1301
20336W        W37184  14.038  13.309  11.809 -0.1031 -0.2785  0.3715
20337W        W37185   8.810  12.547   2.204  0.3139  0.1307 -0.1820
20338W        W37186  13.941  12.574  14.768 -0.1870  0.0549 -0.3139
20339W        W37187  12.071  16.184  11.494  0.0892 -0.0425  0.1821
20340W        W37188   5.251  16.328  14.410  0.1063  0.3480  0.0271
20341W        W37189   4.886   1.429  14.575 -0.1563  0.0129 -0.0961
20342W        W37190   7.084   4.859  16.225  0.1523 -0.0834  0.0151
20343W        W37191  17.267   9.195  14.514 -0.3669 -0.0939 -0.1436
20344W        W37192   2.380  10.356  15.234  0.2792  0.0998 -0.1205
20345W        W37193   4.307   9.836  11.085 -0.0828  0.0256  0.0798
20346W        W37194  12.109  17.616   3.719 -0.1458  0.0663 -0.1898
20347W        W37195   6.319   5.243   2.428  0.0280  0.0013  0.1883
20348W        W37196   3.732  16.431   1.974  0.2755 -0.0443 -0.3255
20349W        W37197  17.148   7.146   4.272 -0.2733 -0.1496  0.1185
20350W        W37198   2.382  11.746   1.182  0.0539  0.0085  0.2937
20351W        W37199  15.300  16.337  10.924 -0.0200 -0.0565  0.0175
20352W        W37200   0.545   9.962  15.066  0.0139 -0.1890 -0.0795
20353W        W37201  15.229  14.676  14.896 -0.2584  0.4203  0.1313
20354W        W37202  15.009   4.331   0.650 -0.3772  0.0490  0.3492
20355W        W37203   0.581  15.529   0.973  0.2295 -0.1648  0.0322
20356W        W37204   4.500  12.943  11.973  0.0951 -0.2917 -0.0595
20357W        W37205   9.363  15.472   1.369 -0.1639 -0.6309  0.2951
20358W        W37206  13.793  11.154   2.647 -0.1901  0.2046 -0.0547
20359W        W37207   7.912  11.161  12.024 -0.1041 -0.0928 -0.1134
20360W        W37208  11.165  11.781  15.596 -0.2087  0.2251  0.0983
20361W        W37209   7.433   1.016  16.183 -0.4263  0.0307  0.0490
20362W        W37210  14.490  11.325   4.354 -0.0946 -0.2241 -0.4851
20363W        W37211   3.273  10.765  16.650  0.0136  0.0660  0.1542
20364W        W37212   0.754   2.629  11.704 -0.0412 -0.1717 -0.1677
20365W        W37213   5.939   6.157  12.852 -0.0895 -0.1285  0.3996
20366W        W37214  15.152  15.176  14.871 -0.1464 -0.3113  0.1036
20367W        W37215  17.188   2.699   2.825  0.3961  0.0902  0.0452
20368W        W37216   3.883   8.127   1.247  0.1867 -0.0127 -0.1741
20369W        W37217  15.584   9.988   2.195  0.4616 -0.1180 -0.0478
20370W        W37218  15.544  13.899   3.298  0.2103 -0.2892 -0.1657
20371W        W37219  12.071  13.431  13.274 -0.1420 -0.1168  0.2886
20372W        W37220   7.152   8.577   4.851  0.2415 -0.1580  0.0631
20373W        W37221   2.856   0.027   0.198 -0.1147 -0.1345 -0.3319
20374W        W37222  12.616  16.925   0.808 -0.1146  0.0491 -0.2570
20375W        W37223   1.951   9.123  15.000 -0.0526  0.1905  0.1588
20376W        W37224  15.411   6.473   3.176  0.0324  0.0093 -0.1450
20377W        W37225   6.531  16.198  12.914 -0.1392  0.1995  0.1203
20378W        W37226   9.367   5.096   2.485 -0.1205  0.0546 -0.1052
20379W        W37227   2.854   4.845   2.381  0.0591 -0.0095 -0.3440
20380W        W37228   9.052   8.389  15.981  0.1749 -0.1079  0.0811
20381W        W37229   3.135   0.849  13.923 -0.0737 -0.2945 -0.1758
20382W        W37230   7.840  17.273   2.007 -0.4196 -0.0598  0.2328
20383W        W37231  16.746  15.588  16.463  0.2178  0.0157 -0.0373
20384W        W37232  16.976  16.431   3.099  0.1137 -0.1989 -0.2247
20385W        W37233  12.909  15.014  15.524 -0.1252  0.2785  0.1147
20386W        W37234  12.761   7.005   3.195  0.1792  0.2219  0.4523
20387W        W37235   2.024   4.170  11.806  0.3816  0.2449 -0.1541
20388W        W37236   9.075   0.574  10.777 -0.2787 -0.3120 -0.4541
20389W        W37237   2.255  13.750   1.197 -0.0067 -0.0209 -0.0371
20390W        W37238  14.242  10.898   1.755  0.0807  0.0697 -0.0228
20391W        W37239  17.630   8.693   2.369 -0.0852 -0.1176 -0.1373
20392W        W37240   9.416   1.156   4.108 -0.0628 -0.0434 -0.0276
20393W        W37241   0.916   0.251  15.979  0.0564 -0.2435 -0.2135
20394W        W37242  10.746  13.444  15.484 -0.2428 -0.1191  0.2292
20395W        W37243  15.144   9.826  11.495  0.0964  0.0863  0.2728
20396W        W37244   2.625   3.459  16.090 -0.0872  0.0373  0.0881
20397W        W37245  12.263  12.610  16.001 -0.1398 -0.1239 -0.1125
20398W        W37246   1.454   8.990   0.818 -0.0018  0.1675 -0.0997
20399W        W37247  13.287   2.584   4.663  0.2297 -0.1141  0.0781
20400W        W37248   6.539   6.692  15.499 -0.0054  0.2972  0.0066
20401W        W37249   2.786   1.321   2.083  0.1513 -0.0882 -0.0873
20402W        W37250   8.299   3.644   3.024 -0.3261 -0.1402 -0.2457
20403W        W37251   9.933   9.856  15.464  0.1602 -0.0980  0.2255
20404W        W37252   6.358   9.137   2.429  0.3140 -0.1912  0.1071
20405W        W37253   1.244  14.601  14.139 -0.0123 -0.2737  0.0863
20406W        W37254  16.842  13.088  15.620  0.2915 -0.1603  0.0443
20407W        W37255   5.162   3.020   0.297  0.0757  0.0120  0.2813
20408W        W37256   9.342  13.917  12.794 -0.3001  0.1061 -0.3540
20409W        W37257  13.564   3.543  12.895  0.0137 -0.0928  0.1481
20410W        W37258   2.563   4.039  14.215 -0.1887  0.3164 -0.1031
20411W        W37259   0.025   5.812   1.658 -0.1228  0.1723  0.3164
20412W        W37260   9.755  17.478   2.463 -0.1813 -0.2948 -0.2057
20413W        W37261   7.327   7.365   0.066  0.2163 -0.2671  0.1930
20414W        W37262   7.683   9.259  12.856 -0.1632  0.0763 -0.1412
20415W        W37263  17.431   3.383   0.082  0.0821 -0.0092 -0.1368
20416W        W37264   8.778   6.953   4.614 -0.0119  0.0711  0.3280
20417W        W37265  15.998  15.189   2.149  0.0991 -0.0631  0.0078
20418W        W37266   6.115  10.447  14.497 -0.1945  0.3082 -0.1348
20419W        W37267   6.211  12.160  12.185  0.2013 -0.0756 -0.2045
20420W        W37268  10.559  17.121   0.518 -0.0337 -0.2286 -0.1322
20421W        W37269   6.065  11.013  13.623 -0.2046 -0.2107  0.0875
20422W        W37270  13.871   8.287  12.494  0.2169  0.1316 -0.1180
20423W        W37271   7.458  17.143   1.693 -0.1442 -0.2129  0.1668
20424W        W37272   4.264   7.245   3.161 -0.1174  0.0228  0.2097
20425W        W37273  14.645   1.864   4.737  0.0684 -0.1426  0.0049
20426W        W37274   7.939  11.472   4.963 -0.0213  0.2674 -0.0106
20427W        W37275  16.493   8.284   0.180 -0.0767  0.0050 -0.1717
20428W        W37276   4.032   2.848   3.671  0.2991  0.1514  0.0784
20429W        W37277  10.244   4.388  11.349  0.2003  0.1004  0.2313
20430W        W37278   8.452   0.831   3.801  0.1274 -0.0553 -0.1860
20431W        W37279   7.694  14.360   0.617  0.0355 -0.2348 -0.0468
20432W        W37280   9.903   7.802   2.606  0.0580 -0.0783  0.1073
20433W        W37281   5.974  13.785   4.079 -0.0972  0.0203 -0.0232
20434W        W37282   4.693  15.624   2.431 -0.1806 -0.1086 -0.0386
20435W        W37283  12.163   7.162  15.517  0.0196  0.2629 -0.2045
20436W        W37284   1.855   6.496  15.606  0.1215  0.0865  0.0341
20437W        W37285   7.831   7.163  11.596  0.0673  0.2646  0.0815
20438W        W37286   6.777  13.141   3.032 -0.3185 -0.0953 -0.2280
20439W        W37287   8.641  15.958  11.238 -0.0591  0.0560 -0.3214
20440W        W37288  17.381   6.627  11.411 -0.3723  0.0015  0.1516
20441W        W37289  11.046   6.801   4.771  0.2152 -0.0650 -0.0795
20442W        W37290   0.637   6.230   0.884 -0.0362 -0.1614  0.0876
20443W        W37291   4.141  10.692  12.584  0.2588  0.0511  0.1472
20444W        W37292   7.158  15.485   3.789 -0.3166  0.1581  0.1576
20445W        W37293   9.920  15.084   0.680  0.0840  0.0994 -0.2774
20446W        W37294  11.580   4.096   5.407 -0.1510 -0.2961  0.1415
20447W        W37295   9.140  13.835  12.264 -0.1189  0.1327 -0.3796
20448W        W37296   1.814  16.787  11.928 -0.2608 -0.2298 -0.3816
20449W        W37297   0.360   3.648  15.279  0.0682  0.2296 -0.1171
20450W        W37298   8.669   9.979  11.552  0.3259  0.2119 -0.3239
20451W        W37299  16.070   8.183  12.902  0.1896  0.2232 -0.0257
20452W        W37300  16.022   2.796  13.041 -0.0318 -0.0782  0.0136
20453W        W37301   8.001   5.434  13.259 -0.2151  0.1730  0.0016
20454W        W37302  10.678   4.184   1.684 -0.0681 -0.1487 -0.3251
20455W        W37303  16.875   6.798   1.223  0.2312  0.0716 -0.4150
20456W        W37304   5.338  15.272  10.628 -0.0209 -0.2038  0.2658
20457W        W37305   2.296   7.889  15.674 -0.2316 -0.2416  0.1785
20458W        W37306   0.438   4.481   0.674 -0.1401  0.2947  0.0871
20459W        W37307   7.175   4.896  12.039  0.1552 -0.3341 -0.1113
20460W        W37308   9.542   1.589   4.525  0.1677 -0.0377  0.1012
20461W        W37309  16.116   2.704   4.138 -0.0052  0.0443 -0.1217
20462W        W37310   0.662  12.682  13.027 -0.1301  0.1423 -0.1786
20463W        W37311   6.771  11.907  11.605  0.3686 -0.1732  0.2909
20464W        W37312  14.181   3.461  13.404  0.0709 -0.1298 -0.0702
20465W        W37313  10.917  13.817   2.283 -0.0245 -0.0646 -0.1797
20466W        W37314  15.455   4.376   0.354 -0.1442  0.0235 -0.3125
20467W        W37315   9.434   3.204  12.657  0.1959 -0.1700 -0.3254
20468W        W37316   2.361  15.320  15.512 -0.1195  0.3357 -0.1353
20469W        W37317   7.323   6.964   2.391 -0.2707  0.2842 -0.0604
20470W        W37318  16.559   9.308   0.165 -0.1769  0.1028  0.1410
20471W        W37319   3.124  15.606   3.852 -0.0808  0.2449 -0.0217
20472W        W37320  10.094  11.582  14.095  0.1237 -0.2328 -0.0470
20473W        W37321  11.406   7.330  16.021  0.0071 -0.1270  0.2410
20474W        W37322   7.252  16.701  16.317 -0.0575 -0.1081 -0.1475
20475W        W37323   7.329   5.103   0.369  0.0933  0.3095 -0.1736
20476W        W37324   3.343  15.286   3.542  0.0981  0.0800  0.0425
20477W        W37325  17.224   6.622  14.091 -0.2600  0.0234 -0.0219
20478W        W37326  10.453   7.448   2.638  0.0673 -0.1289  0.3118
20479W        W37327   5.379   8.773  14.668  0.2131 -0.1645 -0.1510
20480W        W37328  11.474  13.115   0.059  0.0605  0.1764  0.2793
20481W        W37329  11.684   9.810   5.001  0.0394 -0.1338  0.0490
20482W        W37330   2.798   2.663  12.158 -0.0956  0.0695 -0.2662
20483W        W37331  14.236   6.620   4.972  0.0400 -0.1494  0.0255
20484W        W37332   9.480  12.680  12.220  0.0639 -0.0566  0.0341
20485W        W37333  13.662   9.181   3.826  0.1405  0.1126  0.1981
20486W        W37334  10.822   7.642   0.209 -0.0970 -0.0916  0.1967
20487W        W37335  11.873  15.254   4.366  0.1337  0.1169 -0.1157
20488W        W37336   5.254  14.129   3.284  0.0493  0.3739  0.1622
20489W        W37337   3.420   8.947  15.429  0.2465 -0.1504 -0.1088
20490W        W37338   2.673   5.071   4.875 -0.2064 -0.1591 -0.1412
20491W        W37339   9.274  14.359   1.049 -0.0222 -0.0164  0.1498
20492W        W37340  11.565   7.367  14.513  0.3243  0.2853  0.0162
20493W        W37341  11.615   3.900   1.289 -0.2722  0.1451  0.1056
20494W        W37342   9.430   7.435  16.213 -0.0161  0.1304 -0.0769
20495W        W37343   4.480   0.422   2.049 -0.0600  0.0871  0.1631
20496W        W37344   5.593   3.981  11.996  0.0214 -0.2936  0.1126
20497W        W37345  11.378  12.310  11.887 -0.1973 -0.1521 -0.1743
20498W        W37346   3.454   9.125  14.332 -0.2297 -0.0793  0.0920
20499W        W37347   6.068   6.781   3.145  0.0766 -0.0937 -0.1001
20500W        W37348   7.518  14.584  12.426  0.3618 -0.1410 -0.2504
20501W        W37349   7.175   2.907   1.817 -0.0601  0.0240  0.0304
20502W        W37350   2.116  10.733  11.233  0.0663 -0.1002  0.1877
20503W        W37351   2.285   4.627   4.034  0.2786 -0.0257 -0.3391
20504W        W37352   6.846   1.605   4.511  0.1060 -0.1276 -0.2103
20505W        W37353  15.728  10.251   2.825 -0.0987 -0.1654 -0.0318
20506W        W37354   1.321   7.079  16.495  0.1885 -0.0322  0.0584
20507W        W37355  11.020   4.671   5.178 -0.0563  0.2479 -0.1637
20508W        W37356  17.295   9.614  12.930 -0.0267 -0.0790  0.0274
20509W        W37357   9.453  13.278  11.616  0.2566  0.0781  0.1636
20510W        W37358  12.707  16.687  13.949  0.1421 -0.1451 -0.0474
20511W        W37359   6.487   1.412   1.908 -0.2427 -0.0425  0.1359
20512W        W37360   4.635   1.077   1.324  0.1177  0.0988  0.0337
20513W        W37361  17.363   2.980  14.386  0.0410 -0.0072  0.1026
20514W        W37362  12.366  11.680   3.156  0.3499 -0.0486 -0.2206
20515W        W37363  15.396   5.539   1.161 -0.1904 -0.0296 -0.0848
20516W        W37364   7.473   2.451   5.155  0.2593 -0.0973  0.2249
20517W        W37365  12.513   5.313   5.082  0.4098  0.1044  0.0649
20518W        W37366  13.856  13.948  15.447 -0.0687 -0.1630 -0.0153
20519W        W37367   8.352   3.303   1.412 -0.0422 -0.0093  0.2620
20520W        W37368   7.597   6.765   2.772  0.1590 -0.1622 -0.2458
20521W        W37369   3.666  15.308  12.447  0.0999  0.0218 -0.1179
20522W        W37370   4.789   7.138   4.059  0.3147  0.2731 -0.1633
20523W        W37371  16.198   7.640   2.032 -0.0364  0.0317  0.1260
20524W        W37372  12.121  12.482  11.397  0.1920 -0.0117  0.3972
20525W        W37373   1.586  14.486  15.079 -0.0239  0.0031 -0.1423
20526W        W37374   1.572   1.579   4.362  0.0870  0.2844 -0.1015
20527W        W37375   9.649   7.346  12.022  0.1004  0.0336  0.3037
20528W        W37376   0.390   1.461  16.163  0.0339  0.0817  0.0929
20529W        W37377   6.146  11.481   3.281 -0.0903 -0.3719  0.1601
20530W        W37378   8.705   7.541   1.459 -0.0661 -0.2736  0.0842
20531W        W37379  12.036   0.968  12.311 -0.1569  0.0050  0.2094
20532W        W37380  14.308   3.475   5.119 -0.1375  0.1025 -0.2115
20533W        W37381   5.498  13.637   5.616  0.2538  0.1087  0.2545
20534W        W37382   2.907   5.124  15.625 -0.1694  0.0376 -0.0433
20535W        W37383   6.429   6.174   1.990  0.1651  0.3623 -0.1946
20536W        W37384   9.204   0.575  13.529 -0.0201 -0.5398  0.0716
20537W        W37385  12.587  17.664   0.432 -0.0979  0.0854  0.1213
20538W        W37386   4.091   7.274  16.481 -0.0145  0.1240 -0.0857
20539W        W37387  15.116   8.755  13.507 -0.1335  0.3221 -0.1307
20540W        W37388   0.560  17.329  12.806 -0.0796 -0.2114 -0.0585
20541W        W37389  11.693   8.506   2.232 -0.1452  0.0978 -0.1334
20542W        W37390  10.893   3.039   3.582 -0.2918  0.0462  0.0031
20543W        W37391   7.483  12.906   6.404  0.0511 -0.0988 -0.0556
20544W        W37392   5.951  12.094  15.202  0.0264  0.2940 -0.0143
20545W        W37393   8.302   8.632  13.963  0.1228 -0.0889  0.1592
20546W        W37394  17.700  11.264   2.121  0.0125  0.3226 -0.2697
20547W        W37395   0.215   1.644   5.542 -0.1095  0.0856  0.2081
20548W        W37396  15.302  10.667  16.042  0.0702  0.0005  0.0307
20549W        W37397  14.766   8.252   4.366 -0.0275 -0.0983 -0.1176
20550W        W37398   8.640   1.219   6.434 -0.1554  0.2622  0.3636
20551W        W37399   9.809   7.292   0.012 -0.0125 -0.2325  0.1363
20552W        W37400  10.819   2.142  15.043 -0.0893  0.3490  0.2229
20553W        W37401   9.034   4.517  11.387  0.0429  0.0069 -0.1455
20554W        W37402   4.899  16.762  13.115 -0.0670 -0.2558 -0.0918
20555W        W37403  16.366  12.316   1.006 -0.1288  0.0996 -0.0405
20556W        W37404  16.122  12.781  12.515 -0.1007  0.2506 -0.1846
20557W        W37405  14.566  14.523   3.138  0.0545  0.1895 -0.1169
20558W        W37406  10.836  11.653  14.238  0.1845  0.1270 -0.0754
20559W        W37407  17.227   8.481   4.450 -0.0791  0.1106 -0.1727
20560W        W37408   1.414  10.126   2.194  0.2163 -0.0250 -0.0283
20561W        W37409   3.381  12.381   2.793  0.3004 -0.0474 -0.1249
20562W        W37410   8.070  16.220   5.363 -0.1172  0.1020  0.2343
20563W        W37411  12.130   8.334  15.685 -0.1892  0.0972 -0.0772
20564W        W37412  11.057   4.145  13.877 -0.0234 -0.1754 -0.0274
20565W        W37413  14.177   6.036  15.552 -0.0570 -0.0668  0.1106
20566W        W37414  13.664  15.639  14.044  0.2188 -0.1939 -0.0931
20567W        W37415  13.394   9.366  15.114  0.0337  0.2070  0.2346
20568W        W37416   5.855   0.196  12.770  0.0857 -0.0013 -0.1934
20569W        W37417   5.178  13.719   1.612 -0.0823  0.1993  0.0143
20570W        W37418   5.471  17.300   1.582 -0.0612 -0.1194  0.2098
20571W        W37419  15.531   1.420  12.496 -0.1597  0.0154  0.0985
20572W        W37420  17.230  12.963   1.941 -0.1722  0.0061 -0.1175
20573W        W37421  12.408  11.754  15.957  0.0225 -0.0896 -0.0351
20574W        W37422   0.786  15.047  12.453  0.1139 -0.2039  0.0595
20575W        W37423   6.483  17.466   2.494 -0.0265  0.2460 -0.3065
20576W        W37424  10.532  15.619  14.381 -0.3072  0.0913  0.3765
20577W        W37425   4.349   4.082  11.347  0.1527  0.0249  0.2683
20578W        W37426  11.533  13.303  14.945 -0.2866  0.1653 -0.2698
20579W        W37427   3.466  12.499   0.274  0.0280 -0.0810 -0.0708
20580W        W37428   5.163   4.094   1.560  0.0515 -0.0663  0.1475
20581W        W37429  12.427  12.173  13.210 -0.2556  0.1151 -0.3140
20582W        W37430  14.552  11.862  14.771  0.2160 -0.0143  0.2051
20583W        W37431   0.133  14.173   1.425  0.0277  0.1187 -0.1061
20584W        W37432  17.443  10.191   3.131  0.1685 -0.0530  0.1339
20585W        W37433   3.139   3.324   5.438 -0.2324  0.1113  0.2136
20586W        W37434  13.104  13.894  14.236  0.2043  0.1241  0.0446
20587W        W37435   4.427  14.252  15.231 -0.3262  0.2511  0.2014
20588W        W37436   7.065  11.100   2.702  0.2037  0.2882 -0.0063
20589W        W37437   6.230  17.259   0.996 -0.1120 -0.0027  0.0407
20590W        W37438   2.735   7.816  11.732 -0.2333 -0.0297 -0.2166
20591W        W37439   7.865   6.409   3.067 -0.0999  0.1835 -0.3500
20592W        W37440   8.532  13.995   3.108  0.0510 -0.2442  0.0387
20593W        W37441  10.822   6.685   1.260 -0.1462 -0.0603 -0.0985
20594W        W37442   3.534  10.823   4.826 -0.2379  0.1273  0.1425
20595W        W37443   7.249   8.321  15.267  0.3862 -0.0489 -0.2879
20596W        W37444   7.099   1.312   5.794 -0.0971  0.0307  0.1128
20597W        W37445  16.692   3.370  15.091 -0.3140 -0.4248 -0.0806
20598W        W37446  13.054  11.841  12.127 -0.2065  0.0969 -0.2797
20599W        W37447   6.863  12.262  12.953 -0.2289  0.0520 -0.3693
20600W        W37448  11.011   3.758  13.412 -0.0895 -0.0493  0.1562
20601W        W37449  10.151   0.292  11.976 -0.2582  0.4714 -0.2175
20602W        W37450   4.494   8.212   3.088 -0.3836 -0.3068  0.3301
20603W        W37451   6.761   7.780   2.308  0.1281  0.0640 -0.2632
20604W        W37452  15.809  15.521  15.883 -0.1778  0.1032  0.0953
20605W        W37453  12.998   7.366  14.966  0.0808 -0.0073 -0.1836
20606W        W37454   7.783   7.455   4.449  0.0066  0.0760  0.0209
20607W        W37455   9.770  12.713   1.722  0.0102 -0.1753  0.0224
20608W        W37456   0.309  14.122  13.988 -0.3289 -0.1228  0.2367
20609W        W37457   4.667  17.008  13.606 -0.2491 -0.0836  0.1027
20610W        W37458   5.808  15.927   1.628 -0.2006  0.1224  0.4790
20611W        W37459  16.972   5.793   1.296 -0.1600 -0.1528  0.2284
20612W        W37460   8.562   4.775   3.340 -0.2362  0.0104 -0.2815
20613W        W37461   2.874   2.572  13.789  0.0660  0.0100  0.0148
20614W        W37462   1.495  13.573   2.482 -0.0640 -0.3720  0.0990
20615W        W37463  16.462   3.422  14.187 -0.0063 -0.2954 -0.1666
20616W        W37464   0.643  10.193   0.663  0.0867 -0.0088  0.1014
20617W        W37465  10.717  14.855  13.775 -0.1168 -0.1691 -0.0275
20618W        W37466   6.221   9.502  16.156 -0.2459 -0.2125  0.1157
20619W        W37467   5.590  16.689  14.267  0.0699  0.0569 -0.0256
20620W        W37468  15.213  11.062  11.542 -0.2738  0.1070 -0.0763
20621W        W37469   1.094   6.737  16.091 -0.0771 -0.4475 -0.0926
20622W        W37470   1.987  12.094   4.139  0.0630 -0.2073  0.0231
20623W        W37471  12.755  11.449  15.229  0.1706 -0.1389 -0.2385
20624W        W37472  16.689   0.620  12.132  0.0340 -0.1669  0.0019
20625W        W37473  12.334   4.230  15.650  0.1568 -0.0806 -0.1693
20626W        W37474   3.708   2.457  13.611  0.1392  0.2114  0.1387
20627W        W37475   6.916  10.412  14.047  0.0490  0.0538  0.1276
20628W        W37476  16.196  11.751   3.685  0.1701 -0.0641  0.1231
20629W        W37477   4.080   4.007   0.206 -0.0620 -0.0923 -0.1820
20630W        W37478  12.371   8.699   2.369  0.0618 -0.5606  0.1685
20631W        W37479   6.483  12.531   5.025 -0.0070 -0.0004 -0.2105
20632W        W37480  10.899   9.842  13.022  0.2512 -0.1423  0.5672
20633W        W37481   2.278   8.170   2.546  0.1319  0.1520 -0.0909
20634W        W37482   6.415   3.119   5.628  0.1847 -0.1362  0.0693
20635W        W37483   5.311   0.379   4.365 -0.3900 -0.1462 -0.0130
20636W        W37484  15.991   8.701   2.274 -0.1406 -0.2635 -0.3198
20637W        W37485  12.233  16.236   4.718  0.0659  0.0894  0.3988
20638W        W37486   6.777  11.995  14.755 -0.2888 -0.2042  0.0682
20639W        W37487   7.815   7.104   2.533  0.2115  0.0514 -0.3158
20640W        W37488  13.604  10.978   4.397 -0.2083 -0.1801 -0.0679
20641W        W37489   6.678   6.330  10.380 -0.0207 -0.0638  0.0062
20642W        W37490   6.466  15.513  14.748  0.1565  0.0017  0.1609
20643W        W37491  10.436   2.971  13.513 -0.1591 -0.2282 -0.0278
20644W        W37492   3.070   8.885  12.372 -0.1743  0.2032 -0.0376
20645W        W37493  12.160   4.383   2.858  0.2395  0.0468 -0.2693
20646W        W37494   7.208   1.011   4.904  0.0841  0.1670 -0.1393
20647W        W37495  14.926   7.802   0.954 -0.1752  0.0459  0.0092
20648W        W37496   7.698   2.804   4.839  0.1309  0.0746  0.2107
20649W        W37497   9.773   4.517  15.273  0.2187  0.0310 -0.0598
20650W        W37498   7.398   8.674  16.429 -0.1377  0.1567  0.0164
20651W        W37499   0.697  14.812  14.351  0.0446  0.1464 -0.1368
20652W        W37500   0.595  17.376  15.573 -0.2949  0.0074  0.1660
20653W        W37501   6.472   2.122  16.523 -0.0056  0.0397  0.0835
20654W        W37502   4.706  10.277   0.031  0.0667 -0.1014 -0.3043
20655W        W37503   2.268   3.119  15.903 -0.0028 -0.1731 -0.0246
20656W        W37504   7.569   6.683   5.917 -0.0968  0.2371 -0.1736
20657W        W37505   3.078   3.254   3.490 -0.4948  0.0764  0.1871
20658W        W37506   5.660   2.518   2.884  0.0645  0.0969  0.0007
20659W        W37507  15.061   2.727   3.438 -0.0723 -0.1176 -0.2773
20660W        W37508  10.937  11.108  13.539  0.2107 -0.0207  0.0099
20661W        W37509   5.736  16.094   1.057 -0.0784 -0.0269 -0.4158
20662W        W37510  16.306   1.709  14.864  0.1236 -0.2150 -0.1393
20663W        W37511  14.331   2.212   5.009  0.0245  0.0237 -0.0426
20664W        W37512  12.038   8.741  11.749  0.0236 -0.2808  0.0294
20665W        W37513  13.721  11.110  14.572  0.0070  0.1456  0.1204
20666W        W37514   2.899   3.823  14.521 -0.2172  0.2842 -0.0318
20667W        W37515   3.639  14.088   5.691 -0.0803  0.2042 -0.0700
20668W        W37516  11.460   6.535  16.505  0.2798  0.1815 -0.2665
20669W        W37517   3.355  13.220   3.060  0.0194 -0.1414 -0.1243
20670W        W37518   4.551  13.159  13.819  0.1069 -0.1500 -0.0546
20671W        W37519  16.906   1.007  16.269  0.3176 -0.0879  0.1058
20672W        W37520   3.101   0.626   2.002 -0.2500 -0.2389  0.2107
20673W        W37521  17.447   7.635  15.051 -0.0877 -0.1416  0.2701
20674W        W37522   0.358  13.803   3.751 -0.1533  0.1406 -0.0889
20675W        W37523   2.232   9.454  14.013 -0.3355  0.0877  0.0995
20676W        W37524   0.368  16.327   2.731 -0.4055 -0.1159  0.1476
20677W        W37525   2.937  12.419   3.400 -0.0477 -0.0846  0.1570
20678W        W37526  17.675   4.398   0.115 -0.2872 -0.0573 -0.1309
20679W        W37527   4.694   5.614  11.923 -0.1857  0.1382  0.2204
20680W        W37528   4.798   5.186  11.577 -0.0511  0.0430  0.0692
20681W        W37529  13.883  14.714   1.988 -0.1488  0.0567  0.0400
20682W        W37530   8.446   7.676   5.800 -0.1527  0.1463  0.0151
20683W        W37531   5.490   9.839   0.563 -0.3524  0.0448 -0.2222
20684W        W37532  13.910  14.811   0.348  0.1446 -0.0222  0.1892
20685W        W37533   7.459   1.630   2.139  0.2742  0.2107 -0.0741
20686W        W37534  11.709   3.559  15.056  0.0399 -0.1185  0.1491
20687W        W37535   7.559  13.825   5.643  0.1900  0.0163  0.3014
20688W        W37536  14.159  16.000  15.274 -0.1723  0.1225 -0.1908
20689W        W37537  12.240  14.995   6.076 -0.1181 -0.2608  0.0934
20690W        W37538   7.084  15.199   5.547  0.1768 -0.0098 -0.1367
20691W        W37539   6.726   1.058   4.843 -0.0991  0.0433  0.3300
20692W        W37540   3.793  13.919  13.763  0.0780  0.3116  0.2275
20693W        W37541   0.754   6.669  13.131  0.1002  0.0411 -0.2226
20694W        W37542   6.571   7.494  11.764 -0.1784  0.0037  0.0450
20695W        W37543   1.329   2.939   3.651 -0.0303 -0.1185  0.3075
20696W        W37544  16.557   8.516  13.552  0.0365  0.0692 -0.1960
20697W        W37545  11.852  14.059  14.020  0.0257 -0.0474 -0.2177
20698W        W37546  10.768  14.332   0.256  0.0887  0.0314 -0.3073
20699W        W37547   5.214   8.992   2.152  0.1387  0.1477  0.0003
20700W        W37548  13.496  10.107  11.468 -0.0756  0.0050  0.4504
20701W        W37549   5.821   1.011   0.191  0.1916  0.3883 -0.1218
20702W        W37550  12.801   9.447  15.582  0.1108  0.1839 -0.2535
20703W        W37551  11.771   5.152   3.271 -0.2065 -0.0143  0.1297
20704W        W37552  14.678   2.201  14.656  0.2276  0.1594  0.1104
20705W        W37553  13.048   2.143   1.531  0.2010 -0.0544  0.0612
20706W        W37554  15.704   7.398  11.618 -0.1410  0.0505  0.3005
20707W        W37555   3.544   5.043  12.881  0.0880  0.1713 -0.2922
20708W        W37556  10.416  13.472   1.480 -0.2788 -0.0465 -0.1845
20709W        W37557   4.941   5.831   5.121 -0.0851 -0.0637  0.0863
20710W        W37558   0.011   0.857  15.449 -0.0052  0.1064 -0.1023
20711W        W37559  10.040  13.278   2.515  0.0163  0.1076 -0.1230
20712W        W37560  16.524  17.587  16.286  0.1485 -0.0825  0.1197
20713W        W37561  11.379   1.410  14.030 -0.1737 -0.2850  0.0235
20714W        W37562  17.344   4.544  13.965  0.0330  0.1566 -0.1653
20715W        W37563   4.840  11.252  14.014  0.0884 -0.1205  0.0196
20716W        W37564  11.775   6.853  11.392 -0.0621 -0.0745 -0.0894
20717W        W37565   3.545   1.610   5.442  0.0375  0.0662 -0.0555
20718W        W37566  17.528   8.251  16.424 -0.2005  0.2499 -0.1454
20719W        W37567   6.421  16.142  13.831  0.0124 -0.1199 -0.4276
20720W        W37568   8.437   0.583   5.146 -0.2075 -0.2952  0.1531
20721W        W37569   9.272   8.093   5.316 -0.1561 -0.1531  0.0515
20722W        W37570   0.382  16.115  15.368  0.1196 -0.2891  0.1063
20723W        W37571  13.650   0.806   1.434  0.2522  0.1290 -0.0877
20724W        W37572  11.759   9.675  16.534  0.0687  0.1136  0.1449
20725W        W37573   2.053   1.501  16.609 -0.0546  0.2363 -0.0201
20726W        W37574   7.865   7.116   2.051  0.2228  0.1922  0.2745
20727W        W37575  13.356  13.210   1.140 -0.1812  0.1599 -0.1370
20728W        W37576  12.695   1.898  12.992  0.1957  0.0547  0.0698
20729W        W37577  16.189   0.110   5.177 -0.4255 -0.1571 -0.0597
20730W        W37578   6.563   7.970  16.510 -0.0986  0.0325  0.1325
20731W        W37579  11.394  17.116  11.656  0.1780  0.1706  0.1330
20732W        W37580  13.192   9.703  11.234  0.0921 -0.3307 -0.1846
20733W        W37581   8.884  12.461   0.631 -0.1233 -0.3526  0.0336
20734W        W37582  11.304   6.145   4.225 -0.3836  0.2003 -0.1735
20735W        W37583  11.124  13.806  15.581 -0.2364  0.2864  0.0983
20736W        W37584  14.091   1.923   5.410 -0.1213  0.0036 -0.1251
20737W        W37585   3.086   8.803  13.115  0.0831 -0.0554  0.0202
20738W        W37586   4.957  11.128  15.550  0.1471  0.1443 -0.0159
20739W        W37587  17.115  11.774  15.284 -0.0880 -0.1069  0.1484
20740W        W37588   8.268  11.965   1.569 -0.0402  0.0536 -0.3253
20741W        W37589   4.992   4.082  15.044  0.3613  0.0735  0.0045
20742W        W37590  15.787   3.248   1.762 -0.2955 -0.1678 -0.1926
20743W        W37591  10.724   4.561   2.656 -0.3960  0.2774 -0.0522
20744W        W37592  10.816   2.045  13.285  0.0561 -0.3373  0.2487
20745W        W37593   8.358   5.746   4.960 -0.0189 -0.0537  0.1358
20746W        W37594  12.982  10.921   4.540  0.0718  0.3325  0.3839
20747W        W37595   8.000   4.625   5.136 -0.3208 -0.0577 -0.1886
20748W        W37596   5.060   5.637   0.585 -0.1293 -0.1109  0.3068
20749W        W37597   8.310   2.631  13.427 -0.2236 -0.0785  0.0036
20750W        W37598   8.413  17.256  12.006  0.1425  0.0624 -0.0202
20751W        W37599   6.957   8.833  13.503  0.0175  0.1659  0.0968
20752W        W37600   3.571   2.945  10.447  0.1198  0.1307 -0.0578
20753W        W37601   0.962  17.411   3.307 -0.2619 -0.2957 -0.3576
20754W        W37602  15.182  13.812  12.647 -0.0171  0.0355 -0.1279
20755W        W37603  15.276   9.498   3.236 -0.0782 -0.1188  0.1343
20756W        W37604  15.420  16.087   5.183  0.2365  0.0482 -0.1706
20757W        W37605  15.958   4.402   3.805  0.3447 -0.0585  0.1526
20758W        W37606   7.157   5.272   0.807  0.0060  0.0397 -0.0597
20759W        W37607  13.420   9.676  12.238 -0.0887  0.0720  0.0915
20760W        W37608   1.349   2.905  13.327 -0.0566 -0.1126 -0.2012
20761W        W37609  12.110   8.268  14.354  0.0039 -0.1515  0.2125
20762W        W37610  16.659   8.730   2.981 -0.1361  0.2653 -0.3936
20763W        W37611   3.481   0.296  14.708 -0.0954 -0.1292  0.1701
20764W        W37612   1.535   4.476   3.612  0.0474  0.1833 -0.1685
20765W        W37613   7.411   2.280   0.111 -0.0107  0.1944  0.0707
20766W        W37614  11.013  11.573  12.855 -0.2124 -0.1690 -0.0380
20767W        W37615  16.629  15.422   4.862 -0.1489  0.0645 -0.0347
20768W        W37616   5.359   4.415   0.744  0.2921  0.1477 -0.0907
20769W        W37617  15.227  12.633  14.432  0.0972 -0.3098 -0.1763
20770W        W37618   8.117   0.795   3.443 -0.0260  0.0368  0.0423
20771W        W37619   5.540   5.440   0.335  0.1069  0.1512 -0.2089
20772W        W37620  16.808   2.489  13.728 -0.0523 -0.2204 -0.0689
20773W        W37621   0.762   8.283  11.869  0.2639 -0.1135 -0.2422
20774W        W37622  14.531   7.016   3.022 -0.1523  0.0669  0.1294
20775W        W37623   7.318   4.968  14.788  0.0799  0.0600 -0.0590
20776W        W37624   6.653  11.563  11.097 -0.1663  0.1910  0.0984
20777W        W37625  16.370  12.623  12.975 -0.1035  0.1301  0.0466
20778W        W37626   6.675   0.120   5.103 -0.1051  0.2905 -0.0046
20779W        W37627   4.912  16.069   4.987 -0.0529 -0.0805 -0.1976
20780W        W37628   9.383  10.152  15.459  0.1213  0.1518  0.1726
20781W        W37629   9.182  16.865  12.174 -0.3557  0.0389 -0.2292
20782W        W37630   4.304  17.447   0.702  0.1314  0.2232  0.1225
20783W        W37631   6.069   8.929  12.993 -0.2650  0.2761  0.2336
20784W        W37632  10.819   0.232  11.271  0.1756 -0.2447 -0.0404
20785W        W37633  16.378  14.518  15.684 -0.0679 -0.1248 -0.1028
20786W        W37634   4.652  13.228   0.889  0.1854 -0.2316  0.1117
20787W        W37635  15.473   1.885   5.198 -0.1347 -0.1982 -0.0518
20788W        W37636   9.332   5.249   0.600 -0.0729  0.0930 -0.2415
20789W        W37637  10.832   9.896  15.554 -0.1297  0.1917  0.1898
20790W        W37638  10.579   1.271  16.623  0.4382 -0.3451  0.3718
20791W        W37639   5.744   1.592  14.022  0.0746  0.0630 -0.0783
20792W        W37640  10.532  14.688   1.548 -0.1538  0.1073  0.2032
20793W        W37641   6.709   1.855   3.220  0.4783  0.1756  0.3504
20794W        W37642   3.319  13.074   4.155 -0.0238  0.3267  0.0022
20795W        W37643  11.908  12.750  13.810  0.1201 -0.1472  0.5446
20796W        W37644  16.545   3.490  15.767  0.0159  0.1549 -0.1057
20797W        W37645   1.754   8.309  14.837  0.0157 -0.1575 -0.2763
20798W        W37646  16.054   8.755  15.640 -0.0194 -0.0233  0.1647
20799W        W37647   1.774   1.214   1.276 -0.0340  0.1966 -0.1383
20800W        W37648   0.829   9.489   3.841  0.0404 -0.0058 -0.0404
20801W        W37649  17.412  11.694  12.107  0.0691  0.1705 -0.3105
20802W        W37650   6.441   0.566  16.333 -0.0872  0.2491 -0.0997
20803W        W37651   9.896   0.694   3.582  0.3321  0.1542 -0.2823
20804W        W37652   0.912   6.522  11.897 -0.0808 -0.1427  0.1542
20805W        W37653  15.606   1.134   4.003  0.0867 -0.1230  0.0441
20806W        W37654  15.598  15.990  12.090  0.2033  0.0193 -0.0426
20807W        W37655   4.458  14.437   5.453 -0.0623  0.2229  0.3059
20808W        W37656  14.091  11.873   3.669  0.1802 -0.0973  0.0551
20809W        W37657   3.503   0.361   1.836 -0.0919  0.0451  0.0151
20810W        W37658   5.241   2.159  13.665  0.0850 -0.3323 -0.0959
20811W        W37659   0.131   1.970  14.687 -0.1426  0.3256 -0.0296
20812W        W37660   5.068   8.969  13.222 -0.1761 -0.0953 -0.3133
20813W        W37661   0.794  14.003  15.072  0.1234 -0.1657 -0.1036
20814W        W37662   8.854  10.100   2.746  0.0106 -0.0871  0.1914
20815W        W37663  14.158  10.650   5.049  0.0193  0.0847  0.0359
20816W        W37664  16.151   7.967  12.083  0.0473 -0.0758  0.3687
20817W        W37665   1.670  17.589   5.315 -0.0969 -0.0911 -0.2773
20818W        W37666   9.185   4.530  12.804 -0.0270  0.2615  0.2036
20819W        W37667   8.788  12.409   5.436  0.3725  0.3393 -0.0454
20820W        W37668  15.256   1.905  15.754  0.0246 -0.4407 -0.0295
20821W        W37669  17.092  12.856  15.232 -0.3785 -0.2222  0.1751
20822W        W37670   5.479  16.443   0.249  0.1215 -0.1566 -0.0433
20823W        W37671   1.931  10.896  13.932 -0.1510  0.1434 -0.0989
20824W        W37672   6.643  17.381  12.206  0.0009  0.0696  0.1373
20825W        W37673   3.430   0.242  12.378  0.1917 -0.2397  0.1539
20826W        W37674   1.498   1.478   2.658  0.1496  0.1256  0.1223
20827W        W37675  11.121   5.523   1.452  0.0058 -0.0378 -0.2184
20828W        W37676   8.200   5.931   1.463  0.0708 -0.2223  0.3130
20829W        W37677   5.630   4.698  12.493  0.0917 -0.0043 -0.0893
20830W        W37678   2.598   6.159  12.801  0.0860  0.0720 -0.1305
20831W        W37679  10.381   6.643  14.519 -0.1617 -0.4397 -0.1822
20832W        W37680   1.679   4.603  15.360  0.0903  0.3723 -0.3040
20833W        W37681   8.774  13.269  16.037 -0.0529  0.1181  0.0948
20834W        W37682  17.418  12.949  16.582  0.0575 -0.4188  0.2109
20835W        W37683  12.487   5.654   5.853  0.0493 -0.0365  0.0332
20836W        W37684  10.919   3.574   3.537 -0.0794 -0.0983  0.0964
20837W        W37685  12.940  16.880   5.164 -0.2871 -0.1339  0.0458
20838W        W37686   7.436   2.299  13.678  0.0693 -0.2340  0.0954
20839W        W37687   0.294   6.130  16.097 -0.0630 -0.1742 -0.0357
20840W        W37688  10.982  10.342  11.920  0.1934 -0.0866  0.0391
20841W        W37689  11.731   0.147  15.076 -0.0511 -0.0756  0.1536
20842W        W37690  12.322  12.602  14.784  0.2010  0.0591  0.0006
20843W        W37691  13.012   7.050  14.547 -0.0401  0.0533 -0.3244
20844W        W37692  17.674  16.217  16.435  0.2727  0.1170 -0.2823
20845W        W37693  13.738   6.877  15.149 -0.0717  0.2309  0.0119
20846W        W37694   5.245   8.212  13.747  0.2194 -0.0223 -0.2049
20847W        W37695  10.627  14.683  14.649  0.0793  0.0678  0.4151
20848W        W37696   7.670  16.913   2.966 -0.1493  0.3358  0.2267
20849W        W37697   3.359  12.395   4.655 -0.0241 -0.0451 -0.4050
20850W        W37698   5.582  15.471  13.582  0.0367 -0.2444  0.0913
20851W        W37699  11.760   2.466   0.216  0.1144  0.1023 -0.0645
20852W        W37700  11.909   3.077   1.766  0.0224  0.0455 -0.0181
20853W        W37701   9.766  12.093  13.444  0.3629  0.1649 -0.0132
20854W        W37702  15.848   6.900  15.067 -0.0443 -0.1416  0.2733
20855W        W37703  10.785   9.467  12.189  0.2312 -0.1370 -0.1054
20856W        W37704  11.456  14.216  14.310 -0.2042  0.0614 -0.1733
20857W        W37705   0.246   7.061   0.261 -0.2160 -0.0555 -0.0302
20858W        W37706  13.815  12.298   0.792 -0.0686 -0.2656  0.1308
20859W        W37707   9.082   8.875  16.492 -0.2492  0.0147  0.2647
20860W        W37708  17.226   1.142  12.709 -0.0677  0.0138 -0.2701
20861W        W37709  16.198   1.599   4.579  0.1195 -0.1510 -0.1516
20862W        W37710   8.310   0.756  10.426  0.0855 -0.2015 -0.4150
20863W        W37711   1.424   0.810  15.452 -0.0505 -0.0388  0.0329
20864W        W37712   7.760   0.389  11.747  0.2454  0.1503 -0.3623
20865W        W37713  17.178  17.043  13.948 -0.1468  0.1802  0.2607
20866W        W37714  12.007   8.320  12.143  0.0231  0.0488 -0.4128
20867W        W37715  13.653  16.572   4.473 -0.1362  0.0323  0.4018
20868W        W37716   6.446   9.704  14.977 -0.1004  0.0417 -0.2553
20869W        W37717   2.775   1.779   1.735  0.0601 -0.0371 -0.0873
20870W        W37718   3.897   0.224   5.111 -0.0583  0.0408 -0.0506
20871W        W37719  17.346  10.424   1.573  0.1648 -0.4046  0.1484
20872W        W37720   6.951  14.778   1.461 -0.0772 -0.1162  0.0004
20873W        W37721   4.891  16.049   2.509 -0.4689  0.1732 -0.0195
20874W        W37722   7.284  13.571  14.959  0.0784  0.0224  0.0585
20875W        W37723  14.866   5.031   0.605 -0.0852 -0.3412 -0.3450
20876W        W37724   0.097  14.738   3.666  0.0250  0.2075  0.1797
20877W        W37725   2.366   8.669   3.405  0.3235  0.2642  0.0049
20878W        W37726  16.750  12.396   0.188 -0.1565 -0.0392 -0.0086
20879W        W37727   1.164   4.170   2.286 -0.0008 -0.2543  0.0678
20880W        W37728  17.619   3.577  14.990 -0.0822 -0.0343  0.1441
20881W        W37729  15.246   8.273   3.992  0.0892 -0.0210  0.0499
20882W        W37730   5.347   7.558   2.786 -0.1116  0.1983  0.1759
20883W        W37731   9.439   2.775   3.437 -0.1773 -0.1340 -0.2330
20884W        W37732   1.414   7.429  14.833  0.0242 -0.0324 -0.1408
20885W        W37733  16.123   3.097  13.938  0.0191 -0.0860  0.0972
20886W        W37734   3.843   2.078  12.361  0.1013  0.2949 -0.0909
20887W        W37735   8.796  16.313  15.304  0.3436 -0.2174 -0.0256
20888W        W37736   8.657   8.602   0.789  0.0908  0.1221  0.0018
20889W        W37737   9.936   0.859   3.118  0.0223  0.1962  0.2402
20890W        W37738   0.076   3.722   4.676 -0.1046  0.0124  0.2566
20891W        W37739  10.909  16.340  15.048 -0.1445 -0.1356  0.1739
20892W        W37740   8.371   0.544   1.225  0.3656 -0.3261  0.1929
20893W        W37741  16.822   0.315   4.322  0.0561  0.3111 -0.0346
20894W        W37742  15.201   0.816  14.704  0.0426  0.0238  0.1673
20895W        W37743   6.588   3.583   2.887 -0.0068 -0.1108  0.1231
20896W        W37744   1.309   0.803  13.393 -0.2175 -0.0768  0.2660
20897W        W37745  16.284   8.704   4.606 -0.3582 -0.1349 -0.0239
20898W        W37746   0.550  12.846   1.611  0.1105 -0.1233  0.2118
20899W        W37747  11.411  13.012   0.924  0.3679  0.2177 -0.2539
20900W        W37748  17.124  15.531   3.014  0.4118 -0.0869 -0.2542
20901W        W37749   8.931   2.695  15.010  0.0302 -0.1152  0.0625
20902W        W37750  17.447   1.544   2.200  0.3530  0.0199 -0.2675
20903W        W37751   1.358   6.150   0.200 -0.1691 -0.1313 -0.0127
20904W        W37752  10.649   2.859   3.153 -0.1856 -0.0827  0.2665
20905W        W37753  13.698  17.677  16.166 -0.1126  0.1262 -0.1761
20906W        W37754   9.063   5.947  12.831 -0.0176  0.1036  0.2444
20907W        W37755   7.062  10.530   3.307 -0.2120  0.2519  0.0313
20908W        W37756  12.460  12.763  13.639  0.2293  0.1433 -0.0293
20909W        W37757  16.923   8.636   2.399 -0.0562  0.3727 -0.2413
20910W        W37758   1.605   8.360  14.381 -0.1953 -0.3801  0.0214
20911W        W37759   3.111  17.629   4.051 -0.0259 -0.0515  0.0026
20912W        W37760  14.837   3.236   2.269  0.1708  0.0168 -0.1621
20913W        W37761   7.249   9.429  15.298 -0.1159 -0.0531  0.1324
20914W        W37762  13.454   9.926  16.674 -0.2017  0.1268  0.1524
20915W        W37763  11.540  15.667   3.589 -0.2041 -0.0975 -0.0394
20916W        W37764   8.398  16.327  11.483 -0.1691  0.0656 -0.1183
20917W        W37765   2.526  11.042   1.671 -0.0072 -0.1705 -0.1674
20918W        W37766   1.347  16.757   3.757  0.3027  0.0706 -0.1537
20919W        W37767   8.751  11.392  15.328  0.2528 -0.2262 -0.2420
20920W        W37768  17.633   1.266   2.625 -0.4026  0.1077  0.3006
20921W        W37769   5.135  14.891   4.329  0.0174 -0.0075  0.0374
20922W        W37770   3.496  17.329   3.897  0.2308  0.2914 -0.2065
20923W        W37771  13.265  12.918   2.692  0.2471  0.1006 -0.1103
20924W        W37772  13.238  10.645  13.696 -0.0780 -0.0683  0.0618
20925W        W37773   0.827  15.955  15.034  0.0841  0.3454  0.0838
20926W        W37774   3.631   6.834  12.994 -0.1339  0.2436 -0.2024
20927W        W37775   6.623   4.048   0.586  0.5298  0.0314  0.0397
20928W        W37776  12.144  17.482  14.352 -0.0067  0.2221 -0.0658
20929W        W37777  13.223  16.955  15.013  0.0705 -0.0917  0.1821
20930W        W37778   1.980  16.735   1.758 -0.2727  0.1169 -0.3339
20931W        W37779  14.283  12.870   3.405  0.4050  0.1113 -0.3346
20932W        W37780   5.910   0.413  12.077 -0.4268 -0.0050 -0.2312
20933W        W37781   0.800   3.243   1.170  0.0266 -0.1561  0.0998
20934W        W37782   5.849   4.091   1.527  0.1891  0.1139  0.0997
20935W        W37783   7.576  10.628   0.195 -0.3922  0.1676  0.0659
20936W        W37784   8.003  16.286  11.904 -0.0807  0.0347 -0.0349
20937W        W37785   6.719   6.015   3.842  0.4154 -0.5152  0.3494
20938W        W37786  12.555   6.842  12.461 -0.0064 -0.0912  0.0017
20939W        W37787   3.637   5.457  13.227 -0.3964  0.3359  0.1497
20940W        W37788   3.686  14.782  15.600  0.0081 -0.3089  0.3084
20941W        W37789  13.454  17.274   4.596  0.1348  0.1768 -0.2767
20942W        W37790   5.268   6.171   2.839 -0.3328 -0.2051  0.0471
20943W        W37791   2.483   1.281  14.355  0.0057 -0.2412 -0.1664
20944W        W37792   0.146   7.556  15.322 -0.1648  0.0850  0.1764
20945W        W37793  15.078  17.230   0.847  0.2486 -0.0266  0.1772
20946W        W37794  13.363  16.990   1.455  0.3559  0.2526 -0.0381
20947W        W37795   1.452   1.117   4.943  0.1240 -0.0538  0.1775
20948W        W37796  15.679  10.367  15.488  0.1983 -0.1118 -0.2996
20949W        W37797   6.956   1.861  11.779 -0.0189  0.0757 -0.0722
20950W        W37798  17.521  16.026   0.866 -0.0798 -0.0942 -0.2010
20951W        W37799   7.482   3.054  16.076  0.0313  0.0837 -0.0520
20952W        W37800   2.195  14.950   2.300  0.0867  0.0296  0.0832
20953W        W37801  14.644   5.892  10.741  0.2415 -0.1041 -0.2902
20954W        W37802  10.552   0.920  14.623  0.0333  0.0362  0.0066
20955W        W37803   5.657   1.921   4.598  0.2189  0.0885 -0.2488
20956W        W37804   2.991  15.883   0.049  0.2094  0.2360  0.0136
20957W        W37805  16.400  16.861  13.367  0.0532 -0.1486  0.0471
20958W        W37806   9.295   5.822  15.628 -0.1659 -0.1211 -0.1789
20959W        W37807  14.030  16.557  11.435  0.1272  0.2095 -0.0268
20960W        W37808   9.689   2.766   3.001  0.0442 -0.3729 -0.2949
20961W        W37809  17.050   6.905   0.170  0.2800  0.2713 -0.0327
20962W        W37810  14.661   4.887   4.907 -0.1760  0.1213 -0.0812
20963W        W37811  12.936   6.972   4.023  0.2801 -0.0301 -0.2119
20964W        W37812   5.369   9.400   4.261 -0.0657  0.0669  0.1684
20965W        W37813   8.971   3.180  11.105  0.1399  0.0990  0.1117
20966W        W37814   0.705  10.847  12.081  0.3440 -0.1081 -0.0382
20967W        W37815   7.052  11.266   2.159  0.1260  0.1722 -0.0589
20968W        W37816   8.105   9.654   2.706  0.0698  0.1204 -0.1046
20969W        W37817  14.365  13.061   5.625  0.1388 -0.2254  0.1668
20970W        W37818   0.299   0.785  12.404  0.0587 -0.1843 -0.0820
20971W        W37819  12.483  15.021  16.438 -0.2202  0.0501  0.1535
20972W        W37820   5.115   3.903   0.132  0.2749 -0.0323 -0.3062
20973W        W37821  12.035   0.816  11.808 -0.0022  0.2118  0.2161
20974W        W37822   7.414   5.173  12.396  0.1089 -0.3298 -0.1032
20975W        W37823   9.153   1.291  13.401 -0.0039  0.1442  0.0803
20976W        W37824   3.380  15.255  16.198 -0.2683  0.2296  0.0782
20977W        W37825   4.381  11.330  16.390  0.2243  0.1322  0.2179
20978W        W37826  13.182   0.255  12.677  0.1896  0.2073  0.1764
20979W        W37827   8.065   1.791   1.400 -0.1564 -0.2281  0.1204
20980W        W37828  13.432  13.300   4.230  0.3591 -0.0061 -0.0918
20981W        W37829  15.607  10.431  14.262  0.3302 -0.0465  0.0246
20982W        W37830   7.543   2.894   4.271 -0.2183  0.3888  0.2642
20983W        W37831  15.784   5.128  16.140  0.0023 -0.0139  0.2201
20984W        W37832  13.804   3.128  13.147  0.0361 -0.3475 -0.0540
20985W        W37833   8.666   1.867  15.278  0.0499  0.1862  0.1151
20986W        W37834   8.762   7.048  12.501 -0.4258  0.0879  0.3361
20987W        W37835   0.209   3.923  12.600 -0.0445 -0.0388 -0.0142
20988W        W37836   8.612   2.515  12.641  0.0423 -0.0467 -0.0074
20989W        W37837  16.611  10.226  13.022 -0.0524  0.0983  0.0116
20990W        W37838   0.245  10.095  14.274 -0.2685 -0.0075 -0.1916
20991W        W37839  14.499  16.218   2.045  0.0705  0.1233 -0.1509
20992W        W37840  14.854   1.687   1.017  0.1324  0.2849 -0.1049
20993W        W37841  12.086  14.889   3.374 -0.1362  0.1847  0.4436
20994W        W37842  11.506   3.739   2.205  0.1202 -0.0628  0.0029
20995W        W37843   6.367   5.836  15.640 -0.2242  0.0878 -0.2684
20996W        W37844  12.079  11.204  14.186 -0.0166 -0.1709  0.1857
20997W        W37845  10.085   9.642  11.787  0.1005 -0.1947  0.1796
20998W        W37846   8.710   5.138   3.873  0.0392  0.0572 -0.3319
20999W        W37847  15.086  11.460   2.954  0.1042 -0.1129  0.0183
21000W        W37848   5.008   4.145  13.056  0.1895 -0.0439 -0.1441
21001W        W37849   4.498   7.395   1.257 -0.2323  0.1640  0.1482
21002W        W37850   3.044   9.154  14.029 -0.4878  0.0436  0.0826
21003W        W37851  12.975   2.059   3.893  0.2917 -0.1962 -0.0370
21004W        W37852   8.748  14.751  13.537 -0.0985 -0.0335 -0.0247
21005W        W37853  13.044  17.546   2.219  0.1807 -0.1111  0.1615
21006W        W37854   3.211   7.169   1.952  0.0278 -0.0191 -0.2991
21007W        W37855  11.318   6.743   1.978 -0.3536 -0.4739  0.3513
21008W        W37856  16.500   2.207  10.960  0.0270  0.2011 -0.1584
21009W        W37857  14.414   8.131  13.419  0.2517  0.0594 -0.1194
21010W        W37858  15.395  13.358  15.269 -0.0928  0.0079 -0.0801
21011W        W37859  12.114  16.254   0.292  0.2805  0.0410 -0.1112
21012W        W37860   1.174  11.062   3.471 -0.5323  0.0264 -0.2737
21013W        W37861  16.562   2.063   2.278 -0.0141 -0.0474 -0.0536
21014W        W37862  11.288  17.665  14.184  0.1714 -0.0244  0.1277
21015W        W37863   1.908   4.488  11.385 -0.2306  0.2122  0.0191
21016W        W37864  10.912  16.969   0.909 -0.1273  0.0006 -0.0839
21017W        W37865   9.395   1.811  14.208  0.0531  0.2941  0.1334
21018W        W37866  14.968   4.700   3.481  0.2221  0.0228  0.1488
21019W        W37867   3.361   4.125  16.453  0.0670 -0.1369  0.1268
21020W        W37868   4.740  15.476   5.385  0.0065  0.3620 -0.1618
21021W        W37869   7.187   2.687  12.392  0.1624 -0.1783 -0.1120
21022W        W37870  12.158   9.739   2.205  0.2458  0.2433  0.0339
21023W        W37871   3.348   2.133   0.971  0.0156 -0.0958  0.3603
21024W        W37872  14.284   5.241  12.661 -0.0403  0.1662  0.1582
21025W        W37873  12.167  15.591   5.392  0.0285  0.0063  0.4316
21026W        W37874   4.746   1.602  14.069  0.4734 -0.0304  0.3596
21027W        W37875  12.939  15.313   1.574 -0.2601  0.0357 -0.1171
21028W        W37876  14.820   5.598  15.889 -0.2206  0.1717 -0.2031
21029W        W37877  13.985  12.406   2.823 -0.0510  0.2556 -0.0258
21030W        W37878  12.419  12.293   3.320 -0.1608 -0.3298  0.2021
21031W        W37879  10.548   1.611  13.803 -0.0105 -0.0629  0.0044
21032W        W37880  13.561  15.162   2.988 -0.0067  0.0256 -0.1547
21033W        W37881  16.664  16.286   4.517 -0.1448  0.0786 -0.3274
21034W        W37882  17.549   2.124   4.891 -0.0647  0.0206 -0.1205
21035W        W37883   2.487  15.002  12.286 -0.1837 -0.1092 -0.0633
21036W        W37884  13.120   4.709   4.536 -0.1056  0.2211  0.2491
21037W        W37885  11.847  10.538   1.957  0.1271  0.2429 -0.1258
21038W        W37886   1.616   5.646  14.099  0.1309 -0.2862  0.0009
21039W        W37887  16.727   2.423  13.210 -0.1415 -0.1402 -0.0126
21040W        W37888   9.892  17.061   2.068  0.1601 -0.1341  0.0106
21041W        W37889   5.992   3.593  11.960  0.1988  0.3699  0.4868
21042W        W37890   0.300  14.117   3.388 -0.0802  0.0037 -0.0729
21043W        W37891  13.402  11.103  13.503  0.0900  0.0449 -0.0617
21044W        W37892   3.139   6.072  15.036 -0.1672 -0.1016 -0.2943
21045W        W37893   7.109  16.576   3.846  0.1230 -0.1863 -0.0092
21046W        W37894  12.024  13.334   2.112  0.0332 -0.1307 -0.2668
21047W        W37895   7.988   6.531  15.973  0.2473  0.0194  0.1106
21048W        W37896   1.405  16.588   0.009 -0.2741  0.2489 -0.4565
21049W        W37897   0.568   1.607   4.678 -0.0473  0.3285 -0.0742
21050W        W37898  12.202   4.182  14.752 -0.1068  0.0577 -0.0890
21051W        W37899   0.403  13.247  12.145  0.0520 -0.0753 -0.2848
21052W        W37900   2.863   3.690   4.961  0.0170 -0.1641 -0.0599
21053W        W37901  14.661  15.434   3.943 -0.1525  0.1920 -0.1432
21054W        W37902   5.837   6.464  10.576 -0.1360  0.1312  0.0573
21055W        W37903   0.155  11.244  15.560 -0.0292 -0.1256  0.2699
21056W        W37904   9.519   9.170  13.061  0.0066  0.0835 -0.0529
21057W        W37905  10.490   2.310   1.294  0.1983  0.1058 -0.2089
21058W        W37906  17.200   5.754  14.793  0.1769 -0.2945  0.0884
21059W        W37907  14.305   9.864   4.647 -0.0384  0.0918 -0.2290
21060W        W37908   7.775   4.610  14.904  0.0969  0.0578 -0.0327
21061W        W37909   6.358  16.163  15.211 -0.2282  0.2502  0.0117
21062W        W37910   6.032   4.787   4.826  0.2057  0.3048  0.2344
21063W        W37911  15.002   3.816   3.763 -0.1934 -0.0929  0.2016
21064W        W37912   1.110   1.200   5.622  0.1365  0.1372  0.0649
21065W        W37913  14.921  10.371  16.132  0.3374 -0.0105 -0.0310
21066W        W37914  12.689  11.578  11.945  0.3337  0.2339 -0.2379
21067W        W37915   5.048  13.991  10.761 -0.3432 -0.4387 -0.2691
21068W        W37916  13.110  12.009   4.204  0.1010  0.1568  0.2061
21069W        W37917   4.266  17.362   3.714  0.0092 -0.1235  0.1257
21070W        W37918  10.994   7.107  15.103  0.1954 -0.0387 -0.2326
21071W        W37919  17.451  10.621   0.973 -0.2836 -0.3872 -0.2713
21072W        W37920  17.495  12.079  13.342  0.0811  0.3440  0.2827
21073W        W37921   0.729  12.574  12.455 -0.0090 -0.0155 -0.0519
21074W        W37922   0.831  14.206   0.470  0.1522  0.4354 -0.1331
21075W        W37923   5.838  16.958  12.758  0.0517 -0.1919  0.2320
21076W        W37924   6.636   5.592  13.582 -0.0229 -0.2730  0.0280
21077W        W37925   1.495   2.194   3.202  0.1173  0.1379  0.0799
21078W        W37926  16.915   5.227  12.138  0.0056 -0.0838 -0.0726
21079W        W37927   2.387   1.950   4.173  0.2087  0.1788  0.1576
21080W        W37928   3.689  15.863   3.224 -0.0856 -0.1435 -0.1317
21081W        W37929  10.357  11.915   2.817 -0.0734  0.0254 -0.0480
21082W        W37930  14.394  14.897  14.226  0.1424  0.0386  0.1167
21083W        W37931  14.296   2.644  14.948  0.0285  0.1173 -0.4753
21084W        W37932  10.341  12.757  12.700  0.2594  0.4965 -0.1540
21085W        W37933   5.913  12.881   4.444 -0.0636 -0.1527 -0.2124
21086W        W37934  10.167   8.384  14.059 -0.1500  0.1548 -0.3008
21087W        W37935   3.809   2.384  14.688  0.1686  0.1046  0.3036
21088W        W37936   0.353  15.851  16.303 -0.0929  0.1450  0.2887
21089W        W37937  14.796  10.799  11.629  0.4547  0.1711  0.0645
21090W        W37938   0.869  12.133  11.453 -0.2433 -0.2772 -0.0437
21091W        W37939   2.693  15.988  14.585 -0.1017 -0.0630  0.0574
21092W        W37940   3.456   1.786   2.204  0.1311  0.1589  0.2461
21093W        W37941   0.260   4.465  15.850 -0.0902  0.0588 -0.2272
21094W        W37942  13.617   7.956   3.418 -0.1624  0.0733  0.0946
21095W        W37943  10.618  15.235  16.103  0.2970 -0.0009  0.0788
21096W        W37944   6.840   1.484  13.802 -0.0083 -0.2687 -0.0585
21097W        W37945  13.512   6.417   2.880 -0.0107 -0.3562  0.1935
21098W        W37946  11.869   6.026  12.994 -0.0175 -0.1205  0.0130
21099W        W37947   1.822   8.727   4.761  0.0768 -0.0534  0.2308
21100W        W37948   1.616   5.304   1.992 -0.0899 -0.0854  0.3420
21101W        W37949  12.809  12.718  14.001 -0.0119  0.0392 -0.1289
21102W        W37950   7.790  12.287  12.989 -0.3175  0.0633  0.1113
21103W        W37951   3.924   7.990  12.478 -0.0692  0.1635  0.3415
21104W        W37952   8.375  15.555  16.394 -0.1099 -0.2690 -0.1910
21105W        W37953  16.467   4.749  15.027  0.2779 -0.1250  0.0193
21106W        W37954   8.618   2.757  11.764  0.1497 -0.1043 -0.1966
21107W        W37955   4.323   8.239  13.353  0.2544 -0.0173 -0.3040
21108W        W37956  11.656   6.607   0.818  0.1441  0.0483  0.0189
21109W        W37957   1.341  13.991  14.901 -0.3188 -0.5290  0.0240
21110W        W37958   8.968   1.064  14.775  0.0799 -0.1578 -0.2821
21111W        W37959  10.527   9.660   4.644  0.1870  0.1203 -0.1535
21112W        W37960   1.223  11.144   0.150  0.1585 -0.1370 -0.0022
21113W        W37961  16.503   1.370  14.433  0.1402 -0.0632 -0.4299
21114W        W37962   5.216   5.073  13.607 -0.0658  0.1141 -0.2700
21115W        W37963  12.816   8.296   5.006  0.0781  0.1212  0.2154
21116W        W37964  10.299  15.135   3.704 -0.4691  0.5845  0.0294
21117W        W37965   5.534  16.702  13.430 -0.0005  0.2860  0.1036
21118W        W37966  17.649  17.399   4.911  0.0482  0.0870 -0.1455
21119W        W37967   5.008  16.500  11.356  0.0793  0.2376  0.0456
21120W        W37968  15.365  13.681  14.028 -0.6288 -0.0811 -0.2454
21121W        W37969   8.819   9.437   5.140 -0.2326  0.0134  0.1526
21122W        W37970  16.683   0.762   3.203  0.0027 -0.0141  0.0303
21123W        W37971  13.006   8.575   4.627  0.2984 -0.0510  0.0701
21124W        W37972  14.473   1.750   1.381  0.4227 -0.1611 -0.0107
21125W        W37973  14.928  16.182   1.885 -0.2504  0.0783 -0.2231
21126W        W37974   9.983  11.368  16.415 -0.4744 -0.1654  0.0322
21127W        W37975   1.832   4.073   3.389  0.0045  0.0903  0.0498
21128W        W37976   3.704   9.659  13.969 -0.0807  0.1499 -0.3734
21129W        W37977   2.046  14.176  14.322 -0.2093  0.1867 -0.0861
21130W        W37978   5.106  14.079   1.126 -0.4072 -0.0245 -0.1386
21131W        W37979  14.187  10.412   3.257  0.1294  0.2301  0.2514
21132W        W37980  15.080   5.101  15.094  0.3715  0.1299  0.2255
21133W        W37981   1.469  11.789  15.392 -0.4361 -0.2076  0.0837
21134W        W37982  14.220  12.095  11.410 -0.0795  0.1546 -0.0066
21135W        W37983   9.303   4.741   5.196  0.1882  0.3154 -0.1878
21136W        W37984  11.903  17.291  13.689  0.1262 -0.2172 -0.0136
21137W        W37985   4.529  17.048   2.001  0.1376  0.2523  0.0564
21138W        W37986   8.125  12.501   3.746 -0.1826  0.0144  0.1916
21139W        W37987   8.256  16.762  11.723  0.3177  0.1411 -0.1389
21140W        W37988   3.069  17.166   6.251  0.1984  0.2727  0.0576
21141W        W37989   9.825   5.394   2.733 -0.0807  0.1915 -0.2458
21142W        W37990  13.103   9.272   2.951 -0.1603 -0.0644 -0.3008
21143W        W37991   3.508  12.662   3.737 -0.1781  0.1750  0.0532
21144W        W37992  14.360   9.389   1.788  0.2421 -0.0285  0.1129
21145W        W37993  15.088  15.201   0.692  0.1314 -0.1416 -0.0454
21146W        W37994  15.634   3.106  13.606  0.3581  0.0660  0.1580
21147W        W37995  12.358   9.057  12.562 -0.0753  0.0857  0.1579
21148W        W37996   9.308  10.027  12.944 -0.1099 -0.3281  0.1374
21149W        W37997  16.609   2.888   0.322 -0.1104 -0.0191 -0.1169
21150W        W37998   0.762   2.303  14.833  0.1507 -0.0662 -0.1079
21151W        W37999  16.382  10.082   0.564 -0.0526  0.1431  0.0297
21152W        W38000  10.291   3.951  16.116  0.2503 -0.1157 -0.0251
21153W        W38001   1.084  15.448  15.155  0.4069  0.0927 -0.3390
21154W        W38002   7.614  10.807  11.661 -0.0356 -0.0696  0.1192
21155W        W38003   1.729  14.311  16.124 -0.1362  0.0365 -0.1773
21156W        W38004  10.893   0.047  13.750 -0.0718 -0.1965  0.1003
21157W        W38005  15.176   8.760   1.690 -0.1321  0.0022  0.3648
21158W        W38006  13.353  13.339  12.876 -0.0789  0.0621 -0.2026
21159W        W38007  12.334   7.321  13.949 -0.0159  0.0214 -0.2332
21160W        W38008  14.648   0.163  15.834 -0.3542 -0.1466  0.0379
21161W        W38009  11.449   5.965  13.400  0.2198  0.1157 -0.2952
21162W        W38010  11.719  14.253   1.876  0.3087 -0.4780 -0.2526
21163W        W38011   1.246  15.368   0.749  0.0447 -0.1291  0.1587
21164W        W38012  10.517  13.836   1.041 -0.0524  0.0458 -0.2367
21165W        W38013   8.344  17.326  15.071 -0.0204 -0.0217 -0.1392
21166W        W38014   9.117   4.915  11.793 -0.1182  0.2612 -0.0042
21167W        W38015   4.793   4.905   0.264  0.2150 -0.1883 -0.1015
21168W        W38016   7.434   6.695   3.225  0.1523  0.1177  0.1812
21169W        W38017  11.157  12.134   3.338  0.2259 -0.1604  0.2091
21170W        W38018  15.482  15.363   0.335 -0.0572  0.0458 -0.0295
21171W        W38019   9.668  12.576  14.475 -0.3181  0.2592 -0.2090
21172W        W38020   8.849   4.388  14.127 -0.3026  0.1581  0.1138
21173W        W38021   6.790   8.513   3.425  0.0504 -0.1446 -0.1137
21174W        W38022  16.052   1.475  16.120  0.2975  0.3257 -0.0532
21175W        W38023  17.460  16.433  13.267 -0.0359 -0.2302  0.0583
21176W        W38024  17.111  13.990   0.862  0.5398 -0.0724  0.1233
21177W        W38025  10.299   3.556   5.487 -0.1214 -0.0748  0.0019
21178W        W38026  10.493   1.179   5.129 -0.1486  0.4357  0.0599
21179W        W38027  12.507  13.269   0.398 -0.0176  0.4028  0.1927
21180W        W38028   0.266   4.373  10.540  0.2491  0.2952  0.1495
21181W        W38029   7.766  14.500  15.896 -0.1041 -0.2609  0.4358
21182W        W38030  10.548   3.093  16.414 -0.0563 -0.2670  0.0790
21183W        W38031   4.058  14.698  16.439  0.1428 -0.0439 -0.0122
21184W        W38032   1.740  12.993   4.114 -0.2154 -0.2355  0.1092
21185W        W38033  13.433   4.963  11.764 -0.0409 -0.0019  0.0772
21186W        W38034  16.277  17.671   3.517 -0.1646 -0.0824  0.0625
21187W        W38035   1.285  13.954   1.816  0.2423 -0.1768 -0.0027
21188W        W38036  17.526  12.596  14.017  0.0890 -0.1531 -0.1870
21189W        W38037  11.790   9.749   2.636 -0.1220  0.2520  0.0994
21190W        W38038  13.712  15.397  14.733 -0.2714 -0.0733  0.2198
21191W        W38039   5.311  14.570  13.968  0.3118  0.2959  0.0687
21192W        W38040  14.974   7.758  14.181 -0.0444  0.0981  0.0310
21193W        W38041  17.517   0.759   3.589  0.3213 -0.0165  0.1597
21194W        W38042  13.223   9.211   5.072  0.1930 -0.2874 -0.1510
21195W        W38043   2.229  15.231  16.020 -0.1491  0.0022  0.0641
21196W        W38044  15.544  14.215  11.792 -0.0019  0.1703  0.0797
21197W        W38045  15.068  16.003   3.590 -0.1024 -0.1007 -0.0717
21198W        W38046   6.073  11.827  15.615  0.2308 -0.0889  0.0189
21199W        W38047   7.046   1.508   2.575  0.0062 -0.1769 -0.0688
21200W        W38048   3.815  14.956  14.775  0.1999 -0.2639  0.1520
21201W        W38049   0.663   2.001   1.638  0.1196  0.2398  0.0918
21202W        W38050  14.397   7.257   3.862  0.2397  0.2531  0.2881
21203W        W38051  11.522  11.251   0.409  0.1043 -0.2095 -0.0331
21204W        W38052  16.402   2.062   6.251 -0.1506  0.2524  0.0215
21205W        W38053  17.195  13.812   5.182 -0.1403 -0.1224  0.0278
21206W        W38054  12.194   5.684  16.425 -0.1243  0.4528  0.0459
21207W        W38055   6.616   9.329  12.673  0.1146 -0.0844 -0.0824
21208W        W38056   6.937   0.585  14.703 -0.0785 -0.0743  0.0033
21209W        W38057  14.378   6.494   1.109  0.0627  0.0100  0.1991
21210W        W38058   0.149   0.705  14.084 -0.2043  0.0798  0.3271
21211W        W38059  10.653   0.894   0.269  0.1095 -0.2046 -0.2844
21212W        W38060  16.469   4.836  14.037 -0.1248  0.2375  0.0137
21213W        W38061  12.572  12.757   3.127 -0.0749  0.2068 -0.0441
21214W        W38062  12.061  15.037  12.414  0.1337 -0.3519 -0.0391
21215W        W38063   0.098  12.799  12.994  0.1989  0.2433  0.0751
21216W        W38064  10.769   3.310  12.691  0.0184 -0.0516  0.1716
21217W        W38065   4.066   4.901   4.641 -0.0271 -0.0456 -0.2061
21218W        W38066  10.124   1.602  14.429 -0.0280 -0.1990  0.0116
21219W        W38067   7.686  12.065   5.837  0.2451 -0.4259 -0.1395
21220W        W38068   3.192   0.789   5.155 -0.0241 -0.1156 -0.0468
21221W        W38069   5.092   4.925  15.692 -0.1421 -0.0557 -0.0252
21222W        W38070  15.641  13.636  11.885 -0.1109 -0.1512 -0.1587
21223W        W38071   9.098  12.849  10.706 -0.0550 -0.2037 -0.2129
21224W        W38072  11.002   1.613  13.577  0.0592 -0.1692  0.1951
21225W        W38073   4.771  17.479  16.229 -0.2827  0.3019 -0.0759
21226W        W38074   2.579   3.792   0.348  0.0790  0.1094 -0.0597
21227W        W38075  16.358   9.737  16.409 -0.4567  0.2291 -0.0471
21228W        W38076  16.736   3.633   0.704 -0.0449 -0.1787  0.0610
21229W        W38077   0.844   7.978   1.228 -0.1395  0.0827  0.1768
21230W        W38078  12.599  11.660   4.914 -0.1454 -0.1471  0.1251
21231W        W38079   3.746  10.738  16.529  0.1065  0.2099 -0.2179
21232W        W38080  12.405   7.523   0.039 -0.0408 -0.0730  0.0035
21233W        W38081   2.467   2.659   1.702 -0.0662  0.1635  0.0146
21234W        W38082  12.975   2.525  16.001  0.2572  0.0561  0.2899
21235W        W38083  15.666   2.411   1.185 -0.0795  0.0319 -0.2170
21236W        W38084   5.106   6.841  15.837  0.0639 -0.1773 -0.1122
21237W        W38085  14.485   7.254  10.698  0.0750  0.2439  0.1828
21238W        W38086  16.933   3.139   5.257 -0.0130 -0.1604 -0.1319
21239W        W38087  14.829   1.790   4.290  0.2644 -0.2255  0.1030
21240W        W38088  13.860   3.872  15.105 -0.0475 -0.0532  0.1465
21241W        W38089   2.777   0.515  13.981  0.0072 -0.0388  0.0190
21242W        W38090   5.144   6.554   4.901 -0.1177 -0.0338 -0.0424
21243W        W38091  13.408  17.506   1.484  0.0040  0.0203  0.2729
21244W        W38092   0.821   7.159   3.568 -0.2157  0.1293  0.0925
21245W        W38093   5.062   7.794  12.105 -0.3378  0.0885 -0.1535
21246W        W38094  15.218   1.701   0.658  0.2623  0.3204 -0.0570
21247W        W38095   7.352  15.968   2.176 -0.0493 -0.1724  0.0583
21248W        W38096   3.594   3.060  11.711 -0.2135  0.0496 -0.0432
21249W        W38097  13.590   9.877  15.296 -0.1424  0.2015  0.1257
21250W        W38098  16.202  10.218  16.322  0.0129 -0.2131 -0.0069
21251W        W38099   1.441   2.949  16.459 -0.1145 -0.2785  0.0561
21252W        W38100   2.084   5.290   1.789 -0.2511 -0.1283 -0.0392
21253W        W38101  12.655   9.367  13.937 -0.0194  0.0893 -0.4118
21254W        W38102  15.220  10.702  13.010  0.0920 -0.2254 -0.0620
21255W        W38103  13.487  11.978   1.825  0.2328 -0.1597  0.0583
21256W        W38104  17.596   0.156   1.541  0.0803  0.0083 -0.1041
21257W        W38105   4.441   4.243  14.946 -0.1336 -0.0581  0.0414
21258W        W38106   8.441   1.332   3.908  0.0935 -0.0187 -0.0560
21259W        W38107  11.973   2.555   1.289 -0.3084  0.0576 -0.0925
21260W        W38108  11.319   9.045  14.774 -0.1769 -0.0509  0.2040
21261W        W38109  11.072   5.245   0.591  0.1429  0.2246  0.3110
21262W        W38110  16.085   5.431   3.804  0.2462  0.0414 -0.2757
21263W        W38111  11.819  10.374   2.470  0.0023 -0.1603  0.0231
21264W        W38112   9.554   1.778  11.417 -0.3007 -0.0536 -0.0670
21265W        W38113   2.783   3.312   1.645  0.0287 -0.2923 -0.2061
21266W        W38114   7.370   2.342   4.334 -0.2675  0.0003 -0.0319
21267W        W38115   5.965   0.280  13.872  0.1517 -0.0932  0.1457
21268W        W38116   2.231  11.507   4.634 -0.0364  0.0742 -0.0271
21269W        W38117   3.148  15.915  12.374 -0.1401  0.2434 -0.1741
21270W        W38118   3.634  17.457  13.144  0.3325  0.1418 -0.0204
21271W        W38119   7.147   2.274  16.353 -0.1004 -0.1851 -0.1008
21272W        W38120   1.495  15.144   5.229 -0.0905  0.1080  0.1592
21273W        W38121   2.155   8.701  12.560  0.0334 -0.0101 -0.0771
21274W        W38122   3.809   8.822  14.514  0.0492 -0.1837  0.0644
21275W        W38123   3.151   9.887  15.075  0.1778  0.0940 -0.3109
21276W        W38124   3.712   9.841   1.926  0.1004 -0.1604  0.2504
21277W        W38125  14.594  11.719  16.360  0.2741  0.0606  0.0747
21278W        W38126  13.703   0.347  16.651 -0.2221  0.3404 -0.0288
21279W        W38127  13.038   9.772   0.337  0.4912  0.2103  0.0827
21280W        W38128  11.712   9.962   3.448 -0.1604  0.0298 -0.1673
21281W        W38129   1.139  12.833  16.011 -0.0065 -0.2581 -0.2993
21282W        W38130  16.942  13.358  14.413  0.3118  0.0201 -0.1051
21283W        W38131   4.396  16.921   3.573  0.0706 -0.0477  0.1840
21284W        W38132   4.556  14.716  15.299 -0.2400  0.2824  0.1651
21285W        W38133   8.811   8.481   1.405  0.1338  0.3020  0.0604
21286W        W38134   5.424  13.021   4.189 -0.1249  0.0627 -0.3536
21287W        W38135  12.857   6.225   2.275  0.0693 -0.3244 -0.0068
21288W        W38136   0.053   8.867   3.720  0.1038 -0.0318 -0.0324
21289W        W38137  11.088   7.281  13.075 -0.2265 -0.2671 -0.2490
21290W        W38138   2.684   5.309   1.700 -0.0779 -0.1578 -0.1632
21291W        W38139  15.702   4.266  16.525 -0.0858  0.1712  0.0562
21292W        W38140   2.602   3.389  15.260 -0.1444 -0.0036 -0.2410
21293W        W38141  11.129   6.928   5.976 -0.1695 -0.0899  0.2349
21294W        W38142  17.573   2.110  13.288  0.1426  0.1061  0.0797
21295W        W38143   4.389   1.464  16.122 -0.1655  0.1852 -0.2014
21296W        W38144   0.775   1.110  15.454  0.1891  0.1491  0.2302
21297W        W38145  17.510  11.299  12.789  0.2016 -0.2219 -0.1360
21298W        W38146   3.989  11.533   5.075  0.1884  0.0531 -0.0422
21299W        W38147   4.283   0.386  15.233  0.2324 -0.2567  0.1204
21300W        W38148   6.033   5.062  15.529 -0.2295  0.1643 -0.1534
21301W        W38149  16.065   6.490  12.102 -0.0514  0.0777  0.0057
21302W        W38150   2.310   5.944   1.168 -0.0858 -0.1373  0.1233
21303W        W38151  15.156   4.528  12.136  0.1427  0.1202  0.2737
21304W        W38152  13.638   8.818  14.980 -0.0754  0.0542  0.2878
21305W        W38153   8.341   2.416  14.261  0.1027 -0.2499 -0.3300
21306W        W38154   7.744   2.508  10.955 -0.0267  0.0773  0.0496
21307W        W38155   5.338   3.555   0.393 -0.2800  0.0078  0.0169
21308W        W38156   2.780   4.748   5.810  0.0202  0.1687 -0.1148
21309W        W38157  12.468  11.814   3.620 -0.2339 -0.0284 -0.0150
21310W        W38158   6.526  10.561  14.903  0.4199 -0.0407  0.2200
21311W        W38159   9.701   1.769   3.321  0.5049  0.1466 -0.0047
21312W        W38160  12.330   8.620  13.469 -0.0728  0.2494 -0.2845
21313W        W38161  17.522   0.427  11.604  0.0262  0.0021  0.0518
21314W        W38162  11.889  13.840   2.205  0.2231 -0.2043 -0.0523
21315W        W38163   3.950   8.795  11.643  0.1086  0.2541  0.2815
21316W        W38164  13.710   1.769  15.760  0.1026 -0.2238 -0.1059
21317W        W38165  17.217  12.550  11.579  0.0133  0.0005  0.0261
21318W        W38166   3.379   0.151  11.786  0.2718 -0.1416 -0.0929
21319W        W38167  10.271  13.798  14.606 -0.1058 -0.1239 -0.0090
21320W        W38168  12.567   7.616   1.751 -0.0718 -0.1392 -0.1983
21321W        W38169  12.623   2.494  12.439  0.0651  0.1232  0.1382
21322W        W38170   8.429   2.694   4.371 -0.1657  0.4081  0.0215
21323W        W38171   6.356  12.935   1.314  0.1721  0.0916  0.1900
21324W        W38172   6.479   2.448  14.676  0.0747  0.0444 -0.0210
21325W        W38173  14.554  12.082   3.414  0.3510  0.0297 -0.1190
21326W        W38174   4.519   1.869   1.774 -0.1270 -0.0469  0.1065
21327W        W38175   2.238  12.286  16.423 -0.5860  0.0120  0.1015
21328W        W38176   2.016  13.854   2.812 -0.0334 -0.0237 -0.2618
21329W        W38177   8.353  13.088  13.988  0.1720 -0.1137  0.0183
21330W        W38178   1.633   7.461   4.818  0.2116  0.2070 -0.0560
21331W        W38179   3.697   2.221   6.413 -0.1834 -0.0282  0.0768
21332W        W38180  12.944  13.051  15.391  0.1946  0.1160  0.2962
21333W        W38181   9.651  16.941  14.276  0.3796 -0.1477  0.2073
21334W        W38182  13.313   4.601   2.014  0.0307  0.2589 -0.1284
21335W        W38183  11.703   7.098   1.225  0.1647 -0.3060 -0.1045
21336W        W38184  13.432   5.433   4.327  0.1252  0.2073  0.0403
21337W        W38185   1.774   9.422   4.114  0.1700  0.0818  0.0014
21338W        W38186   4.167  10.192  12.425 -0.0258 -0.0719  0.1866
21339W        W38187  10.734   1.308  12.866 -0.2061 -0.0512 -0.1528
21340W        W38188   5.739  10.727   2.394  0.0301  0.0054 -0.0348
21341W        W38189  16.200  10.644   2.828  0.1578 -0.0452  0.0279
21342W        W38190   0.569   4.077   3.051 -0.0647 -0.1821  0.2269
21343W        W38191   8.827   0.437  11.736  0.3398 -0.0343  0.2160
21344W        W38192   6.138  10.258   1.598 -0.3422 -0.1580 -0.0922
21345W        W38193   3.577   4.232  15.115  0.0574  0.4007 -0.0694
21346W        W38194   7.783  11.568  15.186 -0.0340 -0.1384  0.1044
21347W        W38195   5.226   7.636   2.228 -0.0586  0.0435  0.0735
21348W        W38196  11.967   0.487  14.350 -0.2990 -0.0687 -0.0201
21349W        W38197   9.772   2.370   0.580 -0.1245 -0.1059 -0.0751
21350W        W38198   4.544  12.060  15.145 -0.0517  0.0172  0.0776
21351W        W38199   3.558   2.041  14.297 -0.0854 -0.2607 -0.0632
21352W        W38200   1.571  13.356   3.292 -0.1164  0.1780 -0.2846
21353W        W38201   5.106   0.244   0.314 -0.0580  0.2971  0.1636
21354W        W38202   9.668   2.907  16.277  0.1048  0.0019 -0.0085
21355W        W38203   0.630   2.403  12.896  0.0465 -0.1249  0.1211
21356W        W38204   1.536  10.307  15.294 -0.1612 -0.1272 -0.2697
21357W        W38205   0.524   4.057  12.116 -0.0159  0.0654  0.1293
21358W        W38206  16.072   9.187  12.297 -0.1877 -0.0510  0.2249
21359W        W38207   9.255   3.016   3.835 -0.0314  0.2493 -0.1624
21360W        W38208  13.811   9.651  14.796  0.0355  0.0552 -0.0952
21361W        W38209  10.490  12.008  16.272 -0.0053 -0.1234 -0.2868
21362W        W38210   5.413  13.174  15.589 -0.1872  0.3638 -0.1950
21363W        W38211  14.295  11.611  13.440  0.0318  0.3174 -0.1756
21364W        W38212   9.776   5.377   0.823 -0.3028 -0.0835  0.1184
21365W        W38213   3.658  16.078   5.088 -0.0873 -0.0838  0.0627
21366W        W38214   5.960  16.561   2.733 -0.0187  0.0092  0.2827
21367W        W38215  16.352   7.254   0.673  0.0291 -0.3305 -0.0525
21368W        W38216  15.635  17.630   5.679 -0.1036 -0.3170 -0.0882
21369W        W38217  14.349  11.580  11.394  0.1686 -0.2046  0.1227
21370W        W38218   3.010   6.837   2.677 -0.0117 -0.2629 -0.1288
21371W        W38219  14.812   7.959  15.122 -0.1316 -0.2157 -0.2425
21372W        W38220  17.129  13.717  16.406 -0.4525  0.1497  0.0162
21373W        W38221   1.264  16.616   1.688  0.0803  0.1556  0.1611
21374W        W38222  14.450   4.790   4.121 -0.0641 -0.0953  0.1804
21375W        W38223  10.681   9.830   2.185  0.1933 -0.0917 -0.0742
21376W        W38224   4.763  15.361   2.842 -0.1570 -0.2120  0.3526
21377W        W38225   0.436  16.557   3.914  0.1100  0.0356  0.2164
21378W        W38226   5.841   5.239   2.536 -0.0374  0.0286  0.4192
21379W        W38227   0.019  12.137   3.193  0.2936 -0.1731 -0.0607
21380W        W38228   7.995   3.513   0.090 -0.0468 -0.0739  0.1245
21381W        W38229   3.131   0.436   0.536 -0.1679  0.1757 -0.0565
21382W        W38230   3.248   4.583  16.398 -0.1412  0.0727 -0.4056
21383W        W38231   5.989   3.983  14.708  0.0068 -0.0788 -0.0033
21384W        W38232  13.382  14.749  12.727  0.1666 -0.3377  0.0134
21385W        W38233  11.766   7.535  15.681 -0.0004 -0.0843 -0.1835
21386W        W38234  16.237   3.341   3.636 -0.5036 -0.1104 -0.1641
21387W        W38235  13.911  13.821  11.863  0.1746 -0.0272  0.1452
21388W        W38236  15.686   5.285  11.843 -0.0605  0.0643 -0.2712
21389W        W38237   4.235   5.773  15.379 -0.2248  0.1670 -0.3938
21390W        W38238   1.258  16.681   4.228  0.0140  0.1240  0.0539
21391W        W38239  11.167   3.958  14.311 -0.0275 -0.1140 -0.1647
21392W        W38240  10.869   6.904   3.864  0.2073  0.3081  0.0588
21393W        W38241  12.728   0.918   0.765  0.0781 -0.0960 -0.2011
21394W        W38242  12.078   4.995  15.263  0.0948 -0.1278 -0.2486
21395W        W38243  14.267   5.946  13.832  0.2434  0.2496  0.0878
21396W        W38244   5.761  10.141   0.898  0.0251 -0.0300  0.2043
21397W        W38245  10.036   8.419  15.753  0.1590  0.4643  0.0536
21398W        W38246   5.136   0.611  12.739  0.0878 -0.0677 -0.1218
21399W        W38247   9.997  16.475  16.659  0.0760  0.3485  0.0007
21400W        W38248   8.093  14.138   1.953  0.0508  0.1765 -0.0007
21401W        W38249   7.320  11.627  13.043  0.1636 -0.0960 -0.2928
21402W        W38250   1.992   1.732   2.350 -0.0770 -0.0791  0.0450
21403W        W38251   5.214   3.784  11.618  0.1232  0.1304 -0.2088
21404W        W38252  17.212  15.954  16.367 -0.0521 -0.1283  0.2540
21405W        W38253   4.129   2.463   2.636  0.0168  0.0463  0.0270
21406W        W38254   5.258   9.455  10.523 -0.1098 -0.1077  0.0181
21407W        W38255   3.706   8.093   3.872  0.0631  0.0344 -0.1685
21408W        W38256   2.931   7.781  15.868 -0.1360 -0.3378 -0.1483
21409W        W38257   7.000   1.956   0.072  0.1937 -0.0669 -0.2583
21410W        W38258  15.950  14.462   5.099  0.0392 -0.0211 -0.2306
21411W        W38259   1.757  10.778  12.291 -0.2992  0.0414  0.1553
21412W        W38260   7.617   2.669   1.952  0.1405 -0.0211  0.0305
21413W        W38261   8.435  12.821  14.975  0.1067 -0.0928 -0.1308
21414W        W38262   8.855   2.967   3.560  0.1867 -0.0142  0.0730
21415W        W38263  11.033  15.398  11.667  0.0197  0.0157  0.0217
21416W        W38264   8.811  12.075  14.496  0.0348 -0.1497 -0.1378
21417W        W38265  10.306   1.467  12.008  0.0804  0.1364  0.3385
21418W        W38266   9.398  17.319  13.621  0.0291  0.0332  0.2538
21419W        W38267   2.423   9.947  14.049  0.2406  0.1848  0.0168
21420W        W38268   8.892   0.097  13.064  0.1064  0.1298 -0.0063
21421W        W38269  16.414   9.708   3.905  0.0668  0.2126 -0.0301
21422W        W38270   0.309   3.924  11.682 -0.0440  0.1167  0.0669
21423W        W38271   0.842  13.295  10.981 -0.0128  0.0894 -0.4906
21424W        W38272   6.633   3.972   3.208  0.2360  0.2899  0.1723
21425W        W38273   4.820   6.139  11.861 -0.0787  0.2132 -0.1791
21426W        W38274  16.721   4.598   1.039 -0.4054  0.2308  0.1865
21427W        W38275  17.318   6.281   4.791 -0.2046  0.0827 -0.1696
21428W        W38276  10.508  10.824  13.629 -0.1250 -0.1800  0.1393
21429W        W38277   4.038  11.274   5.568 -0.0090 -0.0834 -0.1235
21430W        W38278   6.827  11.780   4.752 -0.1889 -0.1886 -0.1530
21431W        W38279  12.418  10.792   3.716 -0.1207  0.0353 -0.1215
21432W        W38280  12.167   6.123   3.142 -0.2181  0.0683 -0.2676
21433W        W38281   9.084   8.538  15.477 -0.0159  0.1296 -0.0403
21434W        W38282  13.019   0.291  15.105  0.1373 -0.2145  0.2029
21435W        W38283   4.959   7.710  10.742 -0.0298 -0.1552 -0.0615
21436W        W38284  14.593   7.757   2.422 -0.0602  0.0087  0.0649
21437W        W38285  17.511  16.088  14.344  0.1045  0.0774  0.1566
21438W        W38286   1.477   8.988  16.394  0.2999 -0.4060 -0.0233
21439W        W38287  13.967  11.330   4.161  0.1884 -0.0929 -0.5079
21440W        W38288   4.968  17.165  15.497 -0.2415  0.1531  0.2074
21441W        W38289   0.704   6.510   2.854  0.3064  0.1056 -0.2338
21442W        W38290  14.843  15.423  14.468  0.0709 -0.2433 -0.1355
21443W        W38291   9.784  14.190  11.596 -0.1297 -0.1992  0.0720
21444W        W38292  13.055   0.162   1.375 -0.3498 -0.3991 -0.0504
21445W        W38293  15.264   6.657  16.443 -0.3113 -0.0672  0.1738
21446W        W38294   7.926  12.241  14.035 -0.0218 -0.0784  0.2013
21447W        W38295  12.406   6.948  11.477 -0.0852  0.1259  0.2409
21448W        W38296   3.746  11.509  15.424  0.1325 -0.0558 -0.1474
21449W        W38297   4.242   6.472   2.821  0.1866  0.0792  0.0370
21450W        W38298  16.228   7.876   0.522 -0.2421 -0.2115 -0.0861
21451W        W38299  13.913   3.719   2.421 -0.2023  0.0068  0.0595
21452W        W38300   3.486   0.272   4.212  0.1358  0.0300  0.0064
21453W        W38301  16.567   5.729  16.414  0.6310 -0.0231  0.0758
21454W        W38302  11.768   7.017  13.408 -0.0510 -0.1025  0.0193
21455W        W38303  15.442  15.558   5.449  0.1212  0.0065  0.0615
21456W        W38304  11.484  14.338  14.837 -0.2818 -0.0687  0.2638
21457W        W38305  16.454   4.477   5.307  0.0764 -0.0403  0.3278
21458W        W38306   0.890   4.800  12.407 -0.2158 -0.2185  0.0175
21459W        W38307   5.525   1.815  11.651 -0.0527  0.2180  0.3070
21460W        W38308   4.540  16.539   2.208 -0.0264  0.2246  0.1395
21461W        W38309  15.506   4.047   2.216 -0.2109  0.0385 -0.0192
21462W        W38310  10.329   3.599   1.512 -0.1036  0.0622 -0.1207
21463W        W38311   2.967   5.845  13.610 -0.1298 -0.0708 -0.0870
21464W        W38312  12.928   3.462  11.651  0.0853  0.0632 -0.0150
21465W        W38313  12.068   7.815   1.724 -0.0374 -0.0799  0.1185
21466W        W38314  16.179  12.147  11.582  0.1467 -0.1187 -0.0816
21467W        W38315  13.608  14.095   3.972 -0.1536 -0.3821  0.0975
21468W        W38316   5.601  13.632   1.837  0.0938 -0.1564 -0.3929
21469W        W38317   9.254   9.384  10.977 -0.2177 -0.0112 -0.2967
21470W        W38318  14.245   4.093  14.341 -0.1044  0.0181  0.2051
21471W        W38319  15.907   8.861   2.777 -0.0545 -0.0528 -0.1382
21472W        W38320  11.807   3.031   0.011 -0.1921 -0.0443  0.1708
21473W        W38321   8.285   7.386   0.034  0.2187  0.5210  0.0662
21474W        W38322  12.656  17.658  15.177  0.0485  0.0381 -0.4076
21475W        W38323   8.010   1.229   0.711  0.0595  0.2938 -0.2090
21476W        W38324  10.290  15.420   6.009 -0.0602  0.2173  0.0300
21477W        W38325  14.770  17.368  12.215 -0.0152  0.1537 -0.0031
21478W        W38326   4.574  17.300   4.614  0.3267 -0.0460 -0.2613
21479W        W38327   2.493   3.160  12.910  0.0410  0.0470 -0.0822
21480W        W38328   2.741   7.720  13.988 -0.1824  0.0055 -0.1266
21481W        W38329   3.060   2.690   3.239  0.3669 -0.2695 -0.1786
21482W        W38330   7.921   7.466  14.039  0.1112 -0.1570  0.0599
21483W        W38331  14.036   8.661  13.551  0.1898 -0.2477 -0.0081
21484W        W38332  17.241  13.375   0.107 -0.1052 -0.0301  0.0553
21485W        W38333  15.771   0.912  16.033  0.1070 -0.0617 -0.0435
21486W        W38334   3.717   6.401   4.639  0.2987  0.1822  0.0431
21487W        W38335   1.156  10.583  11.722 -0.0821 -0.0596 -0.0691
21488W        W38336   8.652  10.887  12.730  0.2194  0.1842  0.1036
21489W        W38337   1.792  12.940   1.930 -0.0107  0.0485  0.1130
21490W        W38338   2.632  13.664  15.439 -0.2762  0.1783 -0.3496
21491W        W38339  11.954   8.566  15.249 -0.0158  0.2527  0.3169
21492W        W38340  14.920  12.245  15.350 -0.0781  0.0612  0.2138
21493W        W38341  14.198  14.865  13.709 -0.2121 -0.0293  0.1938
21494W        W38342  14.633   1.931  11.975  0.0755 -0.0348  0.2033
21495W        W38343  12.298   0.948  16.400  0.0208 -0.0057  0.1364
21496W        W38344   5.240   6.488  16.253 -0.0490  0.0721 -0.2240
21497W        W38345  15.771  11.950  16.570 -0.1271 -0.2731  0.2145
21498W        W38346   8.286  13.728   0.770  0.2259  0.0350 -0.0893
21499W        W38347   8.355   6.476   2.546 -0.4401 -0.1777 -0.0266
21500W        W38348  14.040   8.957   1.367 -0.1629 -0.0891  0.3532
21501W        W38349   5.232   9.883  13.128  0.3582  0.0853  0.1574
21502W        W38350   2.942   7.596   2.773 -0.1417  0.1137  0.1215
21503W        W38351  14.060  15.497  13.045 -0.0646  0.1597  0.0176
21504W        W38352   5.063   1.927   2.531 -0.1191 -0.1230 -0.0875
21505W        W38353  10.678   7.333   1.551  0.2513 -0.1512  0.1012
21506W        W38354  13.379  12.146   5.544  0.1285  0.0125 -0.2283
21507W        W38355   5.189  17.318  12.903 -0.3105  0.1411 -0.2496
21508W        W38356  12.326  12.365   1.524  0.1399  0.0233  0.3621
21509W        W38357  14.934  10.632  14.888 -0.0307 -0.0788 -0.0846
21510W        W38358  15.223   0.743   0.912  0.0987 -0.0497 -0.0058
21511W        W38359  17.303   2.438  13.075 -0.0471 -0.0003  0.2338
21512W        W38360   6.078  14.282   1.867  0.0667 -0.0351  0.3424
21513W        W38361  10.324  11.776  15.653 -0.1102  0.2152  0.3511
21514W        W38362   3.540  16.225  12.268  0.2137 -0.1276  0.2760
21515W        W38363   1.404  10.479  14.812 -0.0946 -0.3027  0.3766
21516W        W38364  16.838  11.629  14.776 -0.1916 -0.3632 -0.1426
21517W        W38365   7.169  13.795  12.459  0.2638  0.1870 -0.0517
21518W        W38366  15.526   9.755  11.080  0.1293 -0.0718 -0.2143
21519W        W38367   6.984   0.320   3.124  0.0757 -0.1457  0.1344
21520W        W38368   4.383   1.818  13.203 -0.0150 -0.2911 -0.4756
21521W        W38369   9.845   5.617  12.530 -0.1442  0.1659 -0.0866
21522W        W38370  11.078   9.426  15.718  0.0224 -0.2275  0.2639
21523W        W38371   4.317   2.511  14.838 -0.0475  0.1428 -0.3914
21524W        W38372   5.577  16.665   5.410  0.0703  0.1344 -0.0976
21525W        W38373   9.802   5.371   1.324 -0.0634  0.1219 -0.1996
21526W        W38374   0.981  12.414   0.196  0.0074  0.2766  0.1631
21527W        W38375  14.623  16.260  13.472 -0.0482 -0.0266  0.2356
21528W        W38376  13.624   0.711   5.326 -0.0804 -0.2785  0.0457
21529W        W38377   9.471  13.044  14.595  0.1855 -0.1145 -0.0217
21530W        W38378  12.817   1.040   1.734  0.1174  0.2979  0.0035
21531W        W38379   9.034  11.778  15.564 -0.0390 -0.0310  0.0529
21532W        W38380   7.779   8.340  16.577 -0.0411  0.0952  0.2212
21533W        W38381  13.077   8.070   2.517 -0.0632  0.2741  0.1105
21534W        W38382  15.100   9.854   2.284  0.2715  0.0439 -0.3074
21535W        W38383  16.077   1.243   0.979 -0.3141  0.0862 -0.3207
21536W        W38384   8.811   5.043  11.437  0.1310  0.1571  0.0338
21537W        W38385   8.061   8.320  11.575  0.0583 -0.0231  0.1405
21538W        W38386   5.869   2.559  12.357  0.1965  0.0044 -0.1439
21539W        W38387   8.126   1.701   0.481 -0.0853 -0.3092 -0.1478
21540W        W38388  16.179   7.018  12.011 -0.0283 -0.4863 -0.0556
21541W        W38389   1.479   4.071   5.578  0.1088  0.0207 -0.2052
21542W        W38390   2.361   8.534   4.494  0.0004 -0.1056 -0.2625
21543W        W38391   5.842  11.729   0.087 -0.1848 -0.3053  0.0962
21544W        W38392  11.421   1.240  16.664  0.2104  0.1352 -0.0064
21545W        W38393  14.128   0.103  15.908  0.2558  0.0196 -0.1696
21546W        W38394  14.106  10.699   0.763 -0.0459 -0.1471 -0.3475
21547W        W38395  13.329  15.107  16.231  0.1655 -0.1838 -0.0753
21548W        W38396  16.125  14.537   4.646 -0.2465 -0.2177  0.3561
21549W        W38397   9.358   9.036  13.894  0.0260  0.6532 -0.0747
21550W        W38398  14.345  11.859   0.109 -0.1406  0.1881  0.1182
21551W        W38399   2.132   5.517   4.387  0.1982 -0.0050  0.1339
21552W        W38400   4.236   3.301  13.480 -0.1331 -0.2979 -0.0132
21553W        W38401   0.896  14.333   2.568  0.1431 -0.0638 -0.1702
21554W        W38402  10.539   1.353   0.501 -0.1218  0.1330 -0.1143
21555W        W38403  16.094  10.873   0.648 -0.1716 -0.2696 -0.0019
21556W        W38404   3.725  13.166  12.671 -0.0526  0.0011 -0.1571
21557W        W38405  17.330   1.902  12.113  0.1701 -0.1194  0.1732
21558W        W38406   7.104   1.330  12.187 -0.1791 -0.1014 -0.0950
21559W        W38407  16.292   1.355  13.156 -0.0103  0.2271  0.0518
21560W        W38408  16.296  10.513  15.562  0.0237 -0.1105 -0.1041
21561W        W38409  10.129   6.655   3.472  0.1282  0.1001 -0.3740
21562W        W38410   9.211  14.795  16.205  0.1475 -0.0267  0.1086
21563W        W38411   1.489   4.149  15.329  0.2575  0.5420  0.4276
21564W        W38412   2.262  16.885  14.751 -0.0221  0.2507  0.2125
21565W        W38413   9.504   4.271  15.826  0.0294 -0.0635  0.2477
21566W        W38414  14.305   2.872  10.399  0.1090 -0.1325 -0.1072
21567W        W38415   2.286  10.563  14.725  0.2478  0.0822 -0.0235
21568W        W38416  11.170   4.844   4.570 -0.1338  0.1074  0.3305
21569W        W38417  15.338   2.720   2.216  0.0649 -0.1896  0.0571
21570W        W38418   3.125  14.400  12.546  0.0564  0.1521 -0.2397
21571W        W38419  10.359   6.765   3.985  0.0355  0.0034  0.1967
21572W        W38420  14.298  11.781   2.232  0.0522  0.1603 -0.0126
21573W        W38421  16.581   3.873  14.931 -0.0539  0.1364 -0.2036
21574W        W38422   5.172   8.051   2.001 -0.1362 -0.1125  0.1389
21575W        W38423   4.472  12.746   5.075  0.1446 -0.1520  0.3628
21576W        W38424  11.029  15.900   4.482 -0.1356  0.2070  0.1570
21577W        W38425   7.976   2.486   5.150 -0.0310 -0.5006 -0.3054
21578W        W38426  14.114  11.267   2.277 -0.0466 -0.3901 -0.0450
21579W        W38427   2.444   5.992  13.832 -0.1637  0.0541  0.2043
21580W        W38428  17.393   8.042   4.019 -0.0432  0.0848 -0.0303
21581W        W38429  16.613  11.999   0.561 -0.0654 -0.1805  0.0034
21582W        W38430  14.864   0.894  12.753 -0.1058 -0.2394  0.1064
21583W        W38431   2.682   0.116   3.057  0.1242  0.0094 -0.2159
21584W        W38432  16.528   7.523  11.296  0.0452 -0.1009 -0.0622
21585W        W38433  10.053  17.092   0.712 -0.1092  0.1285  0.0395
21586W        W38434   7.603   4.101  14.394  0.1249 -0.1492  0.1714
21587W        W38435   5.584   7.072   0.708  0.0654  0.0896 -0.1967
21588W        W38436  10.801   2.370  11.888 -0.1010 -0.0615 -0.3312
21589W        W38437   7.809   1.856  15.598 -0.1459 -0.1010  0.2262
21590W        W38438  11.236   5.507  13.417 -0.0456  0.1259  0.2217
21591W        W38439   8.870   5.835  15.304 -0.1203 -0.3388  0.2726
21592W        W38440  10.300   6.495  12.412 -0.2192  0.0239  0.3682
21593W        W38441  13.090   9.760  15.297 -0.3145 -0.2512  0.1435
21594W        W38442  11.279   7.889   1.448  0.0771  0.0475 -0.0075
21595W        W38443   9.879  13.153   4.249  0.1972 -0.1332 -0.2310
21596W        W38444   6.491   8.561   4.256  0.0181  0.0404 -0.0489
21597W        W38445   4.108  15.374   1.402 -0.3433  0.0513  0.3132
21598W        W38446   6.425  15.583   4.972  0.1213  0.0558 -0.1250
21599W        W38447  11.361   7.348   2.346  0.0541  0.1247  0.2222
21600W        W38448  14.160   1.898  11.707 -0.0800  0.1048 -0.1558
21601W        W38449   5.168  11.765   3.668  0.0722 -0.1282  0.0616
21602W        W38450  11.405   8.012   0.995 -0.0068 -0.1259 -0.0093
21603W        W38451  15.670   6.922  11.782  0.0123 -0.3998 -0.0590
21604W        W38452   4.775   2.676   4.860  0.0459  0.1004  0.2100
21605W        W38453   9.788  17.163   3.424  0.0631  0.0581 -0.1956
21606W        W38454   1.601  12.826  14.445 -0.0226  0.0558 -0.2197
21607W        W38455   1.798   2.787  13.482 -0.0819 -0.1156 -0.2478
21608W        W38456   7.489  11.316   5.126 -0.1732 -0.0300 -0.2027
21609W        W38457  10.645  14.170   3.558 -0.0687  0.1066  0.0712
21610W        W38458   1.403   6.950  11.964 -0.0589  0.0630 -0.2059
21611W        W38459  12.451  15.348  12.033  0.2501  0.1140  0.0693
21612W        W38460   6.523  10.703   1.780 -0.0560  0.1851  0.0844
21613W        W38461   7.595  17.062   5.347  0.1304  0.1523 -0.1294
21614W        W38462   9.375  16.040  14.268  0.0120 -0.1310 -0.1407
21615W        W38463   6.921   3.135   5.400 -0.1318  0.0588  0.0512
21616W        W38464   7.850  15.939  14.355 -0.0361  0.1234  0.1165
21617W        W38465   5.351  12.556  11.224  0.3019  0.3004  0.1393
21618W        W38466   9.374   4.594   2.540 -0.0576 -0.0877 -0.0535
21619W        W38467   0.420  14.482   2.312 -0.1999  0.0704  0.1636
21620W        W38468   1.100  10.092  11.820 -0.3802  0.0109 -0.1346
21621W        W38469  15.957  17.174   0.811  0.0700  0.3749  0.1924
21622W        W38470  11.967  15.697  15.049 -0.1444 -0.0617 -0.3789
21623W        W38471   6.022   7.626  15.643  0.0741  0.1206  0.0356
21624W        W38472  12.527  15.961   2.739 -0.2252 -0.0940 -0.0960
21625W        W38473   0.632   4.836   3.378  0.2030  0.2586  0.0691
21626W        W38474  12.703   4.715  14.096  0.0469 -0.2312  0.1319
21627W        W38475  12.726  10.327  10.636 -0.1374 -0.0158 -0.2439
21628W        W38476   1.073  17.675   2.276  0.1424  0.0202  0.1654
21629W        W38477   8.255   5.275   3.591  0.3639  0.0208  0.0520
21630W        W38478  13.561   1.966   1.495 -0.0629  0.2325  0.2083
21631W        W38479  10.709   2.875  12.408  0.2533  0.0944  0.0864
21632W        W38480  10.159   7.932  15.163  0.3388 -0.2746  0.1227
21633W        W38481   1.451   9.708   0.554  0.1240 -0.2498  0.0644
21634W        W38482   5.301   0.010   4.072  0.1207  0.2008  0.0411
21635W        W38483   5.593   0.051  12.331  0.1432  0.0766 -0.0132
21636W        W38484  13.757   8.315   3.060  0.0824 -0.0453 -0.0337
21637W        W38485  15.399  15.632  13.388  0.1089 -0.0257 -0.0762
21638W        W38486   9.115   3.992  16.087  0.0852  0.1768 -0.0269
21639W        W38487  16.117   2.181  15.875 -0.1765 -0.0137 -0.1413
21640W        W38488   7.246  11.759   2.261  0.1008  0.3218 -0.1826
21641W        W38489   7.928   1.949   2.430 -0.1045 -0.0107 -0.2332
21642W        W38490  14.521   3.821  16.129  0.0577  0.1658  0.1092
21643W        W38491   2.241   4.701   0.653 -0.0461 -0.0523  0.0807
21644W        W38492  14.315   3.618  14.476  0.0252  0.0664 -0.1083
21645W        W38493   6.432   8.589  11.408 -0.0788 -0.2804  0.0960
21646W        W38494  12.187   9.681   4.915  0.3433 -0.2353  0.1696
21647W        W38495   1.473  15.698  11.464 -0.0755 -0.0742  0.0594
21648W        W38496   0.923   2.316   4.012  0.0820  0.0347 -0.1621
21649W        W38497  17.694   0.023  13.280  0.0004  0.0007 -0.2931
21650W        W38498   5.222  13.028  16.364  0.2791 -0.1372  0.1173
21651W        W38499  14.379   4.985  13.646  0.0761 -0.2363  0.0382
21652W        W38500   0.533   3.080   5.355 -0.3077  0.2409 -0.0515
21653W        W38501  13.933  15.132  14.344 -0.0345 -0.2044  0.2613
21654W        W38502   7.886   2.909  13.233  0.3023  0.1801 -0.1907
21655W        W38503   7.392   4.020  15.930  0.0855  0.1953  0.0483
21656W        W38504   7.754   6.266   1.616  0.0343 -0.1665 -0.0659
21657W        W38505  14.880   6.378  10.688  0.0899  0.2256 -0.1557
21658W        W38506   2.421   4.285   0.280  0.1183  0.1184 -0.0752
21659W        W38507  17.006   7.835   3.720 -0.0697  0.2699 -0.2502
21660W        W38508   3.161   1.386  15.588  0.3242 -0.3574 -0.1292
21661W        W38509   0.567   7.620  14.734 -0.2134 -0.0026  0.0943
21662W        W38510  10.198   4.426   1.774  0.3272 -0.1503 -0.0094
21663W        W38511  14.181   2.979  13.405 -0.5742  0.2236 -0.1843
21664W        W38512  16.115   7.688  15.474 -0.1774  0.2509  0.0699
21665W        W38513  12.573  13.057   4.803  0.2510 -0.0232 -0.1208
21666W        W38514  11.377   5.817  12.929  0.0775 -0.4276 -0.0141
21667W        W38515  12.990  12.830  11.439  0.0778 -0.0160 -0.0430
21668W        W38516   7.027   7.696  11.866  0.1557 -0.0186 -0.1191
21669W        W38517   6.282   9.843  12.910 -0.0818  0.1122  0.0044
21670W        W38518  16.094   9.423   4.260 -0.1798 -0.2637 -0.2389
21671W        W38519  17.681   2.120   0.388 -0.1116  0.1080  0.0805
21672W        W38520  15.483  16.776   1.423 -0.0939 -0.0671 -0.1158
21673W        W38521   4.967  10.335  11.731  0.0928 -0.2765 -0.1254
21674W        W38522   7.325   1.821   4.589 -0.0566  0.0907  0.0810
21675W        W38523  11.810   7.479   1.980  0.2264 -0.0560 -0.1062
21676W        W38524  14.007   0.746   5.002  0.0384 -0.1289  0.0624
21677W        W38525   4.184  16.278   6.234  0.1695 -0.1200 -0.0173
21678W        W38526   4.601   8.563   1.649  0.1159  0.0013 -0.1266
21679W        W38527   5.817   8.196   4.857  0.3217  0.0440 -0.0446
21680W        W38528   7.026  15.665  11.967  0.0277 -0.0301  0.1548
21681W        W38529   6.401  13.064  12.343 -0.0652 -0.1615 -0.1274
21682W        W38530   1.145  10.279   2.630  0.0913 -0.0636 -0.5397
21683W        W38531  16.543   6.834  11.470 -0.1069 -0.1338  0.1122
21684W        W38532   9.684  16.513   4.413 -0.2524 -0.0073  0.3006
21685W        W38533   8.142   8.622   0.829 -0.1341  0.1998  0.0583
21686W        W38534  15.815  11.378   3.591  0.0188  0.2481  0.2359
21687W        W38535  14.604   4.354  12.679  0.0185  0.0215  0.2580
21688W        W38536   9.130   5.073  14.185 -0.5461 -0.2726  0.1990
21689W        W38537  17.382   1.079   1.201  0.1196  0.0571  0.0465
21690W        W38538   2.785  13.120  14.083 -0.3191  0.3692  0.1086
21691W        W38539   7.252  12.401  13.272  0.1983  0.0927  0.1044
21692W        W38540  16.401  11.261   4.304  0.1919 -0.0182  0.0871
21693W        W38541   1.205   2.842  11.084 -0.3797  0.2191 -0.0570
21694W        W38542  17.218   0.715  12.067 -0.0658  0.2285 -0.0767
21695W        W38543   5.386   4.450   2.656 -0.1793 -0.0165 -0.0063
21696W        W38544  16.353  10.687   3.708  0.0184  0.0160 -0.1200
21697W        W38545  10.787   9.017  13.548  0.0621 -0.0877  0.2720
21698W        W38546   7.162  12.246  11.560 -0.0290  0.0221 -0.0700
21699W        W38547   6.036   8.249  14.099 -0.0979  0.1327 -0.1754
21700W        W38548   0.274   0.049   5.223  0.2040 -0.0222  0.3979
21701W        W38549   0.486   8.050   3.648 -0.1623 -0.0201 -0.1605
21702W        W38550   4.852   3.717  14.239  0.1247 -0.0464  0.1174
21703W        W38551   0.239   3.610  13.421  0.1557  0.3714  0.0471
21704W        W38552   6.203  17.233   2.120  0.0004  0.1229  0.1248
21705W        W38553   3.235  12.204   1.518 -0.0688  0.0383 -0.0040
21706W        W38554  12.905   4.685  15.209 -0.0700 -0.1209 -0.3681
21707W        W38555  16.934  10.100  14.547 -0.0885  0.0320 -0.0076
21708W        W38556   1.703   5.279   3.417  0.0714 -0.1301 -0.1323
21709W        W38557   0.114  11.426  16.134 -0.2444 -0.2137  0.1586
21710W        W38558  15.090  13.818  15.228  0.0807  0.0995  0.0778
21711W        W38559   0.979  13.408   0.192 -0.4029  0.0163 -0.0382
21712W        W38560   7.189  14.926   5.172 -0.3628  0.3609  0.1371
21713W        W38561   8.826  15.861   0.076 -0.0968 -0.2365 -0.0316
21714W        W38562  13.156  14.105   2.041  0.2277 -0.0017  0.1709
21715W        W38563   7.948   9.129   2.112  0.2411 -0.1970 -0.1144
21716W        W38564  10.779   4.434  16.143 -0.1090 -0.1342  0.0794
21717W        W38565   5.578   7.056  16.050 -0.1575  0.0535 -0.2926
21718W        W38566  16.286  10.045  11.712 -0.0736  0.3915 -0.0620
21719W        W38567  13.759  12.163  14.467 -0.1320 -0.0096  0.1179
21720W        W38568   7.621   3.753  11.861  0.0153 -0.1864  0.0803
21721W        W38569   1.348   4.137  13.099 -0.0131  0.0031 -0.3731
21722W        W38570   2.801  10.567  15.057  0.0818  0.2986  0.0967
21723W        W38571   7.281   5.534   1.989  0.0089 -0.2155 -0.1213
21724W        W38572  13.775   4.136   2.658  0.0449  0.0083  0.1639
21725W        W38573   0.319   6.783  16.491 -0.0534 -0.3104 -0.1965
21726W        W38574  10.864   4.617   3.642  0.1409  0.0972  0.1106
21727W        W38575   3.212   3.488  14.449 -0.3161  0.4070 -0.2073
21728W        W38576   2.123  14.522  15.777 -0.0262 -0.0145 -0.0281
21729W        W38577  13.933   8.408   4.442  0.0199  0.1352  0.0327
21730W        W38578   0.658   1.852  12.952 -0.0009  0.0219 -0.0553
21731W        W38579   6.835   0.732  16.670  0.0485  0.1852  0.0519
21732W        W38580   2.150   1.654   4.580  0.0119  0.0433 -0.0463
21733W        W38581   7.313  14.643   1.891 -0.2790 -0.1196  0.1636
21734W        W38582  10.155  14.094   3.619  0.2071 -0.2621 -0.4333
21735W        W38583  11.659   0.259   0.220  0.1857 -0.2372 -0.1671
21736W        W38584  13.672   0.137   4.585  0.2268 -0.0027 -0.0419
21737W        W38585   0.077  12.025   4.850  0.1547 -0.2982  0.1404
21738W        W38586  16.108  12.813   5.143  0.1173  0.0057 -0.3427
21739W        W38587   9.397  14.963   4.682  0.0278 -0.0121 -0.0663
21740W        W38588  12.751   4.033  13.222  0.2021 -0.0557 -0.4335
21741W        W38589  16.346  15.707   0.110  0.1545 -0.0883  0.1828
21742W        W38590   7.164  15.034   0.092  0.0075 -0.2510  0.0675
21743W        W38591   3.978  12.819  14.862 -0.1062  0.0865  0.2302
21744W        W38592   8.663   3.692   4.302 -0.2052 -0.1521  0.0903
21745W        W38593  10.307  15.903   3.086  0.2174  0.1372 -0.1076
21746W        W38594   2.785  14.782   4.241  0.0310 -0.1202  0.1790
21747W        W38595   7.990  17.541   3.296 -0.0309  0.0588  0.2277
21748W        W38596  14.898  10.371   3.854 -0.2004  0.4825  0.0075
21749W        W38597  10.266   6.679  13.473 -0.3633 -0.2346 -0.2593
21750W        W38598   1.017  13.067  12.792 -0.0802  0.2139 -0.0262
21751W        W38599  13.173  10.509   0.621 -0.2986 -0.0469 -0.3291
21752W        W38600   0.505   5.674  13.460  0.0292 -0.2522 -0.0928
21753W        W38601   4.243   5.757  12.117  0.0701  0.1547 -0.1596
21754W        W38602   6.254  15.509  13.506 -0.0275  0.1027 -0.0533
21755W        W38603   5.464   5.007  11.076  0.2307  0.0832  0.0062
21756W        W38604  10.930   4.766   0.334  0.0234  0.1453 -0.2110
21757W        W38605   8.795  15.214   4.306 -0.1145  0.3250  0.1560
21758W        W38606   1.964   7.235  16.150  0.2849  0.4014 -0.1386
21759W        W38607  16.276   4.965  16.310  0.1326 -0.4964 -0.3210
21760W        W38608  16.485  10.997  11.500 -0.1138 -0.2204  0.0532
21761W        W38609  15.492   9.318  11.307 -0.0783 -0.2952 -0.2571
21762W        W38610   3.866   4.973   2.407  0.0595 -0.1087  0.0062
21763W        W38611   5.425   1.371   3.230 -0.2325 -0.2760 -0.0436
21764W        W38612  12.998  17.316   0.014 -0.2277 -0.1538  0.0348
21765W        W38613  13.920  12.440  15.720  0.0742  0.1837  0.1714
21766W        W38614  15.968  13.173   4.815 -0.0067  0.1170 -0.1501
21767W        W38615  16.900  12.990  11.559 -0.0247  0.0319 -0.3268
21768W        W38616  12.436   0.963  13.213  0.0831  0.1195  0.2356
21769W        W38617  16.975  12.879   0.151 -0.2869  0.2150  0.2275
21770W        W38618   9.689  16.145   4.724 -0.0672 -0.0648  0.0241
21771W        W38619  10.167  10.568  12.681  0.1377 -0.1414  0.3590
21772W        W38620   2.045  15.296  15.029 -0.2213  0.0885  0.0924
21773W        W38621   0.235   8.232   1.407 -0.0675 -0.0110  0.1038
21774W        W38622   2.341  13.050  14.358 -0.1410  0.2689  0.1512
21775W        W38623  14.878  13.420   0.516 -0.0726  0.0289  0.1078
21776W        W38624  15.162   2.902   0.247  0.0191 -0.2168 -0.0211
21777W        W38625  11.767   7.804  10.919 -0.0591 -0.1634  0.2881
21778W        W38626  16.908   2.446   2.443  0.0311  0.1360 -0.0143
21779W        W38627  16.062  16.734   3.918 -0.2666 -0.1115  0.0235
21780W        W38628   7.925   4.206   5.376 -0.1487  0.0416 -0.0552
21781W        W38629   8.464   0.966   0.919 -0.1696  0.1207 -0.0367
21782W        W38630   4.603   0.738   5.399  0.0600 -0.0032  0.2280
21783W        W38631  13.407   0.040  11.956  0.0615  0.3753  0.0259
21784W        W38632   6.503  16.971   4.316 -0.0961 -0.3401  0.0424
21785W        W38633  13.936   1.407   4.161 -0.0582 -0.0075 -0.1100
21786W        W38634   2.692  12.200   0.783 -0.1229 -0.0761 -0.0464
21787W        W38635   2.109  11.580  14.730  0.2381  0.3073 -0.0129
21788W        W38636   4.728   1.898   2.898  0.0948 -0.0032 -0.0095
21789W        W38637   8.124   9.050   1.031  0.2007  0.0896 -0.1709
21790W        W38638   5.114  14.646  11.417 -0.0740 -0.0267 -0.0366
21791W        W38639  16.034  17.160  15.486 -0.0539 -0.1483 -0.0621
21792W        W38640   4.717  12.399   4.131  0.0373  0.0481 -0.1509
21793W        W38641   4.643  11.705  13.707 -0.0472 -0.3187  0.0583
21794W        W38642   6.578   4.331   4.219  0.3613 -0.1120  0.0779
21795W        W38643  10.989   9.330  14.392  0.0718  0.3193  0.2416
21796W        W38644  17.121   9.622  11.419  0.0736 -0.0633 -0.0754
21797W        W38645  14.335  12.117  13.253 -0.1091 -0.0594  0.2592
21798W        W38646   6.078   6.707  14.579  0.1895  0.1530  0.1040
21799W        W38647   0.624   3.155  15.481 -0.0551  0.0740 -0.2799
21800W        W38648  16.397   2.888   1.938 -0.1465 -0.2353  0.1032
21801W        W38649  16.336   0.029   4.462 -0.2477 -0.1699  0.1144
21802W        W38650   9.402   9.734   1.812  0.0505 -0.0164 -0.0971
21803W        W38651  14.887   1.182   1.792  0.0153 -0.2709  0.1681
21804W        W38652   2.218   9.071   3.813 -0.2063  0.4238  0.2183
21805W        W38653  17.617  12.178   2.317  0.1166 -0.1059 -0.0601
21806W        W38654   5.717   9.325   3.399 -0.0360  0.1689  0.3476
21807W        W38655   0.193  13.414   4.541 -0.0795 -0.0881 -0.0141
21808W        W38656   3.348   6.682   0.051 -0.0801 -0.1619  0.1581
21809W        W38657  15.651   3.045  11.396  0.2390  0.1272  0.0166
21810W        W38658   6.609  12.455   2.623 -0.1536 -0.3303 -0.0881
21811W        W38659   4.981   8.403  13.354 -0.4078  0.0635  0.0714
21812W        W38660  11.071  15.898   3.552 -0.0744  0.0225  0.2898
21813W        W38661   6.197   5.245  14.482 -0.1685 -0.1551  0.0518
21814W        W38662   8.115   8.296   4.456 -0.1019 -0.0868 -0.0462
21815W        W38663   6.370   6.821   2.205  0.0118  0.2111  0.0291
21816W        W38664   1.139   8.575  12.159  0.1372 -0.4311 -0.0358
21817W        W38665  13.849   4.760  12.015 -0.0682  0.2489  0.1733
21818W        W38666  16.467  16.004  14.776  0.2101  0.1087  0.1960
21819W        W38667  13.347  10.113   4.833  0.0281  0.3749 -0.2274
21820W        W38668   0.828   1.026   3.909 -0.3444 -0.1054  0.1119
21821W        W38669   8.071   0.729   0.223 -0.2031 -0.2122  0.2669
21822W        W38670  17.325  12.095   4.432 -0.1313  0.0055 -0.0207
21823W        W38671   5.483   5.318   1.344 -0.2820  0.1746  0.0192
21824W        W38672   5.521   4.137  14.151 -0.2288 -0.3245  0.3583
21825W        W38673   2.374   9.438  12.153  0.2748 -0.1040  0.2076
21826W        W38674  13.530  10.356   1.005  0.0387  0.0571 -0.0718
21827W        W38675   9.040  13.121  13.811  0.1199  0.3020  0.1619
21828W        W38676   4.614   0.604  12.346 -0.0086  0.1347  0.6364
21829W        W38677   6.275   1.654  13.081 -0.0229  0.0077 -0.1118
21830W        W38678   6.848  12.002  11.133  0.0632 -0.1584  0.2457
21831W        W38679  16.053  14.103   2.901  0.0006  0.0143  0.1098
21832W        W38680  15.549  14.235   4.037 -0.1566 -0.3481  0.0039
21833W        W38681  15.387   6.537   1.407  0.1515 -0.1967 -0.2028
21834W        W38682  15.575   2.482  11.899  0.0663 -0.3302  0.1697
21835W        W38683  12.550   8.627  15.291 -0.2047 -0.2499 -0.1029
21836W        W38684   9.109  10.923  13.368  0.1353 -0.3631  0.0631
21837W        W38685  16.442  11.346  14.657 -0.1305 -0.1782  0.1465
21838W        W38686  10.779  14.967   2.495 -0.0448  0.0798 -0.1340
21839W        W38687   7.286   9.403  13.816 -0.1362  0.0954  0.0081
21840W        W38688  12.300  15.070  14.325  0.0682 -0.1960 -0.2215
21841W        W38689   1.048  17.703   0.153 -0.5055 -0.2233  0.0630
21842W        W38690   1.705   4.184  12.220  0.3180  0.0120 -0.0259
21843W        W38691   2.793  12.145  12.082  0.0842  0.1520  0.1907
21844W        W38692   6.412   3.146   2.635 -0.1316  0.0296  0.0553
21845W        W38693   9.381   2.618   1.335 -0.0943  0.0782 -0.1303
21846W        W38694   0.768   4.480  15.002  0.3269 -0.0008  0.1752
21847W        W38695   3.676   3.197   3.510  0.0401  0.1655 -0.1606
21848W        W38696   8.016  12.862  14.773  0.1067 -0.0024 -0.0290
21849W        W38697  15.524  14.773   1.833 -0.0163  0.1944 -0.0321
21850W        W38698  15.259  10.540   0.403  0.1855  0.0242  0.0552
21851W        W38699   3.008   7.134  15.298  0.0587  0.1443  0.2179
21852W        W38700   7.646   8.506  15.577 -0.1468  0.0792 -0.0256
21853W        W38701  14.358   3.845   4.524  0.1428  0.1017  0.1168
21854W        W38702  15.323   2.770  12.690 -0.1756 -0.0700  0.0833
21855W        W38703  14.966   1.483   3.631 -0.0958  0.1506 -0.1299
21856W        W38704   6.702   8.311  15.685 -0.1484 -0.0281  0.0426
21857W        W38705   4.167   0.864  16.067  0.2892  0.1783  0.0865
21858W        W38706  15.290  17.066  12.675 -0.0990  0.0154  0.0191
21859W        W38707  10.749  13.670  14.729  0.1839 -0.0004 -0.1895
21860W        W38708   9.306   3.731  12.488  0.5007 -0.2119  0.0229
21861W        W38709   1.423  15.564  13.872 -0.1046 -0.1121 -0.1814
21862W        W38710  10.752  10.586   0.357 -0.0779  0.0638  0.1812
21863W        W38711   6.700   4.518   3.479 -0.2774 -0.1768 -0.0756
21864W        W38712   8.606   6.701  13.405  0.0072 -0.0299 -0.0581
21865W        W38713   2.590   8.394   2.207  0.1318 -0.1664  0.4007
21866W        W38714  16.034  13.609  15.736  0.1660  0.3615  0.1126
21867W        W38715   4.800  11.782  16.246  0.0180 -0.0502 -0.0837
21868W        W38716  14.610   9.286  13.794 -0.1200 -0.1447 -0.0798
21869W        W38717   9.835   3.531   0.306 -0.1702  0.0194 -0.0565
21870W        W38718  16.923   2.632   4.377  0.1199  0.1388  0.3148
21871W        W38719  12.233  16.160   2.390 -0.5282  0.1075  0.3969
21872W        W38720   2.720  11.768   4.611  0.1047 -0.0278 -0.1124
21873W        W38721  13.475   9.459   4.187  0.0221  0.0283 -0.0374
21874W        W38722  10.881   1.176  12.417 -0.4768  0.0635 -0.1880
21875W        W38723  17.544  17.344   1.232  0.0085 -0.0413  0.1615
21876W        W38724  10.207   5.021  13.685  0.0991  0.1285 -0.0889
21877W        W38725   9.967   7.934   1.269  0.0833  0.0117 -0.0133
21878W        W38726   8.761  16.673  11.454  0.1448  0.2065 -0.2072
21879W        W38727   2.820   9.268   2.644 -0.0711 -0.1394 -0.2047
21880W        W38728   3.291  15.092  15.639  0.0651  0.2565 -0.1709
21881W        W38729   8.745   7.575  12.536  0.1847 -0.1017  0.2139
21882W        W38730  15.016   6.118   1.379  0.0394 -0.1181 -0.4296
21883W        W38731   2.837  11.355   3.239 -0.2513 -0.3121 -0.0740
21884W        W38732  13.982   4.054   4.257  0.1308 -0.0005 -0.0782
21885W        W38733   5.076  14.096   6.354 -0.1756 -0.0039 -0.2801
21886W        W38734   5.406   7.189   2.071  0.0721  0.0475  0.1775
21887W        W38735   2.575   1.131  11.561  0.0791 -0.0101 -0.1515
21888W        W38736  17.702  15.367   1.299  0.1128  0.1382 -0.1899
21889W        W38737  10.786  10.355  13.417  0.1212 -0.0356 -0.2906
21890W        W38738  15.597  13.518   2.457  0.3323 -0.4144 -0.3164
21891W        W38739  12.184  13.512  12.033 -0.0639  0.2143 -0.0006
21892W        W38740   3.225  16.834   1.968  0.0898 -0.2117  0.2346
21893W        W38741   8.228   2.957   5.283  0.0733 -0.0526 -0.0751
21894W        W38742  11.168   2.968   1.342 -0.0376 -0.1711 -0.1851
21895W        W38743  16.662   0.340   5.200  0.0860  0.4949 -0.0738
21896W        W38744   4.290  14.210  11.254 -0.2909  0.2508 -0.1715
21897W        W38745   8.892  11.234  12.070  0.2162  0.0754 -0.0785
21898W        W38746   2.944  17.693  15.443  0.1966  0.1582 -0.3267
21899W        W38747   8.447  15.983  10.771 -0.4141  0.2564  0.0685
21900W        W38748  10.820   1.618   0.156  0.1741 -0.1116  0.0240
21901W        W38749  11.763   2.725  14.021 -0.0065  0.1312 -0.1519
21902W        W38750  14.378   3.226   1.680  0.0383  0.1608 -0.2071
21903W        W38751   0.482  15.338  14.533  0.0781  0.0476 -0.1755
21904W        W38752   0.098  17.200  11.594  0.5419 -0.1834  0.0041
21905W        W38753  11.964   8.719   4.969  0.1408  0.2951  0.0161
21906W        W38754  12.478  16.292  12.332 -0.0556 -0.2528 -0.1260
21907W        W38755   0.164   7.611  12.816 -0.0034 -0.2263  0.1419
21908W        W38756  12.955  13.454   4.419  0.2290 -0.2764 -0.0396
21909W        W38757  14.812   3.049  12.754  0.0950 -0.0229  0.1479
21910W        W38758   9.965   9.732   2.915  0.3252 -0.0460 -0.0216
21911W        W38759  11.804   5.354  15.081 -0.1218  0.2762  0.0285
21912W        W38760   5.662   8.080  12.009  0.2092  0.0007 -0.3578
21913W        W38761   7.974  16.911  12.116 -0.2486 -0.1533  0.0380
21914W        W38762  14.740   9.070   4.375  0.3528  0.0488 -0.1483
21915W        W38763   8.213   4.706  14.677  0.3339 -0.1925  0.1634
21916W        W38764  13.014   7.537   4.819  0.1345  0.0115 -0.0511
21917W        W38765  11.501   5.680   4.252  0.2019 -0.0891 -0.2886
21918W        W38766  10.069   6.868  16.576 -0.2467  0.3594  0.0349
21919W        W38767   0.930  14.334  11.963  0.1370 -0.0781 -0.1497
21920W        W38768  11.294  10.384  13.610 -0.0906  0.0801 -0.2247
21921W        W38769   7.978   7.762   1.972  0.0508 -0.1891 -0.0581
21922W        W38770   9.404  15.895  12.000 -0.1576  0.0178  0.3519
21923W        W38771   7.747   6.107  15.820  0.0998 -0.1584 -0.1685
21924W        W38772   0.824  15.471  13.253 -0.2506 -0.0726  0.1303
21925W        W38773   9.157   4.092   2.992  0.0870  0.0253 -0.0593
21926W        W38774  17.289  10.986   2.142  0.0043  0.1903  0.1178
21927W        W38775   9.763  12.382  11.563 -0.3518 -0.0621  0.2037
21928W        W38776  16.634   9.279  14.043  0.0595  0.0402 -0.1879
21929W        W38777   4.971   1.347  13.494  0.0989  0.2043 -0.0489
21930W        W38778   3.222  10.223   0.112  0.2852 -0.0978 -0.0859
21931W        W38779   9.501  10.407   4.127 -0.2731 -0.3839 -0.2796
21932W        W38780  13.711   8.893   2.053  0.1770  0.3636 -0.2329
21933W        W38781   5.242   5.294  11.952  0.4049  0.0727  0.3995
21934W        W38782   2.966  10.927  14.112 -0.0313  0.0387 -0.1233
21935W        W38783   1.431  15.381  13.413  0.0226  0.1604  0.0126
21936W        W38784  15.681  14.526  12.278  0.2727  0.3656  0.1789
21937W        W38785   9.546   7.019  11.156 -0.1482  0.1973  0.0087
21938W        W38786   2.137   9.001  14.200  0.0247  0.1112  0.0168
21939W        W38787   0.631   9.750   3.412 -0.2732 -0.0727  0.1357
21940W        W38788  12.955   8.324   1.766  0.1097 -0.1338 -0.1149
21941W        W38789   7.225   2.116  15.424  0.2738  0.2473 -0.1609
21942W        W38790  12.279   4.277  13.279 -0.1461 -0.2553 -0.1617
21943W        W38791   3.961   4.166   5.803  0.0325 -0.0760 -0.1731
21944W        W38792   6.544   4.031  15.548  0.0323  0.1548 -0.1446
21945W        W38793  14.716  15.331  11.516  0.0004  0.1170  0.2165
21946W        W38794   2.890   8.024   5.010  0.1047 -0.1553  0.0396
21947W        W38795   2.046   0.825  12.728 -0.3943 -0.1206  0.1815
21948W        W38796  13.017  15.388  15.900 -0.0639  0.1651  0.4163
21949W        W38797   3.198   8.688   0.947 -0.1700  0.0463 -0.1072
21950W        W38798   4.276   5.689  12.684  0.0729  0.0134  0.1426
21951W        W38799   4.483   8.093   1.334 -0.2588  0.2873 -0.1736
21952W        W38800   4.432   2.040  14.095 -0.0513  0.0835 -0.2347
21953W        W38801  16.408  13.139  12.953 -0.2584 -0.0955  0.0631
21954W        W38802  15.019  14.393  16.296  0.0295  0.0359 -0.0253
21955W        W38803   4.131   6.942  16.120  0.0409  0.1295 -0.1843
21956W        W38804   7.649   9.881   2.742  0.2186 -0.2333  0.0522
21957W        W38805  12.061   5.162   5.309 -0.0908  0.1007 -0.0461
21958W        W38806   5.025   1.914  14.463 -0.0257 -0.0906  0.0066
21959W        W38807   5.879  14.421  11.558 -0.1090 -0.1543 -0.0259
21960W        W38808  13.132  10.562  10.682 -0.4076 -0.2454  0.0217
21961W        W38809   2.583  14.323  16.028  0.0651 -0.4261  0.2796
21962W        W38810   0.850   8.306  14.359 -0.2206 -0.1621 -0.1010
21963W        W38811   3.953  10.446  14.784 -0.0259 -0.1324  0.2914
21964W        W38812  16.633  16.195  12.157 -0.1665  0.1224  0.1593
21965W        W38813   6.255  10.376  15.545  0.1856 -0.0240  0.0022
21966W        W38814   9.783   4.796   3.869  0.1196 -0.1585  0.1845
21967W        W38815   8.248   7.231   3.164 -0.1186 -0.1812  0.1334
21968W        W38816   2.751  14.813   0.198 -0.1964  0.3179 -0.1884
21969W        W38817   2.516   1.024   0.170 -0.1461 -0.0579 -0.0103
21970W        W38818   6.399  16.295   1.609  0.1448 -0.0829  0.1565
21971W        W38819   6.075   0.691   2.600 -0.2653  0.1211 -0.1079
21972W        W38820   9.673  16.367  13.539 -0.1415 -0.4196 -0.1980
21973W        W38821  14.893   4.977  11.445 -0.0360 -0.3155 -0.1426
21974W        W38822   6.148   1.439  15.836  0.3393 -0.4807  0.2875
21975W        W38823  12.555  14.762  13.741  0.0662 -0.1098 -0.0580
21976W        W38824  17.336  15.692   0.585  0.1308  0.2387  0.0890
21977W        W38825  16.485   8.518   1.533 -0.0786 -0.0706 -0.0796
21978W        W38826   0.409  11.689  15.630 -0.0037  0.0319  0.2238
21979W        W38827  11.883   8.366   2.746  0.0824 -0.1111 -0.0997
21980W        W38828  14.566   4.360  14.565  0.2620 -0.0361  0.0214
21981W        W38829   8.007  15.097   4.685 -0.1478 -0.0523  0.0317
21982W        W38830   0.729  11.497   2.297  0.2601  0.1124  0.0819
21983W        W38831   9.277   1.708   2.977  0.3331 -0.2026  0.0444
21984W        W38832   8.244   3.862  16.042  0.1958 -0.1520 -0.1283
21985W        W38833   8.157  16.615  13.480  0.1820 -0.0271  0.0078
21986W        W38834   9.905  14.928  12.856  0.1779 -0.3439 -0.0693
21987W        W38835   4.678   6.731   1.898 -0.4015 -0.2213 -0.4624
21988W        W38836  12.578   2.163  16.516  0.1617 -0.2705  0.2180
21989W        W38837   4.172   6.795   0.230  0.1807 -0.1809  0.0383
21990W        W38838   4.172   3.772  13.239 -0.0568  0.0721 -0.0185
21991W        W38839  16.932  11.440   4.355  0.0204  0.2309  0.1798
21992W        W38840   8.363  16.440   5.070 -0.0604 -0.0206 -0.1761
21993W        W38841  16.847   0.149  12.065  0.0051  0.0230 -0.0389
21994W        W38842  10.731   6.195   1.211 -0.0832 -0.2938 -0.0381
21995W        W38843   6.555  12.096  15.496  0.1842  0.0276  0.0004
21996W        W38844  14.673   5.084   3.134  0.0159 -0.0756  0.1799
21997W        W38845  12.519  17.125  15.134  0.1176 -0.2033  0.2382
21998W        W38846   1.294  12.454  16.490  0.1201 -0.0887 -0.1389
21999W        W38847   1.883   2.749  16.061 -0.3740 -0.1409  0.0135
22000W        W38848   8.156  16.707  15.930 -0.0672 -0.1859  0.0735
22001W        W38849   5.396  16.816   4.944  0.1149  0.0427 -0.1976
22002W        W38850  11.918   8.934  12.754 -0.0985  0.1018 -0.2076
22003W        W38851   6.431   8.288   2.800  0.1232 -0.3096  0.0281
22004W        W38852  10.265   8.869  14.088 -0.0552  0.3907 -0.2727
22005W        W38853  17.331   0.079  16.307  0.0026 -0.2398  0.2827
22006W        W38854   2.958   4.608  12.214 -0.0583 -0.0208  0.0956
22007W        W38855   7.492   8.166  11.482 -0.0397  0.0004 -0.3049
22008W        W38856   9.537  17.476   5.040 -0.3912 -0.1976 -0.3274
22009W        W38857  15.224  15.302  12.503  0.0490  0.0777  0.0254
22010W        W38858   4.967   0.020  13.088 -0.2094  0.1491  0.3801
22011W        W38859   7.947  14.929  16.199  0.2044  0.1072 -0.2351
22012W        W38860   2.185   3.687   2.920  0.1768  0.0617 -0.0032
22013W        W38861  17.701  10.731  14.421 -0.1232  0.1001  0.1617
22014W        W38862   1.517  12.287  13.210 -0.2396 -0.0326  0.0175
22015W        W38863   2.687   4.432   5.344  0.1325  0.0678  0.0264
22016W        W38864   1.345  13.086   1.780 -0.1190 -0.0855  0.3352
22017W        W38865   9.195   6.296  14.567 -0.1539 -0.0329  0.0116
22018W        W38866   1.585  16.733  13.680  0.0793 -0.0153  0.2019
22019W        W38867  12.112  16.659  16.498  0.1019  0.2439  0.0919
22020W        W38868   1.179  10.990  12.139  0.0791 -0.2078 -0.0468
22021W        W38869   3.728  16.154   2.434  0.1221  0.0009 -0.2991
22022W        W38870  10.476  15.448  12.501 -0.1989 -0.3772  0.1689
22023W        W38871   4.041   1.737   4.512 -0.1805  0.1760 -0.0545
22024W        W38872  15.007  10.131  14.750 -0.0557  0.0868 -0.1872
22025W        W38873   9.864  15.782  11.988 -0.1720  0.2406 -0.1001
22026W        W38874  12.573  16.595  16.159 -0.1113 -0.3349  0.0597
22027W        W38875  14.075  16.291   1.287  0.2432  0.1073 -0.2801
22028W        W38876   2.074   6.776   3.746 -0.0791 -0.1513  0.1502
22029W        W38877  12.102   8.072   0.940  0.0990 -0.3134  0.0610
22030W        W38878  15.018   7.741   3.177 -0.0611 -0.1675  0.2673
22031W        W38879  14.895  16.011  10.944  0.0687  0.0434  0.4043
22032W        W38880   1.696  10.558  11.487  0.3178 -0.3829  0.3525
22033W        W38881  16.532   4.261   1.335 -0.2061 -0.3379  0.0642
22034W        W38882   5.619  13.750   1.286  0.1131 -0.0460 -0.0633
22035W        W38883   1.717  14.992  15.280 -0.0628 -0.2098  0.1206
22036W        W38884   3.722   9.598   1.469  0.0762 -0.3478 -0.0514
22037W        W38885  16.120   8.672  14.520 -0.0363 -0.1487 -0.1537
22038W        W38886  10.087   3.833  14.945  0.4015  0.1003  0.2667
22039W        W38887   5.100  13.225   3.161  0.1695 -0.0205 -0.3117
22040W        W38888  15.426   5.495  16.457 -0.1157  0.0139 -0.0971
22041W        W38889  11.369   6.020  12.038 -0.0415 -0.0100  0.1619
22042W        W38890   0.626  17.581   4.500 -0.1560  0.0836  0.0134
22043W        W38891   5.519   6.125   2.128  0.0580 -0.3557  0.1949
22044W        W38892  12.648   3.894  15.956  0.1567 -0.0509 -0.0483
22045W        W38893   5.625   7.968   2.863  0.1200  0.1375  0.2783
22046W        W38894   5.812   7.200  11.858  0.1715 -0.1535  0.0654
22047W        W38895  10.278  17.325  16.448  0.0674 -0.0089 -0.1769
22048W        W38896   6.916   3.526  11.948 -0.0244  0.0484  0.1668
22049W        W38897   5.447  15.900   3.340 -0.1188  0.1618  0.1383
22050W        W38898   6.999  10.505   1.564 -0.2145 -0.0465 -0.2544
22051W        W38899   2.839  16.874   1.502 -0.0906 -0.0123 -0.0335
22052W        W38900  10.381  14.935   2.766  0.0740  0.2432 -0.1317
22053W        W38901   8.791   4.790   0.871 -0.0754 -0.0003  0.0388
22054W        W38902   6.496   3.668   0.883  0.1698 -0.0060 -0.1247
22055W        W38903   4.974   0.879   0.564 -0.1302 -0.0577 -0.3574
22056W        W38904   0.067  14.937  13.426 -0.0874 -0.1637  0.0719
22057W        W38905  17.576  16.901  15.101 -0.2625 -0.2625 -0.2582
22058W        W38906  16.561  11.574   1.369  0.2449 -0.2372 -0.2051
22059W        W38907   8.641  14.268  15.901 -0.1597 -0.2575 -0.0436
22060W        W38908  16.949   6.915  11.825  0.0428  0.0000  0.2244
22061W        W38909   2.958   2.503   0.123 -0.2650 -0.2151  0.3571
22062W        W38910   2.696  11.269   1.231  0.0468  0.1630  0.4642
22063W        W38911  10.834   1.124  11.454 -0.2371  0.1145  0.1567
22064W        W38912   0.619   9.234   4.321  0.2000  0.0088  0.0155
22065W        W38913   1.763  14.065  15.625  0.2000 -0.0859 -0.0758
22066W        W38914  15.752  13.275  16.000  0.1358  0.0782  0.1545
22067W        W38915  16.424   9.485   1.300  0.0545 -0.1272  0.0090
22068W        W38916   1.688   7.514  13.206 -0.0786 -0.1291  0.1120
22069W        W38917  12.654   6.609   2.650 -0.4037 -0.2069  0.4070
22070W        W38918  13.067  16.532  16.081 -0.2318 -0.0981  0.2092
22071W        W38919   3.688  16.166  11.761  0.1268 -0.3869 -0.0376
22072W        W38920   2.539  11.210   0.042  0.2828  0.0074 -0.1595
22073W        W38921  16.461   8.648   1.044 -0.1104 -0.0752 -0.1610
22074W        W38922   1.141   1.828  16.227  0.1826  0.0301  0.1097
22075W        W38923  12.924   9.538  14.280 -0.0190  0.0314  0.0400
22076W        W38924  13.392  14.522  12.181  0.1680  0.0568  0.0362
22077W        W38925   2.013   6.385   0.422  0.1245 -0.1283  0.0596
22078W        W38926  16.391  10.835  11.041 -0.2158  0.1169 -0.0112
22079W        W38927  13.261   1.928   1.947  0.0324 -0.3110  0.1133
22080W        W38928  15.719   1.936   4.676  0.0907  0.2284 -0.1429
22081W        W38929  13.695  16.944   0.606  0.0498  0.0319  0.2623
22082W        W38930  12.022   7.862  16.022  0.2057  0.4800  0.3409
22083W        W38931  14.177   8.208  16.277 -0.1426 -0.3063  0.2177
22084W        W38932  16.900   2.667   0.602 -0.2905  0.0374 -0.4365
22085W        W38933   3.581   6.026  14.777  0.1518 -0.1925  0.3027
22086W        W38934   0.180  11.328   0.344  0.1049  0.1459 -0.0887
22087W        W38935   8.907  11.539   3.432 -0.0508  0.1304  0.3413
22088W        W38936  15.064   3.130  13.758 -0.1431  0.0122 -0.1089
22089W        W38937   8.804  12.740  15.290  0.3420 -0.0217 -0.0819
22090W        W38938   4.651   0.206   1.273  0.2307 -0.0098  0.1824
22091W        W38939  17.420  10.527   2.044 -0.0569 -0.2051  0.0411
22092W        W38940   4.014   1.398   4.066 -0.1448 -0.1885 -0.3047
22093W        W38941   8.798  17.609   4.747  0.0623 -0.0138 -0.2774
22094W        W38942   3.573  13.743   4.809 -0.0897 -0.0122  0.0685
22095W        W38943   3.736   6.225   0.800 -0.2364  0.2287 -0.1867
22096W        W38944   4.756  15.847   0.277  0.1062 -0.0964 -0.1548
22097W        W38945   2.333  15.007  13.267  0.0648  0.2106  0.3989
22098W        W38946  12.231   5.822   3.584 -0.1425 -0.0971  0.0236
22099W        W38947   2.715   2.568   0.621  0.0888 -0.1395 -0.0050
22100W        W38948   3.893   8.969   5.039  0.0036  0.0172  0.0556
22101W        W38949   6.724  12.310  15.932 -0.1296  0.1652  0.0328
22102W        W38950   3.135   7.076   3.885  0.3763  0.0947  0.0434
22103W        W38951   6.075  15.428   5.324  0.2051 -0.0315  0.4316
22104W        W38952  12.469   6.800  11.958 -0.2952 -0.0280 -0.0583
22105W        W38953  17.466   3.993  11.650  0.1611 -0.1241  0.3637
22106W        W38954  16.308  16.327  16.122  0.2027  0.0331  0.1036
22107W        W38955  16.749   4.287  14.578 -0.1226 -0.0282 -0.2592
22108W        W38956  13.739  14.373   3.521  0.2706 -0.0366  0.0322
22109W        W38957  16.280  17.531  11.679 -0.2625  0.2763  0.0338
22110W        W38958  10.260  13.124   4.615 -0.2433  0.0161 -0.3367
22111W        W38959  16.695   9.447  15.427 -0.2831 -0.3042 -0.2826
22112W        W38960   8.945  13.503   0.213  0.0489  0.0889 -0.1547
22113W        W38961  16.160  13.738  16.210 -0.0493 -0.1435  0.0747
22114W        W38962   2.138  13.678   0.618 -0.0616  0.0242  0.2653
22115W        W38963   4.302   8.209  13.896  0.3503  0.0310 -0.0552
22116W        W38964   5.397   8.714  15.413 -0.0465 -0.0167 -0.2156
22117W        W38965   6.981   1.256  16.347  0.0431 -0.0031 -0.0853
22118W        W38966   1.387   0.638   2.952 -0.2148  0.1685 -0.0573
22119W        W38967   3.498   2.642   2.432 -0.0067 -0.0909 -0.2079
22120W        W38968  16.878   4.133   2.543 -0.1942  0.0637 -0.0577
22121W        W38969  13.375   5.914  16.605  0.1261 -0.0292  0.2428
22122W        W38970   0.300   9.084   4.742  0.1706 -0.2114 -0.2488
22123W        W38971   5.187   3.603   5.117  0.3701  0.1418  0.1302
22124W        W38972   4.198   0.779   1.548  0.0458 -0.2836  0.0118
22125W        W38973   1.051   2.846  16.155  0.3268 -0.4227 -0.0881
22126W        W38974  14.433   0.571   2.169 -0.0109 -0.0433  0.0330
22127W        W38975  17.134  16.133  15.323 -0.1082  0.2879  0.2232
22128W        W38976  13.542   1.885  11.529  0.0530  0.1224 -0.0688
22129W        W38977  11.161  16.830  13.600  0.0138  0.1798 -0.2463
22130W        W38978  10.425   3.872   3.330  0.2870  0.2673  0.0317
22131W        W38979   5.655  14.224  13.273  0.0146 -0.0358 -0.2425
22132W        W38980  11.160  10.845  11.761  0.1257 -0.0542  0.0679
22133W        W38981  15.392  14.733   0.950 -0.0108  0.1616  0.0646
22134W        W38982  12.031   7.438  11.149 -0.1771 -0.2379  0.1498
22135W        W38983   0.530  11.027  11.476  0.1118  0.1307 -0.0502
22136W        W38984  16.505   1.004  14.105 -0.4075  0.0371 -0.2501
22137W        W38985  13.002   9.243  14.701 -0.0151  0.2725  0.1303
22138W        W38986  11.507   3.816  13.199 -0.1888 -0.1977 -0.0338
22139W        W38987   7.576  12.133  12.195 -0.0299  0.0419  0.2429
22140W        W38988  11.735  11.547  14.484 -0.2136 -0.0890 -0.0087
22141W        W38989   4.202   8.447   0.398 -0.0937  0.0162  0.0044
22142W        W38990  14.033  10.810   2.243  0.1060  0.2551 -0.0385
22143W        W38991  16.859   3.839  15.918 -0.1276  0.1863  0.1042
22144W        W38992   7.576   2.514   2.882 -0.1058 -0.0326  0.2023
22145W        W38993  15.735  16.974   3.609 -0.1228 -0.0451  0.0665
22146W        W38994   5.128  16.398  12.798 -0.0635 -0.1149  0.0522
22147W        W38995   6.514   4.913  15.733 -0.1382  0.1811  0.0704
22148W        W38996  16.581  12.440  16.360  0.1257  0.0376 -0.2476
22149W        W38997   3.884  10.506  12.212  0.2105 -0.1507  0.1395
22150W        W38998   7.587  15.726   0.615 -0.0370 -0.0546 -0.0738
22151W        W38999   3.049  17.156  15.324  0.4124  0.0438 -0.0789
22152W        W39000   2.779  15.914   6.010 -0.0882  0.0781  0.0074
22153W        W39001  15.855  17.199  14.252 -0.5377 -0.1017  0.1021
22154W        W39002   9.994   8.472   1.484  0.2449  0.0734  0.0430
22155W        W39003   0.709  12.124   0.468  0.2943  0.0693 -0.0716
22156W        W39004  16.389  12.121  13.140  0.0192  0.2582  0.1769
22157W        W39005  12.979   2.761  13.075 -0.2961 -0.0815 -0.1322
22158W        W39006   9.412  14.759   3.698  0.0809  0.1001  0.0020
22159W        W39007  11.397   1.172  14.701 -0.0764  0.0985  0.0734
22160W        W39008  16.022   9.654  16.041 -0.1149 -0.4688 -0.1011
22161W        W39009   9.358  16.832   3.441  0.2248 -0.3381 -0.1582
22162W        W39010  11.560  13.307   3.932 -0.3585 -0.1769  0.0202
22163W        W39011   4.689   0.624   0.918 -0.2695 -0.0183 -0.0358
22164W        W39012   0.506  16.643   3.312  0.1461  0.1897  0.1442
22165W        W39013   3.025  15.456   5.724  0.1445 -0.4065 -0.1692
22166W        W39014  17.303   8.263   2.305 -0.0540 -0.0051  0.0223
22167W        W39015  13.228  14.280   3.695  0.0034 -0.1280  0.1451
22168W        W39016  12.911   7.094  12.751  0.0178  0.3224  0.1935
22169W        W39017   6.912   1.167  15.271 -0.1193  0.2132 -0.2756
22170W        W39018  17.478   2.493   3.165  0.1578 -0.0541 -0.1056
22171W        W39019   8.461   7.515   3.620 -0.0190 -0.0954 -0.4788
22172W        W39020  17.162   2.063   2.312  0.3484  0.2675  0.0256
22173W        W39021  12.966  13.614   5.384  0.1246 -0.1562  0.0745
22174W        W39022  12.763   3.640   2.759 -0.1375 -0.0697 -0.2654
22175W        W39023   8.782  15.818  16.162  0.0253  0.0892  0.0610
22176W        W39024   2.223   2.638  13.692 -0.1515 -0.0029 -0.0500
22177W        W39025   8.163  11.331  15.469  0.2675  0.3531 -0.1309
22178W        W39026  14.525  15.795   3.597  0.2031 -0.0959 -0.1814
22179W        W39027   6.513  11.229   1.917  0.2444  0.0806  0.0428
22180W        W39028   4.799  16.597  11.822 -0.0227 -0.0391  0.1724
22181W        W39029  12.393  10.980  15.553 -0.2445  0.2817 -0.1452
22182W        W39030  10.433  11.160  12.679  0.0143 -0.3734  0.1084
22183W        W39031   7.309  16.602   1.699 -0.0755 -0.2857  0.0923
22184W        W39032   0.492  16.330  14.862 -0.1628  0.2381 -0.1203
22185W        W39033   8.153   1.553  14.657  0.0314 -0.2794 -0.0529
22186W        W39034   4.935   6.210  16.466 -0.0071  0.1548  0.0128
22187W        W39035  16.862   8.750  11.360  0.2149  0.1820 -0.1325
22188W        W39036   4.721  11.908   3.476 -0.0434 -0.0110  0.1929
22189W        W39037   6.825  17.441   5.489 -0.0114 -0.0721  0.1029
22190W        W39038  16.382   6.750   5.167  0.0655 -0.1090 -0.0739
22191W        W39039   0.451  12.045  14.096 -0.0918  0.1247  0.1034
22192W        W39040   2.476  16.015  12.794 -0.0112  0.1590  0.0575
22193W        W39041   5.690   0.976   3.461  0.4383 -0.1954  0.1075
22194W        W39042   4.734  16.266  16.576  0.4156 -0.4321 -0.0116
22195W        W39043   4.657   8.422   3.941  0.1419  0.1836 -0.1607
22196W        W39044   6.630   0.633   1.346  0.1126  0.2855 -0.1947
22197W        W39045   2.998   5.022  11.853 -0.0590  0.0327 -0.0392
22198W        W39046   7.082  17.077   3.563 -0.3666  0.3733  0.2414
22199W        W39047  17.175  17.440   0.229 -0.4167  0.1255  0.0652
22200W        W39048   6.054   5.888  15.280  0.0215  0.1593  0.0195
22201W        W39049  12.291  11.030  12.874 -0.1340  0.0377  0.2853
22202W        W39050   3.350   0.963   4.720 -0.0453 -0.0493 -0.0647
22203W        W39051   4.739  11.630  13.186 -0.2163 -0.1539 -0.2233
22204W        W39052   2.346   4.890   5.370  0.1562  0.2258  0.0624
22205W        W39053  14.262   9.742   0.852  0.2319 -0.0276  0.2535
22206W        W39054  14.883  10.952  12.487 -0.1796  0.0234  0.1633
22207W        W39055   4.734   7.978  13.817  0.0278  0.3359  0.1916
22208W        W39056   0.434  13.735  14.890 -0.0492 -0.1497 -0.1840
22209W        W39057   9.072  14.766  15.271  0.1679 -0.1477 -0.0354
22210W        W39058  10.318   2.708  14.717  0.1222 -0.0345  0.3003
22211W        W39059   1.209   7.203   4.558 -0.0109  0.1609  0.1537
22212W        W39060   2.411   5.062  15.508 -0.0726 -0.1848  0.2285
22213W        W39061  17.494  11.171   4.959 -0.0940  0.4322 -0.1190
22214W        W39062   9.983  10.410   0.116  0.1567  0.0099  0.1199
22215W        W39063   5.089   3.430  13.873  0.0565 -0.1668  0.1197
22216W        W39064   3.942  11.333  12.732 -0.1345  0.0209  0.0684
22217W        W39065  10.981  17.278   5.682 -0.1094  0.0117 -0.1350
22218W        W39066   9.954  15.393  14.885 -0.0615 -0.1422  0.3915
22219W        W39067  12.833   2.057   5.147  0.0217 -0.0063 -0.0566
22220W        W39068  17.336  11.165  11.709 -0.4532  0.0084 -0.0136
22221W        W39069   8.525   3.389   2.646 -0.0936  0.0208  0.1334
22222W        W39070   9.668   8.378  12.147  0.0100  0.0142  0.0849
22223W        W39071  11.199   8.943  15.626 -0.0919  0.0229 -0.1782
22224W        W39072   5.912  13.521   3.042 -0.0339  0.2280  0.1711
22225W        W39073  11.787   6.504   2.101  0.1224  0.1558  0.0817
22226W        W39074   0.883   2.258  14.353  0.0288 -0.2833  0.0992
22227W        W39075  16.366   0.146  13.016 -0.1233  0.0089  0.0733
22228W        W39076  14.009   6.226   1.449  0.0501 -0.1713 -0.0235
22229W        W39077   6.932  13.827   3.873 -0.1689 -0.2169 -0.0624
22230W        W39078   2.392   3.886  13.149  0.0554 -0.1385 -0.0965
22231W        W39079   9.095  15.896   3.875  0.2485 -0.3045 -0.0514
22232W        W39080   4.504   9.641   5.568 -0.1785 -0.0583  0.2815
22233W        W39081  15.337  13.217  13.897 -0.1425  0.2789  0.0482
22234W        W39082   2.417  17.554  12.434  0.1608  0.0963  0.1130
22235W        W39083   9.747   3.942  12.624  0.2685  0.1234  0.1307
22236W        W39084  10.716   6.845  11.474  0.0757 -0.0652  0.1039
22237W        W39085  10.998   0.019   1.318  0.1154  0.1245  0.1508
22238W        W39086   4.743   5.814   5.595  0.3020  0.2127  0.0380
22239W        W39087   9.911   9.319   5.171  0.0530  0.0882 -0.2637
22240W        W39088  10.658   0.034  15.082  0.0176 -0.1969  0.3043
22241W        W39089   1.431   6.999   0.702  0.2032  0.0077  0.1427
22242W        W39090   3.046   1.035  13.428 -0.0228 -0.0293 -0.1643
22243W        W39091   4.337   7.080  14.162  0.0259 -0.1304  0.1325
22244W        W39092   5.077   6.014  14.054 -0.0918  0.2070  0.0307
22245W        W39093   8.021   2.864   1.174  0.0126  0.1196 -0.1828
22246W        W39094  17.131   4.195  14.900  0.1618  0.2887 -0.2063
22247W        W39095   8.327  15.293   2.559  0.0027 -0.0592  0.4522
22248W        W39096  11.767  11.946   4.969  0.0602 -0.0045  0.2981
22249W        W39097  16.457   3.865   1.610  0.0657 -0.0556  0.0640
22250W        W39098  10.335  11.538  11.801  0.1119 -0.1432  0.2218
22251W        W39099   5.986   7.015   4.819 -0.1529  0.0831  0.0511
22252W        W39100   3.766   3.086   4.911  0.2732 -0.1628  0.2250
22253W        W39101   3.967   9.849   0.564  0.1700 -0.1567  0.1228
22254W        W39102  12.582   5.054  13.005 -0.1463  0.0437  0.0668
22255W        W39103   7.285   9.900   1.480 -0.2138 -0.3325  0.2919
22256W        W39104   3.070   5.692  15.386 -0.1064  0.0979  0.1805
22257W        W39105  12.300  13.150  14.722 -0.1564  0.0438 -0.0739
22258W        W39106   9.844  10.824   4.189 -0.0426 -0.1749  0.1522
22259W        W39107  11.923   9.839   0.536  0.1486  0.0602  0.2076
22260W        W39108   2.759   1.646  14.577 -0.2924  0.1233  0.2498
22261W        W39109   8.598   6.663   1.141 -0.2994  0.2088 -0.1657
22262W        W39110  11.266  10.534   0.149 -0.2810  0.1809  0.0554
22263W        W39111  10.548   0.857  14.120  0.0182 -0.2804 -0.1350
22264W        W39112   2.345   1.268  11.987  0.0283 -0.1121  0.1086
22265W        W39113  10.175  12.516  14.197 -0.2295  0.0320 -0.1846
22266W        W39114  10.735  17.326   4.618  0.1886 -0.0945 -0.2839
22267W        W39115  16.751  16.388  14.674  0.0317  0.4465 -0.1635
22268W        W39116   9.197   5.759  16.116 -0.0468 -0.4468  0.0433
22269W        W39117  17.579   1.285   3.494  0.0226 -0.2009 -0.2091
22270W        W39118  16.278   4.401   4.738 -0.1844  0.0661  0.0523
22271W        W39119   9.448   9.500   0.322  0.3030 -0.1307 -0.0170
22272W        W39120   2.650   0.355  12.230 -0.0566  0.0771 -0.0318
22273W        W39121  10.355   8.153   1.546  0.4130 -0.3073 -0.1989
22274W        W39122   0.164  15.823  13.909  0.1543  0.0679 -0.0337
22275W        W39123   6.600  11.994   4.398  0.0546  0.0194  0.2193
22276W        W39124  11.397  17.696   5.722 -0.0529 -0.1244  0.2366
22277W        W39125   5.789   8.819  15.787 -0.0676  0.1270  0.1075
22278W        W39126  13.208  10.874   1.145 -0.2613  0.1234  0.2814
22279W        W39127  15.430   2.601  15.365  0.2705  0.2820 -0.1527
22280W        W39128  15.835   9.238   0.665  0.1760 -0.0769  0.0674
22281W        W39129   6.705  13.404  15.304  0.0130 -0.3330 -0.0133
22282W        W39130  13.550   7.091   2.951  0.0324  0.0069 -0.1591
22283W        W39131   3.333   8.439  15.100 -0.1431 -0.0213  0.1407
22284W        W39132  15.193   7.024   5.384 -0.2098  0.0574 -0.1680
22285W        W39133   3.558  13.489   3.890 -0.1419 -0.1337 -0.0371
22286W        W39134  17.627  12.110  14.278  0.2920 -0.1740 -0.0261
22287W        W39135   2.753   0.494   5.004  0.1491 -0.1105 -0.0898
22288W        W39136   4.171  15.797   3.872 -0.0246 -0.0055  0.1244
22289W        W39137  13.856  11.870  13.803 -0.1240  0.1322  0.0644
22290W        W39138  12.015   6.923  13.904  0.1844  0.0671  0.1502
22291W        W39139  13.839   9.740  15.707  0.0518  0.1292  0.1802
22292W        W39140   0.347   2.152   5.760 -0.1064  0.4478  0.0052
22293W        W39141  15.635   0.759  11.331  0.2501  0.2045  0.0093
22294W        W39142   0.067   3.597  16.302  0.0020 -0.1688 -0.2979
22295W        W39143   5.338  11.334  13.983  0.1699 -0.0304  0.0392
22296W        W39144   6.177   2.870  16.125  0.0424 -0.2199 -0.1253
22297W        W39145   0.771   4.716  13.663 -0.1001  0.1161 -0.0969
22298W        W39146   1.935  11.685   3.673 -0.1564 -0.1120  0.2770
22299W        W39147   9.737   8.444   5.196  0.0072  0.0586  0.2292
22300W        W39148   4.052  14.530  13.956  0.2119 -0.0412 -0.1371
22301W        W39149   1.835   5.177   4.063 -0.0964 -0.2854  0.0350
22302W        W39150   9.398  13.391   3.132  0.4207  0.0238 -0.0168
22303W        W39151  10.458   2.867   1.994  0.2307  0.1084 -0.0174
22304W        W39152   5.550   5.280   2.958  0.4527 -0.0038 -0.3246
22305W        W39153  15.339  10.155  16.363  0.0111 -0.1775  0.2612
22306W        W39154  15.898   9.072  14.012 -0.1153 -0.2415 -0.1641
22307W        W39155   2.568   8.175   4.019  0.3396 -0.0630 -0.0876
22308W        W39156   3.695  12.980  15.624 -0.0248  0.1765  0.1413
22309W        W39157   6.529  15.701  15.328 -0.0793  0.2289 -0.1396
22310W        W39158   5.820  13.961  12.636 -0.1583 -0.3031 -0.0405
22311W        W39159  10.891  11.597  13.324  0.0944  0.1828  0.0786
22312W        W39160   4.789  11.370  14.493 -0.1667  0.1108 -0.2083
22313W        W39161   6.095   1.922  11.990 -0.2691  0.1456  0.0243
22314W        W39162  10.155  10.743   1.349  0.3169  0.1339  0.2610
22315W        W39163   4.455  11.692  14.159  0.1153  0.0568  0.0066
22316W        W39164   2.950   3.433   2.278  0.1063 -0.0435  0.2522
22317W        W39165  15.538   6.395   2.184 -0.0563  0.1364 -0.0379
22318W        W39166  11.853  16.179   2.031  0.0542  0.0357  0.0670
22319W        W39167  17.045  15.232   0.452  0.0686  0.4071  0.0458
22320W        W39168   7.788  15.000   3.494 -0.1466 -0.0038 -0.0371
22321W        W39169  11.980  15.971  15.531 -0.1466 -0.2059 -0.0418
22322W        W39170  16.720  11.007   3.888  0.1581  0.0396  0.0260
22323W        W39171  17.610   9.632  11.601  0.2182  0.4439 -0.1027
22324W        W39172   5.950   4.138   0.010 -0.2329 -0.4634  0.2113
22325W        W39173   3.390   9.236  16.243 -0.2408 -0.3295  0.3420
22326W        W39174   4.930  11.699  12.705  0.1795 -0.1557  0.1000
22327W        W39175   2.804   8.777  13.694 -0.2496 -0.1821  0.0254
22328W        W39176  10.893  12.940   0.724  0.1460  0.3018  0.0709
22329W        W39177   4.661  13.236   2.033  0.1322  0.2748  0.3151
22330W        W39178   1.942   2.216  14.340 -0.0105 -0.2468 -0.0086
22331W        W39179   7.776   3.917   0.880 -0.1464  0.0556 -0.1083
22332W        W39180  13.246  17.347   3.933 -0.0880 -0.0479  0.2614
22333W        W39181  10.047  10.685  13.895 -0.2155 -0.1946 -0.2052
22334W        W39182  12.824   6.424  13.243 -0.0181  0.2386 -0.0226
22335W        W39183  17.470  15.585  11.392  0.1857  0.2538 -0.1159
22336W        W39184  15.758   1.030  13.834 -0.1111 -0.0199 -0.0866
22337W        W39185   8.121  16.761   1.240  0.0942 -0.2687  0.0470
22338W        W39186  11.708   8.065  15.729 -0.0576 -0.1024 -0.1642
22339W        W39187  14.383  16.763  12.634 -0.0110  0.1573 -0.2988
22340W        W39188   9.143   5.853   2.341  0.1069 -0.1205 -0.1533
22341W        W39189   3.251   4.909   0.992  0.0131 -0.1468 -0.2048
22342W        W39190   1.464  13.714   2.951 -0.2242 -0.1865 -0.2451
22343W        W39191   9.306  10.151  15.942  0.1752  0.2393 -0.1861
22344W        W39192  17.355  16.222  13.894  0.0003  0.1200  0.2078
22345W        W39193  16.026   0.747   4.639  0.1461  0.2425 -0.0489
22346W        W39194   7.670   2.595  14.510  0.0487 -0.1179  0.1335
22347W        W39195   8.854   9.398  13.872 -0.1196 -0.1568  0.0356
22348W        W39196  12.746  15.559   4.860 -0.1664 -0.1568 -0.0744
22349W        W39197   4.817  17.508  15.161 -0.2237 -0.1005  0.1232
22350W        W39198   7.929  10.077  14.858 -0.1909 -0.1067 -0.3105
22351W        W39199  13.367  13.079   0.049 -0.3351  0.0240  0.0009
22352W        W39200   8.259  11.820   2.034  0.0609  0.0114  0.0284
22353W        W39201  12.711  15.917  12.652  0.0434 -0.1166 -0.2268
22354W        W39202  16.888  11.311  16.099  0.1828  0.2955  0.1236
22355W        W39203   1.153   0.079   1.635  0.4056  0.0715 -0.1024
22356W        W39204   9.583   7.112   5.255 -0.3792  0.0755  0.0572
22357W        W39205  15.969   3.059   4.476 -0.2048 -0.1211  0.1576
22358W        W39206   3.809   3.185  13.825 -0.1053 -0.0068  0.1536
22359W        W39207   9.225  11.894   1.845  0.1153  0.0711  0.1202
22360W        W39208   5.893   2.277   3.288  0.4463 -0.1622 -0.1425
22361W        W39209   9.628   0.326   2.297 -0.1338 -0.2908 -0.0805
22362W        W39210   6.660  12.243  12.497  0.1991  0.0741 -0.0878
22363W        W39211   6.903   9.193   3.813  0.0577 -0.0856 -0.0013
22364W        W39212   0.799   3.308   6.054  0.1598  0.0913  0.0458
22365W        W39213  10.636  13.386  16.000 -0.1631 -0.1661 -0.1139
22366W        W39214  10.973  12.325   5.586 -0.3739  0.0170 -0.0066
22367W        W39215   1.383   3.092  15.914  0.2959  0.4054 -0.0631
22368W        W39216   8.378  12.040   3.504  0.0945 -0.3495 -0.0793
22369W        W39217   2.525   4.349   2.060  0.2279 -0.1259 -0.0428
22370W        W39218   1.846   2.465   0.376 -0.3204 -0.2459 -0.0310
22371W        W39219   8.500   5.166  15.413  0.3410 -0.0797  0.3159
22372W        W39220   2.290   0.561   0.380 -0.3961 -0.1211  0.2005
22373W        W39221   8.801  17.255   2.800 -0.2714 -0.1215 -0.1776
22374W        W39222   0.823   9.157  12.859  0.1998 -0.0553  0.0941
22375W        W39223   3.187   8.219  15.921 -0.0106 -0.1273  0.3062
22376W        W39224   0.187   3.812  11.198 -0.1283  0.0919  0.1313
22377W        W39225   2.505  12.600  16.670  0.1350 -0.1900  0.2910
22378W        W39226   0.523   9.814   2.791  0.1665 -0.1067 -0.1819
22379W        W39227   5.343  11.488  13.044  0.2318 -0.0282 -0.1235
22380W        W39228   3.041  15.242  15.005  0.1200 -0.0536  0.0944
22381W        W39229   7.914   4.981   4.846 -0.2604 -0.0157 -0.1387
22382W        W39230   2.492   0.429   6.207 -0.2575 -0.1208 -0.0377
22383W        W39231   8.642   7.097  16.344  0.1823 -0.0579  0.0972
22384W        W39232  16.293  15.455   3.767  0.0417 -0.4245 -0.1704
22385W        W39233  12.268  15.509   2.885  0.0151 -0.1742 -0.1038
22386W        W39234   5.873  10.983  12.234  0.1493  0.0254  0.1655
22387W        W39235  10.843  12.112   2.364  0.1513 -0.1930  0.1866
22388W        W39236  17.475   0.687  12.485  0.2176 -0.0232  0.1401
22389W        W39237  15.070  14.060   2.652 -0.0454  0.4075  0.0904
22390W        W39238   8.619  14.304  11.654 -0.0743  0.3708  0.0888
22391W        W39239  10.281  12.000  12.686 -0.0229  0.2530 -0.1628
22392W        W39240   8.325  10.477  16.359  0.2331 -0.1043  0.1222
22393W        W39241  10.070   1.634  15.936  0.2278  0.1091 -0.0278
22394W        W39242  10.267  14.855   4.172  0.1623  0.0495 -0.0571
22395W        W39243   0.096   1.926  13.664 -0.3505 -0.0855 -0.2754
22396W        W39244  16.585   5.696   2.356  0.0284  0.5932 -0.1303
22397W        W39245   1.834   5.955   0.205 -0.2330  0.1402 -0.2914
22398W        W39246  16.451   8.325   5.151 -0.0212 -0.0655 -0.2395
22399W        W39247  14.870  15.629  15.359 -0.0596  0.2031 -0.1714
22400W        W39248   6.011  13.330   0.030 -0.2109  0.0689  0.1740
22401W        W39249  13.306   5.275   4.831 -0.1111  0.1187 -0.1325
22402W        W39250  11.788  14.102   4.481 -0.0138  0.3113 -0.1946
22403W        W39251   8.856   2.938  15.424  0.1444 -0.0673 -0.0250
22404W        W39252   1.503   6.298   3.316  0.0691  0.0733 -0.1877
22405W        W39253   9.114   7.971   3.812  0.1333 -0.2537  0.2595
22406W        W39254   6.123  11.799   4.469 -0.0882 -0.1600  0.1772
22407W        W39255  13.603  13.547   5.000  0.0322  0.2540  0.0104
22408W        W39256   3.835   2.147   4.769 -0.1502  0.4070 -0.1820
22409W        W39257   7.898  17.156  15.211 -0.2451  0.2894  0.2520
22410W        W39258  11.445   4.379   0.371  0.0265  0.0425  0.2307
22411W        W39259  17.059   8.957   4.354 -0.0726  0.0428  0.1338
22412W        W39260   2.714   3.836   2.312  0.0938  0.0147 -0.1316
22413W        W39261  16.399   0.991   3.513  0.0984  0.0151  0.2698
22414W        W39262  14.203  16.661   3.330  0.0785  0.1015 -0.1387
22415W        W39263   5.293  13.432   4.555  0.0508  0.0541 -0.1475
22416W        W39264   0.217  15.412   1.990 -0.2006 -0.1244 -0.1299
22417W        W39265   1.318  12.702   4.160 -0.0678 -0.0122  0.2684
22418W        W39266   5.552   3.320   4.943  0.2086 -0.1417  0.2092
22419W        W39267   0.954  10.275  14.928  0.0622  0.0405  0.1325
22420W        W39268   4.921   4.484   1.748  0.0894  0.0210  0.1822
22421W        W39269   4.583  15.180  12.265 -0.0131  0.0292 -0.2004
22422W        W39270  17.089   4.259   1.183  0.0553  0.1068 -0.2891
22423W        W39271  10.693   9.964   5.051 -0.0132  0.1606  0.0302
22424W        W39272   9.949  16.269   5.363 -0.2240  0.0006 -0.0663
22425W        W39273   6.435   9.588   4.058  0.0257 -0.0487 -0.0476
22426W        W39274   1.149   2.015  13.117 -0.2539 -0.0778  0.0532
22427W        W39275  11.400   6.539  10.228 -0.1224  0.3225 -0.0729
22428W        W39276   3.341  15.541   1.363  0.2299 -0.1152  0.3191
22429W        W39277  10.749  16.088   0.978 -0.3749  0.0196  0.0515
22430W        W39278  13.965   9.131   4.987 -0.0885 -0.1652 -0.0753
22431W        W39279   6.600  11.369   3.651 -0.2376  0.0524  0.0823
22432W        W39280   6.767   6.589  13.532 -0.3121  0.3894 -0.0065
22433W        W39281  12.660   3.520   1.394 -0.0836 -0.2101  0.0497
22434W        W39282  11.810   2.863  12.685  0.2411 -0.5225  0.0521
22435W        W39283  10.976   4.023  12.536 -0.1303  0.0927  0.0569
22436W        W39284   2.180   0.233  16.189 -0.0446  0.1157  0.0224
22437W        W39285   6.892   2.238   4.255 -0.1349 -0.1305  0.0023
22438W        W39286  12.826   0.402   3.461  0.1667  0.0843 -0.1779
22439W        W39287  16.095   9.867   3.454  0.2954  0.1620 -0.0243
22440W        W39288   3.155  12.225   3.855 -0.1895  0.0457 -0.0942
22441W        W39289   3.299  15.670   2.463  0.0486 -0.1761 -0.2401
22442W        W39290  15.853  16.143  11.686 -0.1427  0.2327  0.1766
22443W        W39291   9.515  13.333  13.562 -0.2060  0.0143  0.1854
22444W        W39292   2.767   3.288   4.541 -0.2048  0.1963 -0.1085
22445W        W39293  10.531  10.279  13.909 -0.1037 -0.0106 -0.1468
22446W        W39294  17.694  16.709  11.800 -0.0093  0.1301 -0.3058
22447W        W39295  11.534   5.580   4.813  0.2242 -0.1075  0.0945
22448W        W39296   4.771  16.138  13.040 -0.0670 -0.0291 -0.0574
22449W        W39297   4.001  16.585  13.297  0.1765  0.0223 -0.2486
22450W        W39298   1.000   0.465   2.417 -0.1416  0.3620 -0.2140
22451W        W39299  10.712  12.401  15.875 -0.0547  0.0111  0.2588
22452W        W39300   2.331  13.547   3.043  0.5041 -0.0525  0.0839
22453W        W39301   2.695   4.347   3.241  0.1018 -0.1277 -0.1086
22454W        W39302   9.110   9.057  12.008 -0.1470 -0.1278 -0.0984
22455W        W39303  17.409   0.736   4.867  0.0368  0.0733 -0.1854
22456W        W39304   6.292   4.085  13.700 -0.0500  0.0761 -0.2742
22457W        W39305   7.610  12.547  15.800  0.1349  0.0718 -0.1405
22458W        W39306  14.815   9.701   5.612  0.0619 -0.0790 -0.4548
22459W        W39307  10.376   4.102   3.801  0.2095  0.0504  0.1927
22460W        W39308   6.478   8.719  12.777 -0.0240  0.0088 -0.0817
22461W        W39309  10.185  12.683   2.471  0.0275 -0.0109 -0.0654
22462W        W39310  13.035   1.655   0.454 -0.2423 -0.2553 -0.2320
22463W        W39311   7.357   3.358  12.059  0.0052 -0.0500 -0.1095
22464W        W39312  12.049   2.387  10.586  0.3214  0.3469 -0.2942
22465W        W39313   3.638   3.030  15.273  0.0860 -0.0931  0.0389
22466W        W39314  12.217   3.287   0.106 -0.0553  0.1989 -0.0520
22467W        W39315   5.394  13.645  13.679 -0.1599 -0.0924 -0.4331
22468W        W39316  16.193  16.523  12.516  0.1008  0.0627 -0.1227
22469W        W39317   7.812  13.465   2.107  0.1266 -0.2766 -0.2538
22470W        W39318   0.293   0.100   0.576 -0.3006  0.0101  0.0343
22471W        W39319  16.919   5.278  13.483 -0.1186 -0.1360 -0.1102
22472W        W39320   7.109  17.184   5.197 -0.0842  0.0908 -0.1797
22473W        W39321  14.080   5.756   4.045 -0.1018  0.2863  0.0596
22474W        W39322   9.770  10.997   1.127  0.0960 -0.1689 -0.0676
22475W        W39323   1.430  13.777  12.157 -0.0694 -0.0850  0.1422
22476W        W39324  12.918  17.485  14.325 -0.1475 -0.0200  0.0670
22477W        W39325  17.085  16.866  11.129  0.2235 -0.1194  0.1320
22478W        W39326   0.466   3.233   3.374  0.3459 -0.0044 -0.0662
22479W        W39327  10.008   7.291   2.347  0.0022 -0.0924 -0.3021
22480W        W39328  14.940  14.205  15.704 -0.0264  0.0681  0.0007
22481W        W39329   9.634   8.583   2.813 -0.0208  0.0816  0.2393
22482W        W39330  16.759  13.366   4.387 -0.2376 -0.1594  0.1401
22483W        W39331  11.331   7.688   2.753  0.1155  0.4325 -0.0163
22484W        W39332   8.069  12.775   0.905 -0.0327 -0.1160 -0.0055
22485W        W39333  15.956  10.583  15.116  0.1112 -0.0031  0.1260
22486W        W39334   6.960  13.865  15.234  0.3248 -0.0142  0.0099
22487W        W39335  15.710   2.577   3.850  0.0416 -0.2506 -0.0111
22488W        W39336   8.694  17.548   1.515 -0.2093 -0.2632  0.3716
22489W        W39337   0.011  11.395  11.882 -0.0187 -0.1026 -0.1625
22490W        W39338   0.808   3.165  14.142 -0.0330 -0.2346 -0.1273
22491W        W39339  14.794  14.181  12.342 -0.0001 -0.0172  0.1227
22492W        W39340   6.402  11.834   1.789 -0.1788 -0.0937  0.3576
22493W        W39341  17.502   0.700   0.398 -0.0590 -0.0543 -0.1184
22494W        W39342   7.115  11.027   3.245 -0.3010 -0.1428 -0.1810
22495W        W39343  13.646   9.095   0.589  0.0255 -0.0078 -0.3633
22496W        W39344  13.097  16.619  14.654 -0.0389 -0.0789  0.2288
22497W        W39345   7.188   2.605  15.490 -0.3319 -0.0220 -0.1778
22498W        W39346   7.443   6.191   6.070  0.0735 -0.0005  0.1430
22499W        W39347   3.499   0.313   2.389  0.0145 -0.0302 -0.1731
22500W        W39348   2.661   9.748  16.079 -0.0667 -0.1483 -0.2613
22501W        W39349  12.456  16.710   3.621 -0.0791  0.0227 -0.0860
22502W        W39350  12.569   0.147  14.221 -0.4136 -0.0947 -0.2015
22503W        W39351   0.890   7.167   1.971 -0.2439 -0.1473 -0.1631
22504W        W39352   8.365   8.540  13.353 -0.1947 -0.1514  0.2048
22505W        W39353  10.783  13.348   4.193  0.1380 -0.2868 -0.1035
22506W        W39354   3.699  10.510  14.039  0.3587 -0.0692 -0.2282
22507W        W39355   8.749   9.771  16.574 -0.0154  0.2060  0.0593
22508W        W39356   1.594   7.606   1.557 -0.2872 -0.0706  0.3093
22509W        W39357  13.009   5.040   2.996 -0.1276  0.1289  0.1917
22510W        W39358  16.527   7.698   1.544 -0.1425 -0.0185 -0.0244
22511W        W39359  15.414  13.786   1.259 -0.1499  0.0937  0.1610
22512W        W39360   2.876  14.330   5.063 -0.1721  0.3601  0.4273
22513W        W39361   8.517  11.088  13.659  0.1858  0.0338 -0.1467
22514W        W39362   1.610   4.071  16.015  0.3276 -0.1373  0.2317
22515W        W39363  15.007   7.255   2.120 -0.0176  0.1534  0.1162
22516W        W39364  14.535  16.484   4.738 -0.4797 -0.4514 -0.2374
22517W        W39365  13.192  16.428   2.924 -0.0212 -0.0786 -0.1270
22518W        W39366  15.786  10.504  13.199 -0.1635 -0.2390  0.1129
22519W        W39367   2.234  11.013  12.526 -0.0659 -0.0464  0.0973
22520W        W39368   0.716  16.821  15.658  0.0202  0.1059  0.0438
22521W        W39369   4.797   1.720   3.680  0.1984  0.0729  0.1899
22522W        W39370  11.150  14.505  16.274  0.1662 -0.0146  0.1789
22523W        W39371   6.609  10.236   0.776  0.1756 -0.1684  0.0327
22524W        W39372  11.500   5.399   5.312 -0.1193 -0.0416 -0.1359
22525W        W39373  16.076  12.726  11.514  0.0282 -0.1024  0.0144
22526W        W39374   7.764   4.902  13.109 -0.0458  0.0164  0.0749
22527W        W39375   6.560  16.087   4.124 -0.1713 -0.1208  0.1194
22528W        W39376  12.479   7.850   1.269 -0.0812 -0.0921  0.0770
22529W        W39377   4.946   8.601  15.656 -0.0567 -0.1737  0.0111
22530W        W39378   3.221  15.170  13.634 -0.1939 -0.0993  0.1515
22531W        W39379  16.684  15.636  14.417 -0.0263 -0.0121 -0.2057
22532W        W39380  15.715   7.040   3.571 -0.0823 -0.1515 -0.2029
22533W        W39381   1.145   1.740   2.294  0.0491 -0.0592  0.0239
22534W        W39382   5.417  15.868   5.865  0.1485  0.1166  0.0104
22535W        W39383  14.465   6.338   1.954 -0.1731 -0.0531 -0.0188
22536W        W39384  17.518   2.067   5.760 -0.3077  0.0993 -0.1215
22537W        W39385  12.744  12.386   2.278  0.2285  0.0179  0.1603
22538W        W39386  17.019  13.913  11.616  0.0723 -0.0798 -0.0776
22539W        W39387  17.563   0.421  14.398 -0.0969 -0.2393  0.0841
22540W        W39388  14.812  15.946   4.013 -0.0401  0.1267  0.0811
22541W        W39389   9.627  10.304  14.011  0.1769  0.1030  0.1656
22542W        W39390   1.427   9.774   5.275 -0.0223 -0.3191 -0.1518
22543W        W39391  13.775  13.723   4.261 -0.3930 -0.0749  0.0269
22544W        W39392   8.284   6.619  13.836 -0.2082 -0.0001  0.0665
22545W        W39393  13.010  11.756  11.607 -0.0954  0.0152 -0.0868
22546W        W39394   2.760  16.844   2.882 -0.2055  0.0556  0.0256
22547W        W39395   3.857   0.324   5.619  0.3521 -0.0616 -0.0810
22548W        W39396   5.835   2.780  11.782 -0.0935 -0.5560  0.0176
22549W        W39397  10.281   7.658   1.642  0.3549 -0.0400 -0.2678
22550W        W39398   7.607  15.591  14.054  0.2685  0.0027 -0.0252
22551W        W39399   9.522  12.754   2.202  0.3599  0.0084 -0.3134
22552W        W39400   7.489  13.106   1.955 -0.1299 -0.2022  0.0768
22553W        W39401  15.669  13.983  12.531  0.0816  0.0580 -0.1466
22554W        W39402   9.122   1.431   2.171  0.1904  0.2300  0.0852
22555W        W39403   9.419  11.730   0.555  0.3030 -0.0319 -0.0233
22556W        W39404  10.056   5.636   0.501  0.2014 -0.1045 -0.1609
22557W        W39405   7.205   8.651  11.570 -0.0598 -0.1538  0.4200
22558W        W39406  16.326   3.643  13.173 -0.2330  0.0105 -0.0494
22559W        W39407  13.015  15.008   2.037 -0.1201 -0.2492  0.2123
22560W        W39408  12.659  10.576  12.248 -0.1735  0.2573 -0.2563
22561W        W39409   8.585   8.017  12.704  0.0466 -0.2827  0.0001
22562W        W39410  11.752  12.678   0.025  0.2762  0.0488  0.4218
22563W        W39411  10.451   9.081   5.236  0.0737 -0.2501 -0.1634
22564W        W39412  14.164  13.937   0.040 -0.0448 -0.1810 -0.2412
22565W        W39413  10.554   7.159  11.893 -0.0260 -0.0871  0.0543
22566W        W39414  15.892  10.876  14.182  0.2959  0.1219  0.1875
22567W        W39415  12.499  10.492  15.802 -0.0345  0.1777  0.2117
22568W        W39416  12.394   4.833   2.175  0.0719  0.2865  0.0164
22569W        W39417   6.149   0.042  15.228  0.2078  0.3390 -0.0582
22570W        W39418   9.530   1.308   1.018 -0.0700  0.2291 -0.0548
22571W        W39419  15.479  16.241  15.743 -0.1021  0.1766 -0.1477
22572W        W39420   4.630   1.947  16.155  0.0732 -0.0068 -0.0396
22573W        W39421   4.325   8.533  11.822 -0.0277  0.0616  0.0064
22574W        W39422   3.844  13.985  14.661 -0.1894  0.1660  0.1275
22575W        W39423   6.228  14.730  16.229  0.0734 -0.0406  0.0355
22576W        W39424   0.412  16.767  11.453 -0.2074  0.2208  0.0026
22577W        W39425  11.920  10.199  12.850  0.1457  0.1982  0.1569
22578W        W39426  11.922   0.789   4.235  0.0378  0.1832 -0.1715
22579W        W39427  15.375  13.837  15.666  0.1106  0.0552  0.1339
22580W        W39428   4.755  17.050   2.991  0.0833  0.2597 -0.1362
22581W        W39429  11.396   8.355   0.248 -0.0093  0.0294 -0.3461
22582W        W39430   6.037   9.668  12.089  0.1501 -0.0311  0.0288
22583W        W39431   1.381   4.827  12.692  0.0102 -0.0290 -0.1644
22584W        W39432  14.854   0.036  13.501 -0.0197 -0.0419 -0.3750
22585W        W39433   1.641   9.301   6.142  0.0135 -0.1796 -0.0029
22586W        W39434   0.297   8.637   2.705 -0.0743  0.0018  0.0882
22587W        W39435   4.104   3.852  14.513 -0.0186  0.1880 -0.0960
22588W        W39436   4.769   6.182  13.708  0.0149 -0.2340  0.2274
22589W        W39437  11.890  15.921   5.077  0.1158 -0.2461  0.0681
22590W        W39438  13.291  17.683   4.910 -0.1349 -0.1406  0.2492
22591W        W39439  11.166  16.073  12.313 -0.0215  0.1425  0.2890
22592W        W39440  16.061   0.870   3.928 -0.1380  0.0471 -0.1468
22593W        W39441  17.307   9.388  13.394  0.1453 -0.4047  0.1526
22594W        W39442  16.399   7.864   2.942  0.1924  0.3333  0.1017
22595W        W39443   9.588   3.373  16.100 -0.4511 -0.1204  0.1967
22596W        W39444   4.857   2.685   2.201  0.1267 -0.2134  0.1643
22597W        W39445  16.751   0.003   3.632 -0.0215 -0.1567  0.2536
22598W        W39446   5.022  11.143   0.307 -0.1168  0.1447  0.0378
22599W        W39447   9.851  14.468  14.055 -0.3022 -0.0909  0.2474
22600W        W39448   8.787  17.141  15.555  0.0702  0.4061 -0.0368
22601W        W39449   1.261   7.320   0.265  0.2194 -0.1139  0.0807
22602W        W39450  10.069  15.487   1.946  0.1397 -0.1033 -0.2003
22603W        W39451   7.569   2.113  10.700  0.1894  0.2697 -0.1814
22604W        W39452  13.960   2.068  12.571 -0.0238 -0.1621  0.1595
22605W        W39453  11.082   5.675   2.279 -0.2284 -0.0433  0.0763
22606W        W39454   4.853   5.876  12.350 -0.1214  0.1357 -0.0526
22607W        W39455   6.403   8.731   5.112 -0.0471  0.0577  0.0723
22608W        W39456  16.941  14.225   1.406  0.0956 -0.0465 -0.0125
22609W        W39457   7.825  16.418   1.482  0.0571  0.2176 -0.0990
22610W        W39458  12.511  13.288   4.089 -0.3904 -0.1874 -0.0362
22611W        W39459   6.028  11.935  13.719  0.3882  0.2113  0.0294
22612W        W39460   2.849   5.374  13.830  0.2498 -0.0390  0.1974
22613W        W39461   4.210   8.030   3.513 -0.2118 -0.2641 -0.1626
22614W        W39462   9.100   5.128  13.254  0.2962  0.0581 -0.0740
22615W        W39463  11.275   4.691  16.416 -0.2148  0.0170 -0.4032
22616W        W39464   4.823   4.759  11.865 -0.0681 -0.0679 -0.0647
22617W        W39465   1.283  15.291   4.820 -0.0248  0.0132 -0.1316
22618W        W39466   3.271   3.401   1.537 -0.1212 -0.1015 -0.1324
22619W        W39467  16.286   6.059   2.097  0.1615  0.0441  0.0122
22620W        W39468   4.606  15.185  13.310  0.1644 -0.1428  0.2575
22621W        W39469   2.714   6.759  15.468 -0.0515  0.0775  0.3293
22622W        W39470   4.947  10.886  11.953  0.0120 -0.0820  0.0180
22623W        W39471  14.031   2.497   4.742 -0.0096  0.0118 -0.0354
22624W        W39472   0.316  15.721   4.486 -0.1770 -0.2091  0.1622
22625W        W39473   9.170  15.411  11.317 -0.4328 -0.1072 -0.1039
22626W        W39474  16.739  17.659  14.068  0.1754 -0.0873  0.0567
22627W        W39475   3.888  15.614   5.413  0.1803  0.1073  0.1031
22628W        W39476   7.388   0.585  12.216  0.0797  0.0253  0.0472
22629W        W39477   1.515   0.036  15.100  0.0935  0.1497  0.1481
22630W        W39478   0.881   9.716  13.515 -0.2439  0.1411  0.0052
22631W        W39479   6.057   5.744  13.074  0.1375  0.0403  0.1419
22632W        W39480   3.448  11.754  14.389 -0.1546  0.2157 -0.2003
22633W        W39481   8.673   0.592   2.677 -0.0756 -0.1386  0.1480
22634W        W39482  10.791   3.062   2.315 -0.0438 -0.3127 -0.0373
22635W        W39483   2.645   1.977  14.924 -0.1161 -0.0090  0.1573
22636W        W39484  11.372  10.470   2.202  0.0801 -0.1716 -0.0612
22637W        W39485   1.264   4.083  11.891 -0.1290  0.0706  0.0406
22638W        W39486   7.390  10.876   6.144  0.0300  0.2243 -0.0555
22639W        W39487  11.241   9.218   2.001  0.0027 -0.0805 -0.1866
22640W        W39488  15.051   4.071  13.019  0.0103  0.0660 -0.1353
22641W        W39489  14.139  12.705  13.228  0.2110 -0.0682 -0.1011
22642W        W39490   4.921  15.314   3.634 -0.3116 -0.0449  0.1357
22643W        W39491   0.162   6.240   4.877 -0.0163  0.0336 -0.0696
22644W        W39492   1.837   3.916  13.035  0.2298  0.0591 -0.2572
22645W        W39493   1.022  13.893   2.284  0.0717 -0.1771 -0.0222
22646W        W39494  11.477   2.482  12.061  0.1967  0.0785 -0.0197
22647W        W39495  13.654   6.898  15.689 -0.1539 -0.0226 -0.1449
22648W        W39496  13.152   1.445  10.962  0.1775 -0.1855 -0.2845
22649W        W39497   5.704   9.325   0.432 -0.0084  0.0118 -0.0226
22650W        W39498  14.281   6.234   0.598  0.0401 -0.2036 -0.0332
22651W        W39499   7.812   9.215  16.185  0.2748  0.2166 -0.0073
22652W        W39500   1.476  15.749  12.963 -0.3526  0.0486 -0.2868
22653W        W39501   3.048   6.834  12.944 -0.0300 -0.0808  0.3482
22654W        W39502   8.627   1.181  15.141 -0.1715  0.2308 -0.0860
22655W        W39503  10.464   4.647  14.739 -0.1391 -0.2091  0.2167
22656W        W39504   9.029  15.633   3.430 -0.0283  0.0968 -0.1410
22657W        W39505   9.873   8.204   3.722 -0.1254 -0.3172 -0.1884
22658W        W39506  12.009  11.495   3.606 -0.0801 -0.0627  0.0321
22659W        W39507  15.048  12.571   4.183  0.1584 -0.0290  0.1702
22660W        W39508  14.381   3.358  10.653 -0.0059 -0.5041 -0.1726
22661W        W39509   6.404   7.551  14.645 -0.1485  0.0115  0.1348
22662W        W39510   8.927   2.600   0.716  0.1480  0.1725 -0.1566
22663W        W39511   9.862  12.048   2.888 -0.0693 -0.0647 -0.2098
22664W        W39512   0.545   6.587  13.924 -0.0398  0.3156 -0.1445
22665W        W39513  13.947   2.243  15.910  0.1315  0.1268  0.1540
22666W        W39514   2.890  15.387  13.906 -0.3312  0.2531  0.3787
22667W        W39515   9.776  14.686  14.643 -0.1505 -0.2981  0.0947
22668W        W39516  14.847  16.927  12.523 -0.0946  0.1881  0.0490
22669W        W39517   6.829   3.161  12.955  0.0214  0.2022  0.1337
22670W        W39518   2.361   4.783   2.491 -0.2696  0.0928 -0.0429
22671W        W39519   2.743  10.736   1.346 -0.0171 -0.0043  0.1191
22672W        W39520  14.593  10.955  13.524  0.1901  0.1017  0.1041
22673W        W39521   6.977  10.621   5.352  0.1097 -0.0241 -0.2267
22674W        W39522  16.894  10.203   2.659 -0.0493  0.1707 -0.0958
22675W        W39523  16.333   0.720   1.413  0.0988  0.0974 -0.1001
22676W        W39524  16.787  10.392  11.064  0.1882 -0.0017  0.4018
22677W        W39525  12.896   7.611   1.087 -0.0559  0.0391  0.1311
22678W        W39526   5.277   2.327   0.678  0.1920  0.0602  0.0571
22679W        W39527   4.703  14.031   1.382  0.0463  0.0083  0.0556
22680W        W39528  15.730  11.587  12.330 -0.0820  0.0202 -0.2074
22681W        W39529   5.926   9.644  13.809 -0.0377 -0.1974 -0.0493
22682W        W39530   1.716   1.344  12.774 -0.2261 -0.1640 -0.1990
22683W        W39531  17.485  12.662  14.553  0.3693  0.0168 -0.2219
22684W        W39532   6.659  13.497  14.334  0.0781 -0.0621 -0.0439
22685W        W39533  11.311  16.567   0.599 -0.1117 -0.0752  0.3551
22686W        W39534   1.058  15.981  12.739 -0.1843  0.1145  0.1882
22687W        W39535  14.387   3.621  15.688  0.3290 -0.2787  0.2226
22688W        W39536  12.950  15.798   3.592 -0.2347 -0.1816 -0.2241
22689W        W39537  15.834  13.107  12.744  0.0430 -0.3364  0.0742
22690W        W39538   6.924   9.270  12.206 -0.0438 -0.0868 -0.0620
22691W        W39539   5.684  10.281   3.625  0.5437  0.1611  0.1870
22692W        W39540  12.095   1.940   0.614  0.1210  0.0196  0.1307
22693W        W39541   4.648   9.274  13.193 -0.0808 -0.1545 -0.4256
22694W        W39542   8.108  15.001   0.830  0.2128 -0.0707  0.1695
22695W        W39543  17.371  15.958   3.201 -0.3537  0.1514 -0.0089
22696W        W39544  13.211   9.845   4.360 -0.0759  0.1965 -0.2950
22697W        W39545   6.319   9.765  14.132  0.2078 -0.0337 -0.2124
22698W        W39546   8.400   9.536  15.944 -0.1659  0.1525 -0.0798
22699W        W39547  15.759   5.253   2.872 -0.2455  0.0168  0.1674
22700W        W39548  17.703   9.234  15.333  0.0184 -0.2357 -0.2664
22701W        W39549   4.090  14.813   3.628  0.0697  0.4696 -0.0548
22702W        W39550   3.794   6.787   1.518 -0.1372  0.1824  0.1076
22703W        W39551   9.017   9.727  16.108  0.0476  0.1962 -0.0929
22704W        W39552   9.426   5.206  12.091  0.1491 -0.0285 -0.0518
22705W        W39553  15.491   1.904   3.252  0.1674 -0.0280 -0.0370
22706W        W39554   8.295   6.213   4.004 -0.0797 -0.0501 -0.2183
22707W        W39555   0.844   4.209  13.681  0.1960  0.0482 -0.2672
22708W        W39556  10.852   2.136   4.744 -0.0539  0.1837 -0.1081
22709W        W39557   7.006   0.891   3.059  0.0520  0.0442 -0.0019
22710W        W39558   3.440   2.375   5.041  0.3337 -0.0269  0.0117
22711W        W39559  11.490  15.298  14.694  0.0086 -0.3535 -0.0996
22712W        W39560   7.710   0.601  16.068  0.0545  0.0830 -0.1875
22713W        W39561   3.808   5.774  13.929 -0.3826  0.1985 -0.0137
22714W        W39562  15.057  12.389   2.338 -0.1669  0.1134  0.0900
22715W        W39563  11.036  11.199  15.651 -0.0809 -0.0635 -0.0318
22716W        W39564   7.313   1.615  13.947  0.0558  0.0007  0.0540
22717W        W39565  11.099  14.316  12.860  0.0955  0.1958 -0.1265
22718W        W39566   7.146  14.604   3.958 -0.0557 -0.3447  0.1257
22719W        W39567   2.991   3.570   4.016  0.0143  0.1462 -0.3936
22720W        W39568   7.473  17.624   0.676  0.4541 -0.3382  0.1136
22721W        W39569   5.097  16.935  11.566 -0.2914  0.0383  0.1993
22722W        W39570  12.108  16.565  13.770  0.1250 -0.3052 -0.0063
22723W        W39571  12.946   4.680  12.648  0.1411 -0.3404  0.3780
22724W        W39572   9.656   3.899   4.834 -0.1254  0.1912 -0.0768
22725W        W39573   0.315   3.158  14.507 -0.0984 -0.1116  0.1709
22726W        W39574   1.963   3.939  15.650 -0.0773 -0.1942 -0.1341
22727W        W39575  14.004  12.503   5.010  0.0839  0.1568  0.0854
22728W        W39576  13.707  16.523   3.467  0.2298  0.1262 -0.1330
22729W        W39577  13.687  14.610   5.184 -0.1988  0.1619  0.0004
22730W        W39578   0.965   0.821   4.346 -0.0848  0.0819 -0.3102
22731W        W39579   0.811  16.412   0.596  0.1077  0.1620 -0.1300
22732W        W39580   9.218   9.707  12.527  0.1318 -0.2880  0.0294
22733W        W39581  12.977   4.540   2.841  0.0896 -0.2806 -0.1612
22734W        W39582  11.506   0.528  14.821 -0.1293  0.1802 -0.1035
22735W        W39583  12.681  17.475  16.038  0.1006  0.0312 -0.2277
22736W        W39584   5.556  11.906  14.945  0.3541 -0.2228 -0.1013
22737W        W39585   7.428  15.984  12.594  0.0093 -0.1545 -0.0739
22738W        W39586  12.555   4.883   6.001  0.2915 -0.2015  0.1785
22739W        W39587  13.525  15.134  13.883  0.0366 -0.2313  0.0856
22740W        W39588  16.598  12.093   3.823  0.0464 -0.1779  0.2201
22741W        W39589  16.130   7.052  13.754  0.4471  0.0488 -0.4448
22742W        W39590   9.334   6.722  11.807  0.0353  0.0971  0.1025
22743W        W39591   3.499   6.134  12.357 -0.0055  0.0276  0.2019
22744W        W39592   5.261   5.032   2.583 -0.1449  0.0623  0.0611
22745W        W39593   7.095   1.518   4.923  0.0946 -0.1040  0.2123
22746W        W39594   0.559  11.328  15.951 -0.0719  0.1162 -0.1191
22747W        W39595  11.198  12.328  15.768 -0.2099  0.0007 -0.1358
22748W        W39596   4.454   2.978  15.891 -0.0826  0.1397 -0.2673
22749W        W39597  11.907  12.839   4.361 -0.1795  0.0355 -0.2579
22750W        W39598  14.620  10.552   0.431  0.2252 -0.1866  0.0313
22751W        W39599  15.355   3.024  11.857  0.0955 -0.0685 -0.1415
22752W        W39600   3.782   1.474  13.540 -0.1691 -0.0765  0.1295
22753W        W39601   5.841   5.538  15.672 -0.2429  0.3276 -0.0521
22754W        W39602   4.221  13.717  13.930  0.4271 -0.1921 -0.1399
22755W        W39603  15.909   9.686   5.208  0.0365  0.1834  0.0292
22756W        W39604   2.170  13.260  11.507  0.0524 -0.0001  0.3807
22757W        W39605   7.042  16.037   3.900  0.0952 -0.0802  0.1967
22758W        W39606  13.355  15.599   1.488 -0.1132 -0.0186  0.1730
22759W        W39607   2.499   9.878  13.047 -0.0880  0.0977 -0.2133
22760W        W39608   9.881  14.571  12.007 -0.1526  0.1722 -0.1611
22761W        W39609  15.018   7.212  14.164 -0.3635  0.0511  0.0967
22762W        W39610  14.541  13.767   4.842 -0.1847  0.0666 -0.0730
22763W        W39611   0.947   2.436   0.929  0.0473 -0.0209  0.1105
22764W        W39612  13.526   8.615  16.640 -0.0504  0.1003 -0.0472
22765W        W39613  14.073   6.507  13.292  0.0243  0.1762  0.0056
22766W        W39614  13.980  13.803  14.855  0.2416 -0.2784 -0.3590
22767W        W39615   3.053   8.613   0.506  0.0049  0.0731  0.3321
22768W        W39616   7.913   1.697  12.071 -0.1897 -0.0812  0.0289
22769W        W39617  16.706   2.565  11.226  0.0743  0.1272 -0.2128
22770W        W39618  15.354  16.596  16.102  0.2088  0.0839 -0.0860
22771W        W39619   3.037   3.519  13.446 -0.2002  0.0514 -0.3848
22772W        W39620   2.282  15.939  14.968  0.3265 -0.2493  0.1408
22773W        W39621   9.682   7.048  14.048  0.0083 -0.1167  0.1128
22774W        W39622  15.874  12.402   4.896  0.2370  0.1703 -0.0082
22775W        W39623   3.486   8.476   1.306  0.0163 -0.1413  0.4759
22776W        W39624   1.140   3.337  13.296  0.1364 -0.0257  0.0035
22777W        W39625   4.842  13.075  14.226  0.1774  0.4559 -0.0412
22778W        W39626   1.403   1.056  13.994 -0.3366  0.0190 -0.0824
22779W        W39627  12.283  13.934   3.818  0.0419  0.0395 -0.0731
22780W        W39628   4.319   3.203  11.661  0.0272 -0.1082 -0.0372
22781W        W39629   6.566   1.315   6.229 -0.2197  0.2246  0.3688
22782W        W39630  10.197  14.327   6.286 -0.0855 -0.0158 -0.1007
22783W        W39631   3.836   0.461  13.614 -0.0660  0.3574 -0.0243
22784W        W39632   8.550  11.424   2.189 -0.3377 -0.1880 -0.1017
22785W        W39633   7.528   9.051  15.579 -0.1207 -0.2297 -0.0375
22786W        W39634   7.299   6.548  15.331  0.0360 -0.2603 -0.2001
22787W        W39635   8.381  12.957  11.932  0.0098  0.1947 -0.0093
22788W        W39636  14.618  15.559  13.059  0.3036 -0.0074 -0.2998
22789W        W39637  16.493   5.332  10.745  0.0061  0.3866 -0.0207
22790W        W39638  13.956   6.411   2.332 -0.1097 -0.1619 -0.1710
22791W        W39639  10.241   8.413   0.595 -0.0188 -0.1372  0.2009
22792W        W39640   9.314   3.236   4.947  0.0221 -0.2585  0.0062
22793W        W39641   3.876  13.337   1.770  0.1543 -0.0646  0.0626
22794W        W39642  12.012  14.386  16.577  0.1045  0.3127 -0.0672
22795W        W39643   8.429  13.731   3.593 -0.1496 -0.0987 -0.2727
22796W        W39644   8.353   7.323  12.157  0.2724 -0.1700 -0.0097
22797W        W39645   9.424   7.421   5.973 -0.2324 -0.0299  0.3241
22798W        W39646   4.548  11.394   1.281 -0.0639  0.1222  0.0247
22799W        W39647   2.057  15.736  16.561 -0.0621  0.0327 -0.1987
22800W        W39648   4.191  16.894   0.703 -0.0902 -0.1277 -0.1993
22801W        W39649  11.452  12.912  13.867  0.2142  0.2191 -0.2243
22802W        W39650   9.683   8.002   3.069 -0.1199  0.0162 -0.2171
22803W        W39651   2.651  16.560   0.427 -0.0570 -0.3026 -0.4406
22804W        W39652  17.690   3.145  13.540  0.0887  0.0817  0.0807
22805W        W39653  12.735   6.925  15.063  0.1252 -0.1665  0.2935
22806W        W39654   7.539   0.157  11.352  0.0503  0.0543 -0.3182
22807W        W39655   7.613  12.862   3.150  0.2464  0.1232  0.0487
22808W        W39656  14.283  16.952  16.568 -0.2857 -0.0356 -0.0674
22809W        W39657   7.743  15.560   3.604  0.0405 -0.2282 -0.0031
22810W        W39658   3.107  14.681   0.547 -0.1689  0.2233 -0.2154
22811W        W39659  12.090  13.525   0.528 -0.0274 -0.1292 -0.0378
22812W        W39660  13.870   9.017  16.340 -0.0936  0.4004  0.1594
22813W        W39661  10.852  11.620   0.206  0.2134 -0.0580  0.1788
22814W        W39662   3.298  15.990  15.305  0.0608 -0.0219 -0.1390
22815W        W39663   8.059   3.694  11.560  0.1914  0.1513  0.4639
22816W        W39664   5.452  12.837  12.813 -0.2197  0.0869  0.2583
22817W        W39665   7.502   6.453  11.928  0.2375 -0.1544  0.2301
22818W        W39666   0.723  10.233   2.982  0.2684 -0.2945 -0.0543
22819W        W39667   1.820  10.604  14.460  0.0205  0.2857 -0.1270
22820W        W39668  10.117   7.432  12.420  0.3016  0.0590 -0.0618
22821W        W39669   3.567   1.627  13.038  0.2636  0.1739  0.0867
22822W        W39670   3.991   8.923   0.802  0.0888  0.3261  0.2571
22823W        W39671   3.470  15.888   4.196 -0.2495  0.2189  0.1380
22824W        W39672  13.313  10.386   2.045  0.0907 -0.1609 -0.2272
22825W        W39673   4.164   7.658   1.047 -0.0709  0.0010  0.0337
22826W        W39674   7.109  17.625   4.866  0.0502  0.1690 -0.0684
22827W        W39675  11.026   3.477   2.138  0.0567 -0.0229 -0.2063
22828W        W39676  11.896   8.880  13.517  0.0850  0.0532  0.1016
22829W        W39677   1.198   7.950   1.630 -0.3237  0.2494  0.1617
22830W        W39678   0.203   1.217  12.639  0.0268  0.2495  0.1744
22831W        W39679   7.280  10.459  11.811  0.0539  0.0128 -0.1231
22832W        W39680   9.255   2.752  13.582 -0.0196  0.0261 -0.0360
22833W        W39681   1.666  14.491  16.583  0.0621 -0.0485  0.0266
22834W        W39682  14.113  15.860  15.835  0.1419 -0.3177  0.1913
22835W        W39683  16.173  14.443  14.618  0.1938  0.3241 -0.1824
22836W        W39684  15.812   6.010   2.237 -0.1216 -0.3861  0.1258
22837W        W39685  13.385  12.062  11.687 -0.0612  0.2124  0.1568
22838W        W39686   5.604   7.795   1.871  0.0474  0.0594 -0.1563
22839W        W39687  10.760   0.388  15.455  0.0081  0.1240  0.4736
22840W        W39688  17.296  15.077  14.333  0.0529 -0.2381  0.5020
22841W        W39689  11.220   1.131   3.540  0.1096  0.0094  0.0938
22842W        W39690  17.246   3.239  15.086  0.0092  0.0803 -0.2291
22843W        W39691  13.467   9.603   0.853 -0.1662 -0.1647  0.1869
22844W        W39692   4.495   8.946   5.019 -0.0783 -0.1356  0.0416
22845W        W39693   2.213  16.418  13.058 -0.0822 -0.0643  0.0017
22846W        W39694   5.872   3.566  14.357 -0.0517  0.3246  0.1562
22847W        W39695   3.591   2.157   3.528 -0.0711  0.0690 -0.2678
22848W        W39696   2.373  17.043   1.841 -0.2476 -0.1736 -0.2417
22849W        W39697  16.420  11.606   1.848 -0.2108  0.2211 -0.0693
22850W        W39698   4.653   9.015  12.726 -0.0768 -0.3615  0.1030
22851W        W39699  17.378   6.810  12.527  0.1152  0.0971 -0.1262
22852W        W39700   3.067   2.659   4.191 -0.2651  0.5076 -0.0466
22853W        W39701   5.550   8.966   1.730 -0.0196 -0.0339 -0.0185
22854W        W39702  11.087  15.457  16.376 -0.0425  0.2057 -0.1847
22855W        W39703   5.418  12.815   1.156  0.0182  0.0065 -0.1737
22856W        W39704   1.106  16.207  12.274 -0.0159 -0.0457 -0.0094
22857W        W39705   0.380   6.119  14.300  0.1795 -0.0834  0.1632
22858W        W39706   9.105   8.096   3.209  0.2492 -0.1070 -0.2549
22859W        W39707  17.232   6.454  13.595 -0.1511 -0.0236 -0.0635
22860W        W39708   0.045   0.104   2.113 -0.0096  0.0514  0.1845
22861W        W39709   9.427   7.176  13.137  0.0630 -0.3040  0.0776
22862W        W39710   6.728  10.823   2.190 -0.0991  0.0180  0.2211
22863W        W39711   5.012   2.768  12.335  0.0709  0.0627  0.0095
22864W        W39712  13.765   6.673  16.117 -0.2109 -0.2810  0.1484
22865W        W39713  13.225   5.167  14.578  0.1560 -0.1035 -0.2920
22866W        W39714  15.069  17.688  14.638 -0.3806 -0.0802 -0.1313
22867W        W39715   0.011  16.396   1.162  0.0341 -0.0082 -0.2034
22868W        W39716   4.056  13.868   5.189 -0.3599  0.0581  0.0325
22869W        W39717  13.373   0.573   3.790 -0.0706  0.2075 -0.0010
22870W        W39718   8.253  14.213   6.277 -0.1816 -0.1362 -0.2764
22871W        W39719   3.260   1.328   5.050  0.1181 -0.0148 -0.0732
22872W        W39720   9.207  12.129   3.911 -0.1104  0.1001 -0.1532
22873W        W39721   6.619  16.123   2.046  0.0935 -0.0238 -0.2219
22874W        W39722  15.166   4.877   1.075  0.0684 -0.1107 -0.0993
22875W        W39723  14.493  10.601   2.835 -0.1751 -0.0382 -0.0958
22876W        W39724   3.762   8.387   5.092 -0.1973 -0.2247 -0.0375
22877W        W39725   1.001   6.214  13.160  0.0309 -0.0774 -0.0629
22878W        W39726   4.514   6.495   1.071 -0.1512  0.1567  0.0469
22879W        W39727  13.785  16.255  11.861  0.0603  0.0486 -0.0627
22880W        W39728   9.834  10.416  12.355  0.1026  0.0533 -0.1462
22881W        W39729  12.406   5.398   0.255  0.0236 -0.2970  0.2428
22882W        W39730   3.228   1.981   3.978 -0.0926 -0.1876  0.0640
22883W        W39731  11.856  17.068   0.127 -0.2313 -0.1931  0.0092
22884W        W39732   0.732   4.377  15.797  0.0893  0.4312 -0.1114
22885W        W39733   7.250   8.104  13.446 -0.1039 -0.0473 -0.0472
22886W        W39734   0.959   5.491  15.741  0.0550  0.0800 -0.0539
22887W        W39735  15.338  16.402   0.284 -0.1353  0.0708 -0.1598
22888W        W39736  14.470   0.663  15.589 -0.1968 -0.1573  0.1459
22889W        W39737  10.053   1.811  14.948  0.2035 -0.0444  0.1902
22890W        W39738  12.693  13.026   0.991 -0.2784  0.1200 -0.2193
22891W        W39739   4.314   5.826   3.895 -0.0661  0.0777  0.1420
22892W        W39740   6.928  14.255  12.769  0.1427 -0.1481 -0.1859
22893W        W39741   5.473   0.097   5.547  0.2767 -0.1834 -0.0089
22894W        W39742  10.538   6.985   2.416 -0.0197 -0.0856 -0.1492
22895W        W39743   6.992   1.078  14.748  0.2632 -0.3115 -0.0285
22896W        W39744  17.584   4.450  11.604  0.2944  0.0943  0.1353
22897W        W39745   0.167  12.041   1.153 -0.1464 -0.0035 -0.0418
22898W        W39746   3.896   5.919   2.901  0.3657  0.0491  0.3752
22899W        W39747  14.514  12.320   0.320  0.1400 -0.0639  0.0359
22900W        W39748  11.896  10.794  10.948  0.0557 -0.1529 -0.2790
22901W        W39749  14.574  17.351   1.763 -0.0949  0.0891  0.3933
22902W        W39750  14.148   8.660  12.657  0.4323 -0.1244 -0.1214
22903W        W39751   5.582  16.614  15.725  0.0398  0.2737 -0.2305
22904W        W39752   3.940   7.074  11.310 -0.1553  0.2657 -0.0464
22905W        W39753  14.529   9.989  14.392  0.0767 -0.1170  0.3936
22906W        W39754  16.851   1.006  13.180  0.2990  0.2116 -0.0086
22907W        W39755  13.568   2.133   4.509  0.1239 -0.1145 -0.2354
22908W        W39756  17.352   5.257  11.862 -0.0495  0.1712  0.1186
22909W        W39757   9.390  12.140  14.251 -0.1477  0.3497  0.2562
22910W        W39758   4.660   1.057  15.884 -0.1837  0.0703 -0.0662
22911W        W39759   3.991  12.874   1.681 -0.0413 -0.1973 -0.1175
22912W        W39760   2.820   2.196   4.184 -0.2851  0.1831 -0.0093
22913W        W39761   3.396  13.861  11.441 -0.2731  0.0662 -0.3297
22914W        W39762  11.912   2.456  12.329  0.1687  0.0281 -0.1677
22915W        W39763   2.376  11.708  16.468  0.2471 -0.1001 -0.2075
22916W        W39764  13.949  17.396  12.741 -0.1651  0.2045  0.0025
22917W        W39765   9.563   4.887  14.341 -0.0494  0.0760  0.2422
22918W        W39766   4.404   6.088  16.236  0.0567 -0.1969  0.1271
22919W        W39767  11.463   3.045  11.084  0.0918  0.1385  0.2397
22920W        W39768   3.626  16.344  14.793  0.0097  0.0857  0.0378
22921W        W39769   8.619   8.328  13.693 -0.0229  0.1428  0.2211
22922W        W39770   8.332  14.885   5.666 -0.1367 -0.0336  0.0556
22923W        W39771   6.143   1.627   4.020  0.1411  0.4546 -0.2429
22924W        W39772  16.088   4.600   5.603  0.3181 -0.2136 -0.2818
22925W        W39773  14.779  14.475   0.168 -0.4198 -0.1367  0.0906
22926W        W39774  15.001   0.491  13.801  0.0946 -0.0792 -0.0155
22927W        W39775   2.142  10.825   1.997  0.1997  0.0879  0.0457
22928W        W39776   1.427   0.231  16.633  0.0992 -0.1672 -0.0999
22929W        W39777   8.881  16.067   3.171  0.0120 -0.3251 -0.2988
22930W        W39778   4.675   3.101   5.356 -0.1554  0.1108 -0.3233
22931W        W39779  14.612  16.057  11.376 -0.0543  0.0049  0.2554
22932W        W39780   4.196  12.884  15.393  0.2459 -0.3053 -0.0794
22933W        W39781  14.284   6.928   3.452  0.1957  0.2572 -0.0457
22934W        W39782   5.624  12.065  16.439 -0.0681 -0.1158 -0.4006
22935W        W39783  10.888   9.465   5.835  0.1511 -0.1934  0.1720
22936W        W39784  15.130   7.384   4.342  0.2047 -0.1401 -0.2840
22937W        W39785  15.604   9.093   5.571 -0.1458 -0.0326  0.1350
22938W        W39786   0.489  10.192   2.434  0.0798 -0.2620  0.1139
22939W        W39787  14.531  14.468   4.138 -0.0967  0.0654  0.1015
22940W        W39788   5.004  10.607   0.331 -0.0944  0.2945  0.1194
22941W        W39789  17.654  14.576   2.134  0.2216  0.0607  0.0487
22942W        W39790  17.425  15.229   0.732 -0.2900  0.1359 -0.3779
22943W        W39791   3.337  17.037   1.303  0.0672 -0.1243 -0.2447
22944W        W39792  14.530   4.346   4.781 -0.0094 -0.4026 -0.4572
22945W        W39793  15.275   8.486  16.235 -0.1461 -0.2571  0.1770
22946W        W39794  14.381  10.496  15.575  0.2050 -0.0371 -0.1686
22947W        W39795  17.248  14.975   1.822 -0.0988 -0.1564  0.4080
22948W        W39796   2.335  11.789   2.535 -0.1283 -0.0843  0.0843
22949W        W39797   7.099   1.937   2.296  0.0053  0.0463 -0.0394
22950W        W39798   0.504   8.425  12.578 -0.2288  0.0004 -0.1326
22951W        W39799   5.215  12.481  15.968 -0.1628 -0.0994 -0.0923
22952W        W39800   8.514  10.630   6.386  0.1682  0.1838 -0.0558
22953W        W39801  14.942   8.136  15.870 -0.1684 -0.2736  0.0030
22954W        W39802   0.746  13.009  13.832  0.0913 -0.1043  0.1882
22955W        W39803   1.917  17.642   3.469  0.1576  0.0163 -0.0540
22956W        W39804  11.229  13.568  14.589  0.0819 -0.0095 -0.0568
22957W        W39805  15.764  10.204  16.031  0.1523  0.0466  0.1116
22958W        W39806   4.329   3.336   3.270 -0.0320  0.1292 -0.0908
22959W        W39807  15.451  10.016   1.734 -0.0786 -0.1375 -0.0409
22960W        W39808  11.841  10.298  14.965 -0.0282 -0.0077  0.0578
22961W        W39809  16.890   1.809   2.690 -0.2045  0.1878 -0.0937
22962W        W39810  16.179   6.931   2.415  0.0808 -0.0882 -0.0279
22963W        W39811   9.918  12.317   4.677 -0.0150 -0.0603  0.2233
22964W        W39812   2.841  17.619   3.515 -0.0283  0.1676 -0.2221
22965W        W39813   3.263  15.518   2.991 -0.0480 -0.2787  0.0517
22966W        W39814   9.050  10.872  13.883  0.4144 -0.1816  0.1204
22967W        W39815  17.679   7.967  12.080  0.0071  0.1547  0.0053
22968W        W39816  16.254   7.505   6.052  0.0518 -0.2824  0.0616
22969W        W39817   9.439  12.130   0.070 -0.1008 -0.1152 -0.1318
22970W        W39818  15.328   7.645   1.444  0.0556  0.0652  0.1274
22971W        W39819   0.295   5.576  14.416 -0.0280 -0.0784  0.2671
22972W        W39820   9.204   3.665   4.743 -0.1174 -0.0572  0.0103
22973W        W39821  12.840   3.385   1.838 -0.0447 -0.4348 -0.1165
22974W        W39822   9.572   5.738   3.962  0.1282 -0.0507 -0.0588
22975W        W39823   9.382  14.429   4.079 -0.1204 -0.1478 -0.1636
22976W        W39824  15.769  16.136   2.034  0.1661 -0.1239 -0.2083
22977W        W39825   9.158  17.563   5.963 -0.1128  0.2678  0.1065
22978W        W39826   5.264  10.499  14.047  0.0648 -0.1795  0.0870
22979W        W39827   2.426   7.563  12.201 -0.0659 -0.4158  0.4163
22980W        W39828   0.402  12.782   2.118 -0.0506 -0.2150  0.0640
22981W        W39829  11.940  16.421   5.067  0.0224 -0.2934 -0.1333
22982W        W39830   4.099   6.185  11.761  0.0481  0.1558  0.1093
22983W        W39831   4.470   1.774  14.509 -0.1433 -0.3488 -0.2234
22984W        W39832  13.275   0.377   2.334 -0.1541  0.1908 -0.0528
22985W        W39833   5.350  10.488  12.012  0.0287 -0.0223 -0.1995
22986W        W39834   3.176   7.394  14.208  0.3563  0.0582 -0.3137
22987W        W39835  17.372  11.304   2.696  0.1059 -0.3385 -0.2193
22988W        W39836   0.345   4.956  14.317  0.3412 -0.1710 -0.0702
22989W        W39837  12.223   3.464   1.725  0.2013 -0.0334 -0.1719
22990W        W39838  15.944  10.080  12.554 -0.1812  0.0965 -0.1284
22991W        W39839   1.388   5.399  14.844  0.2460 -0.1769 -0.0897
22992W        W39840  15.644  11.769  14.381  0.1070  0.3006 -0.1809
22993W        W39841  10.018   2.167  10.358  0.0353  0.1416  0.3514
22994W        W39842  10.219   0.827   1.786 -0.0746 -0.0972  0.1220
22995W        W39843   0.051   5.310   0.198 -0.0863  0.1311  0.0144
22996W        W39844   2.920   1.073  12.825 -0.1846  0.2435 -0.0315
22997W        W39845   1.249  15.475  15.923  0.2001 -0.1176  0.0398
22998W        W39846  16.898   1.344   5.305 -0.0637 -0.0016  0.2530
22999W        W39847   6.836   0.134  16.082 -0.2214  0.5509  0.2611
23000W        W39848   7.404  17.203   4.771 -0.0768  0.0421 -0.1009
23001W        W39849   3.283  16.106   0.867 -0.1968  0.1477  0.3178
23002W        W39850   8.883  15.983  12.137 -0.0722  0.3751  0.1191
23003W        W39851  15.323  17.269  14.543  0.2047  0.0247  0.1937
23004W        W39852  15.669   7.334   4.508 -0.0421 -0.1251  0.1674
23005W        W39853   0.744   6.998  16.361 -0.2173  0.0612 -0.1160
23006W        W39854   0.822   0.391   1.955 -0.0354  0.0294 -0.1716
23007W        W39855   5.224   5.595  15.112 -0.1647  0.1589 -0.0898
23008W        W39856  11.386  13.654   1.332  0.1399  0.0550 -0.3809
23009W        W39857  15.351   8.545   4.831  0.3595 -0.0160  0.2307
23010W        W39858   3.499   3.390   3.985  0.0345 -0.0952  0.0542
23011W        W39859   5.569  15.008   1.921 -0.1765  0.0498 -0.3997
23012W        W39860   4.758   9.769  11.730  0.1791  0.2404 -0.2319
23013W        W39861   6.908  16.283  14.558  0.0104  0.0826 -0.0687
23014W        W39862   4.627  10.499   0.753  0.1352  0.1306 -0.0658
23015W        W39863  16.363   5.913   3.981  0.0902 -0.5364  0.0490
23016W        W39864   3.453  14.944   1.874 -0.0873  0.1661 -0.0449
23017W        W39865   7.710   8.006   3.255  0.0866 -0.0543 -0.0039
23018W        W39866  15.325   5.534  13.530 -0.0262 -0.0432  0.0264
23019W        W39867  12.475  13.596  14.553 -0.2079 -0.1901 -0.1783
23020W        W39868  16.534  13.699  15.727 -0.0352 -0.1649 -0.1691
23021W        W39869   5.794   7.181   2.968 -0.2666 -0.1323  0.0398
23022W        W39870   4.581  13.538   3.420  0.1865 -0.0852  0.3005
23023W        W39871  14.501  10.988   4.760  0.0388 -0.0483  0.0374
23024W        W39872   6.290  14.276   2.664 -0.0798  0.2958 -0.1390
23025W        W39873  10.545  12.143  11.904 -0.0793  0.0309  0.0596
23026W        W39874  12.018  16.895  13.401 -0.4938 -0.2589 -0.2675
23027W        W39875   3.061   1.802   4.465 -0.0746 -0.1228  0.0108
23028W        W39876   6.480   8.134   0.718 -0.0016 -0.1528  0.2251
23029W        W39877   6.046   8.583   4.578 -0.3376 -0.0070  0.1516
23030W        W39878  16.620   1.814   0.484 -0.4822  0.1870 -0.2555
23031W        W39879   6.280  15.066   2.673  0.1504  0.0030  0.0400
23032W        W39880  14.437   0.934  11.906 -0.1298 -0.3586  0.0496
23033W        W39881  11.471  11.594   4.629  0.1572 -0.0884 -0.1492
23034W        W39882   7.068  15.592  14.020  0.1805  0.0977 -0.2847
23035W        W39883  13.491   1.218  14.435 -0.2369 -0.0686 -0.0255
23036W        W39884  12.325  10.209   0.529  0.1992  0.2741 -0.0357
23037W        W39885  13.643   5.593   0.234  0.2865 -0.0780 -0.0294
23038W        W39886  14.610   5.318   0.103 -0.0147  0.0747 -0.0861
23039W        W39887   4.293  14.361  11.848 -0.4823  0.2306 -0.0611
23040W        W39888  15.595   7.111  13.725  0.1840  0.1092  0.1607
23041W        W39889  16.530   4.751  11.475  0.0052  0.0116  0.0165
23042W        W39890   1.486   6.910  12.459 -0.2410 -0.0236  0.1929
23043W        W39891   5.410   0.759  15.835 -0.1581 -0.0634  0.2822
23044W        W39892  12.071  12.338  14.025 -0.0927  0.2446  0.2692
23045W        W39893  11.531  15.519  12.556  0.1471 -0.0055  0.0192
23046W        W39894  13.098  17.216   2.982 -0.1082 -0.0216 -0.2967
23047W        W39895  14.066   7.851   0.900 -0.1946 -0.0174  0.0652
23048W        W39896   3.042   5.211   2.123  0.0364  0.0996  0.0297
23049W        W39897  17.035   5.315  15.178 -0.2745 -0.2660 -0.1070
23050W        W39898  13.877   2.677   5.971 -0.2745 -0.0125 -0.0346
23051W        W39899  14.224   9.453   3.743 -0.2753  0.2270 -0.1465
23052W        W39900   5.223  16.367   5.213  0.0506  0.4818 -0.0983
23053W        W39901   2.881   9.066  11.324  0.2093  0.3054  0.0693
23054W        W39902  13.471   8.633  15.388  0.2228  0.0343  0.0903
23055W        W39903   1.080   1.705  11.840  0.0829 -0.0471  0.2113
23056W        W39904   6.416  14.041   3.985 -0.0073  0.1210 -0.0592
23057W        W39905   2.323   8.143   0.470  0.0661  0.0580 -0.1201
23058W        W39906   8.213   7.576   4.034 -0.1551 -0.2661 -0.1638
23059W        W39907   2.272  10.350   1.848  0.1305  0.1415  0.1540
23060W        W39908   5.743   4.782   0.671 -0.0086  0.1667  0.1614
23061W        W39909  12.759   2.001  12.423  0.1308  0.4117 -0.1135
23062W        W39910   8.948  15.645  15.670  0.1015 -0.0652  0.1656
23063W        W39911   2.772   6.326  13.670  0.2103  0.0787  0.1311
23064W        W39912   3.352   2.651  15.119  0.0280 -0.1167  0.2639
23065W        W39913   4.465   8.836  12.223 -0.2483 -0.0849 -0.1026
23066W        W39914  17.301   8.260   3.561 -0.2611  0.0921  0.2953
23067W        W39915   9.545   5.842   3.447 -0.2641  0.0697 -0.0988
23068W        W39916   5.807   0.960   1.088 -0.1733  0.0230  0.2208
23069W        W39917   7.063   8.146   0.547  0.0209 -0.1146  0.1098
23070W        W39918  17.427   6.298   2.189 -0.2445  0.0571  0.0480
23071W        W39919   0.741   4.951  11.959  0.0040  0.0300 -0.1694
23072W        W39920   9.208  10.921   5.428 -0.2059 -0.1175 -0.0790
23073W        W39921   8.085  11.328  14.450  0.0028 -0.0552  0.2665
23074W        W39922   3.349  12.057   3.262  0.1505 -0.0922 -0.1733
23075W        W39923   5.397   0.501  12.040 -0.2734  0.2805  0.1351
23076W        W39924   1.193   6.489  12.316  0.1170  0.0139  0.2190
23077W        W39925   3.878  15.415  11.256  0.1147  0.0598  0.0421
23078W        W39926  16.843  15.939   0.155 -0.0793 -0.0446  0.1262
23079W        W39927   8.916  11.449   1.434  0.1494  0.0921  0.1806
23080W        W39928   3.307  16.452  11.645 -0.1467  0.0869 -0.0325
23081W        W39929   1.283  14.299  15.775 -0.0203 -0.2188 -0.3277
23082W        W39930   8.054  12.987   3.437 -0.1109 -0.0246  0.1440
23083W        W39931  10.412   4.963   1.212  0.0193 -0.0697  0.2402
23084W        W39932  12.843  14.967  16.127 -0.4430 -0.1658 -0.3094
23085W        W39933   0.972  16.690  13.499  0.2233  0.0501  0.1577
23086W        W39934   7.974  14.887  11.506 -0.1887 -0.1186 -0.4536
23087W        W39935   4.977  15.376  13.640  0.0324  0.0282 -0.1577
23088W        W39936   1.455   8.168   3.448  0.0198 -0.0443 -0.1130
23089W        W39937   1.149   4.184  14.981  0.0991  0.4330  0.0141
23090W        W39938  17.120   7.472  12.564  0.2770  0.1736  0.1164
23091W        W39939   5.665   0.993  12.166  0.2341  0.1045  0.0266
23092W        W39940   5.614   4.221   3.695 -0.0359  0.1042 -0.0500
23093W        W39941  13.158  12.370   4.556 -0.2740 -0.1420  0.2010
23094W        W39942  11.117   6.772   0.191 -0.0498 -0.0711  0.3338
23095W        W39943  13.628   8.770  13.287  0.1283  0.0339  0.0577
23096W        W39944  16.013   1.888   3.093 -0.0053 -0.5113  0.2386
23097W        W39945  10.314   9.185  13.621  0.0818 -0.1133  0.1313
23098W        W39946   8.652   1.544   2.238  0.1097 -0.0163  0.0547
23099W        W39947   0.761  11.189  12.477 -0.0046  0.2689  0.2453
23100W        W39948  11.873   5.254   4.850 -0.2742 -0.1128  0.0433
23101W        W39949   1.871   4.049   5.315  0.2050  0.3051 -0.0500
23102W        W39950   3.804   4.624   1.491 -0.4690 -0.1180  0.0486
23103W        W39951   0.563  13.522   3.392  0.1016  0.5056 -0.0284
23104W        W39952  12.574   8.177   5.499 -0.2803 -0.1854  0.0850
23105W        W39953   8.436   9.065  15.663  0.0416 -0.0579 -0.1475
23106W        W39954   9.075   5.729   4.555  0.0642  0.0951  0.2641
23107W        W39955   9.400  13.426   1.454  0.0665 -0.1162 -0.2469
23108W        W39956   2.296   3.246   1.178  0.3721  0.0291 -0.2188
23109W        W39957   9.996  15.234  15.431  0.0120 -0.1530 -0.1794
23110W        W39958   9.458   0.046  14.322  0.0317  0.2525 -0.1104
23111W        W39959   3.869   4.916  11.984  0.0962 -0.2914  0.2465
23112W        W39960   5.577   8.232  16.334 -0.2769 -0.1134  0.0927
23113W        W39961  13.257  13.760   4.104 -0.0716  0.1310  0.1735
23114W        W39962   8.239   5.493  16.297 -0.2553  0.3130 -0.0167
23115W        W39963   2.406  13.450   4.405  0.0047 -0.0056 -0.3383
23116W        W39964  14.490   1.422   2.030 -0.1011 -0.1492  0.1627
23117W        W39965   9.004   7.849  16.567  0.3578  0.0181 -0.1468
23118W        W39966  10.462   5.082  13.242  0.1839 -0.1360 -0.0518
23119W        W39967  17.084   7.370  15.302 -0.0736 -0.1485 -0.0079
23120W        W39968  16.432   3.456  14.648 -0.0824  0.2057  0.0883
23121W        W39969   8.079   8.035  12.869  0.0897  0.2570  0.0176
23122W        W39970  11.910   0.460   1.019 -0.1700  0.0822  0.0907
23123W        W39971  17.654  14.712   2.587  0.1504 -0.3569 -0.3114
23124W        W39972  12.552   5.361   4.073 -0.0161  0.1320 -0.1967
23125W        W39973   8.300   9.480   5.166  0.1684 -0.1620  0.0297
23126W        W39974   0.996   4.124   4.001 -0.4531  0.2657 -0.4166
23127W        W39975  10.159   1.791   3.555 -0.1254  0.0838 -0.1363
23128W        W39976  14.670  11.896   5.204  0.0240  0.1141 -0.1630
23129W        W39977  14.944  16.967  15.354  0.2220 -0.1188  0.2929
23130W        W39978  12.689   2.541   0.224  0.1673  0.0088 -0.1637
23131W        W39979  15.073   6.331   2.287  0.0576  0.1756 -0.1642
23132W        W39980  13.532   1.124   3.280 -0.0841  0.0503 -0.2051
23133W        W39981   6.331   0.248   4.410 -0.1583  0.1122 -0.1873
23134W        W39982  13.115   9.942  16.321  0.1010 -0.0030  0.3135
23135W        W39983   0.015  10.279   3.884  0.0309  0.1315 -0.1838
23136W        W39984   1.832   1.897  12.411 -0.3490 -0.1284  0.2340
23137W        W39985  12.824  16.158  15.264  0.2387  0.2576  0.1911
23138W        W39986  15.104   6.063   4.841  0.1207 -0.2166 -0.2427
23139W        W39987  11.280   0.247  11.491 -0.1259  0.0994  0.3885
23140W        W39988   0.856  15.916   3.464  0.1054 -0.0076 -0.4799
23141W        W39989   9.171   3.635  14.405  0.0538 -0.0554  0.0562
23142W        W39990  15.132  11.106  15.820 -0.1036 -0.1803  0.0036
23143W        W39991  16.299  16.294  15.152 -0.2806  0.2039  0.0213
23144W        W39992   7.033   3.826   0.711  0.1649 -0.2953 -0.1097
23145W        W39993   8.849   4.197  13.024  0.0553  0.1045 -0.1184
23146W        W39994   8.936   1.015  15.954  0.0134  0.3086 -0.1229
23147W        W39995  13.351  11.142  16.525  0.0418 -0.2626 -0.2128
23148W        W39996   4.258  12.134   3.292 -0.0031  0.1458 -0.1558
23149W        W39997   5.753  10.395   4.106 -0.2657  0.0533 -0.0749
23150W        W39998  13.441   4.109   1.684  0.3159 -0.1019 -0.0317
23151W        W39999   7.400  10.279  14.300  0.0117  0.1940 -0.0851
23152W        W40000  14.234  13.679  15.341 -0.1424  0.1429 -0.1310
23153W        W40001   2.617  16.425  13.361 -0.0547 -0.1844  0.3016
23154W        W40002   0.933  13.853  12.182 -0.1497  0.0141 -0.0682
23155W        W40003  11.820   6.989   4.975  0.0049 -0.0498  0.1522
23156W        W40004   2.230  11.213  12.998  0.2446  0.1117 -0.1921
23157W        W40005   7.923   4.682   0.746  0.1591 -0.0317  0.3895
23158W        W40006  14.550   3.808  13.018 -0.1053  0.3248 -0.0397
23159W        W40007   9.813  10.258  15.002  0.1232 -0.1313 -0.2024
23160W        W40008  11.040   4.669   4.079 -0.0183 -0.0698 -0.0307
23161W        W40009   3.235  16.881  14.896  0.2147  0.1035  0.0824
23162W        W40010  15.225   1.261   1.031  0.2464  0.2130  0.1735
23163W        W40011   2.214   0.951   4.501  0.2108 -0.1729  0.0397
23164W        W40012  15.150  10.289  15.244  0.3002 -0.2542  0.0126
23165W        W40013  11.838   1.169   0.890  0.2315 -0.1091  0.4497
23166W        W40014   7.634   9.912   2.004 -0.0143  0.0055  0.0097
23167W        W40015  13.441   3.427   3.817  0.0753  0.1589 -0.1547
23168W        W40016   6.325  13.734  15.367 -0.1373  0.1632  0.0098
23169W        W40017   8.000   6.694  15.142 -0.0144 -0.1149  0.2131
23170W        W40018  17.580   7.873   2.445  0.1057 -0.0698 -0.0689
23171W        W40019   2.227  13.123   4.081  0.0695 -0.1868 -0.1286
23172W        W40020  11.328  16.754   1.962  0.5103 -0.0347 -0.3120
23173W        W40021   4.901  17.114   3.520  0.2410  0.4071  0.0004
23174W        W40022  16.080   6.312   6.120  0.1032 -0.3109  0.1529
23175W        W40023  11.155  13.094  15.264  0.0541 -0.0261 -0.0399
23176W        W40024   1.584   1.511  12.299  0.0865  0.1912  0.1449
23177W        W40025  16.177   3.062   4.942  0.1395 -0.0901 -0.0771
23178W        W40026   0.801  14.009  13.255 -0.1301 -0.0596  0.2431
23179W        W40027   9.578   0.019  13.843  0.0623  0.2074  0.0341
23180W        W40028   8.184   0.157  16.066  0.0446 -0.0698  0.0144
23181W        W40029  10.119  14.380   4.396  0.1722 -0.1638 -0.0800
23182W        W40030   8.529  15.882   5.344 -0.1486 -0.0409 -0.0526
23183W        W40031  16.277  15.342   4.519  0.1786  0.3546  0.0167
23184W        W40032  10.440  11.328   3.565 -0.1400  0.0067  0.1080
23185W        W40033   1.289  14.069  15.380 -0.0216 -0.1400  0.0819
23186W        W40034   6.427  10.334  14.005 -0.0865 -0.0083 -0.4060
23187W        W40035   9.425   7.814   2.676  0.2069 -0.2612  0.0345
23188W        W40036   3.927   1.539  12.580  0.5479  0.1496 -0.1170
23189W        W40037   7.586  14.117   2.802  0.1958 -0.2403  0.0610
23190W        W40038   6.402   1.615   3.603 -0.0781  0.1502  0.0106
23191W        W40039  11.228   9.616   0.060 -0.2607 -0.1352  0.0355
23192W        W40040  12.575   8.108  14.525 -0.0806  0.0121 -0.0337
23193W        W40041   3.121  13.871  12.597  0.2566  0.0485 -0.0465
23194W        W40042   2.549  16.353  14.882  0.1409 -0.3037  0.0266
23195W        W40043   3.029   8.579   3.929  0.2803  0.1539  0.1048
23196W        W40044   8.368  12.664  11.426  0.1078 -0.1425 -0.3567
23197W        W40045   8.898  15.322   2.887 -0.0774  0.3145  0.1143
23198W        W40046  13.257  16.120   1.654 -0.1083  0.0121 -0.0537
23199W        W40047   9.213   3.050  14.071  0.0089  0.1516 -0.0461
23200W        W40048  17.510  13.799   3.805  0.0481  0.1891 -0.2883
23201W        W40049  14.793   5.232   1.079 -0.0134 -0.2436 -0.3527
23202W        W40050  14.461  11.665   3.965 -0.0702 -0.0641  0.0698
23203W        W40051  12.352  10.915  11.074 -0.2410  0.0710 -0.2697
23204W        W40052   1.957   8.334   2.163 -0.2337  0.0226 -0.1333
23205W        W40053  12.579  11.541   1.828  0.1067 -0.0551 -0.1422
23206W        W40054  14.249  12.498  11.842  0.1049  0.2407 -0.2947
23207W        W40055   3.552   3.022  15.987  0.0069 -0.3070 -0.1915
23208W        W40056   4.660   3.130  12.562 -0.2157 -0.2844 -0.0005
23209W        W40057   8.627  10.892  16.528 -0.0438 -0.1029 -0.1480
23210W        W40058   5.662  11.073   4.204 -0.3146 -0.0808  0.0983
23211W        W40059   9.192  12.373   5.704  0.2436  0.1241 -0.1799
23212W        W40060  13.547   8.969   5.358 -0.1844  0.0139  0.0470
23213W        W40061   5.542  15.813   0.087  0.1326 -0.0390  0.1397
23214W        W40062  17.446   8.335   1.177  0.0147  0.3128 -0.1829
23215W        W40063   8.250  10.934   4.516  0.0594  0.3373  0.0699
23216W        W40064  10.047  14.063  12.102  0.0491  0.1295  0.1335
23217W        W40065  11.910   9.267  13.099  0.0096 -0.1025  0.1792
23218W        W40066   8.195   3.668   0.969  0.1426  0.3613  0.1609
23219W        W40067   4.490  13.911   3.786  0.0137  0.2523  0.3849
23220W        W40068  15.351  16.439  12.796 -0.0428  0.1579  0.1006
23221W        W40069  12.500   7.012  14.633  0.1848 -0.5467  0.0344
23222W        W40070   7.381  14.107   3.925  0.1978  0.0018  0.1032
23223W        W40071  14.781   3.109   3.289 -0.0905 -0.0504  0.2514
23224W        W40072   1.233   3.195   4.087 -0.3090 -0.1500  0.0362
23225W        W40073  14.261   7.199  11.611  0.1873  0.1874  0.0673
23226W        W40074   5.741  17.223   3.277  0.3182 -0.2214 -0.1692
23227W        W40075   7.899   6.693  11.608  0.0441 -0.1505  0.0517
23228W        W40076   5.280   7.822  16.342  0.0544 -0.2131 -0.0798
23229W        W40077  12.936   0.641  14.642 -0.2558  0.1806  0.1336
23230W        W40078  13.189  11.839   4.670  0.3108  0.0817  0.3499
23231W        W40079  14.876   1.325   4.596  0.0460 -0.0077  0.3291
23232W        W40080   7.566   3.253  16.540 -0.4701  0.1509 -0.0213
23233W        W40081   5.335   3.793  12.456  0.1534  0.2225  0.3433
23234W        W40082   6.387   7.912   4.077 -0.1514 -0.1468  0.1366
23235W        W40083   5.777  15.870   2.156 -0.0611  0.1059 -0.3193
23236W        W40084   2.697   8.888   4.294 -0.3037 -0.0307  0.0081
23237W        W40085  10.884   2.538   1.619 -0.2223  0.3335  0.2399
23238W        W40086  11.217  13.878   0.398 -0.0907 -0.0111  0.2568
23239W        W40087  13.754   5.357   5.019 -0.0021 -0.3333 -0.1914
23240W        W40088   4.252  16.333  11.683  0.1646 -0.0274  0.2205
23241W        W40089  16.726  12.601  14.457 -0.0590 -0.0027  0.0626
23242W        W40090   7.952   1.267   2.799 -0.0310 -0.0179 -0.2059
23243W        W40091   5.260  14.964   3.871 -0.0884 -0.1743  0.2406
23244W        W40092   0.039  14.505  13.693  0.1603  0.0893 -0.2019
23245W        W40093   5.307  16.252   2.707  0.3688 -0.1727  0.2334
23246W        W40094   1.129  13.437  12.431  0.3695  0.2681 -0.2219
23247W        W40095   3.650   8.180  16.085 -0.1982 -0.1138 -0.0398
23248W        W40096  13.472   5.222  13.225  0.1970  0.3470  0.0719
23249W        W40097  17.395   0.213  12.176  0.0557 -0.0593  0.2790
23250W        W40098   7.117   0.661   1.084  0.0756 -0.0647 -0.3099
23251W        W40099   5.613  14.594   0.120  0.1421 -0.1405 -0.2532
23252W        W40100   0.219   8.541  14.107 -0.2315 -0.2524  0.1362
23253W        W40101   3.241  16.162  13.910  0.0851  0.1589  0.1459
23254W        W40102   9.507  11.134  15.587  0.3764 -0.1743 -0.1423
23255W        W40103   5.676   9.734  10.642  0.2348 -0.4108 -0.0922
23256W        W40104  15.157  16.522   4.932 -0.4931 -0.0462  0.0339
23257W        W40105   6.131  12.172   0.942  0.0649 -0.0536 -0.1536
23258W        W40106  17.184   6.531   0.544  0.0210  0.2011  0.0888
23259W        W40107  12.539   4.475  16.065  0.4559 -0.1055 -0.2606
23260W        W40108   2.456  13.944   4.257 -0.4033 -0.0862 -0.0081
23261W        W40109   9.426  15.400  12.045 -0.1203  0.3557  0.2475
23262W        W40110  11.906   5.759   4.525 -0.0104 -0.1588 -0.4574
23263W        W40111  12.072  17.490  15.398 -0.2573 -0.1514  0.1410
23264W        W40112  11.898   7.942   5.076 -0.1520  0.3692  0.0318
23265W        W40113  15.583  17.287   0.457 -0.0043 -0.2317  0.0454
23266W        W40114   9.219   8.211  10.859  0.2594 -0.1984 -0.0526
23267W        W40115   0.922  15.933  13.204  0.1951 -0.2945  0.0423
23268W        W40116  10.413  11.699   4.915  0.1093  0.2237  0.1006
23269W        W40117   7.516  13.535  12.745 -0.0633  0.0670 -0.0977
23270W        W40118   5.012  12.608  13.031 -0.1518 -0.0831 -0.3823
23271W        W40119   8.991   0.201   0.044 -0.2953  0.1477  0.0234
23272W        W40120  14.036   8.516  12.028  0.2622 -0.0412  0.2158
23273W        W40121   1.704  12.509   3.968  0.0144 -0.1145 -0.2763
23274W        W40122  14.335  13.239  12.528  0.1017  0.1363 -0.2611
23275W        W40123  12.569  15.144   3.971  0.0669  0.2126 -0.0257
23276W        W40124   6.849   3.822  14.593 -0.1371 -0.4364 -0.1878
23277W        W40125   2.335   2.946  15.455 -0.0619  0.1001 -0.0961
23278W        W40126  15.107   8.593   0.714  0.1420  0.0640  0.2920
23279W        W40127   2.386   9.046  10.328  0.0713 -0.2871 -0.0267
23280W        W40128   6.769   3.560  12.424  0.1125  0.0681 -0.0226
23281W        W40129  12.254   0.867  14.110 -0.2234  0.1017  0.1297
23282W        W40130  11.135   8.198  13.519  0.1476  0.0728 -0.0814
23283W        W40131  12.575   6.879  14.137 -0.1371  0.0167  0.0151
23284W        W40132   0.832   7.667  11.700 -0.2162 -0.0183  0.0285
23285W        W40133   0.879   1.504  13.305 -0.1995 -0.4213 -0.1778
23286W        W40134  13.791  17.500   1.796 -0.2431 -0.0616  0.0422
23287W        W40135   6.289  12.251  12.811 -0.0547  0.2111 -0.1035
23288W        W40136   6.115  17.657   6.194  0.0784  0.3156 -0.2545
23289W        W40137  12.744   2.228   1.079 -0.0528  0.2531  0.0490
23290W        W40138  10.463   2.351   0.220  0.0359  0.0001  0.0968
23291W        W40139   8.208  15.885  15.332 -0.0110 -0.1433  0.1136
23292W        W40140   3.358  15.712  14.263 -0.2407 -0.0021 -0.1040
23293W        W40141   9.218   8.254   2.754 -0.5900 -0.0045  0.0650
23294W        W40142   5.422  11.489  14.461 -0.0525  0.1229 -0.1875
23295W        W40143  12.656  11.188  12.549  0.0411 -0.3053 -0.0254
23296W        W40144   6.209   1.395  11.313 -0.4039 -0.1017  0.1411
23297W        W40145  11.390   8.720   1.863 -0.3399  0.0949 -0.3793
23298W        W40146  14.936   8.350  13.199  0.1410 -0.1533  0.2255
23299W        W40147   7.028  12.662  16.010  0.2639  0.1822 -0.2288
23300W        W40148   4.322   0.652  13.283  0.0982  0.1474  0.0901
23301W        W40149   1.963   6.075   4.595 -0.1552  0.1086  0.2471
23302W        W40150   6.955  15.989  16.564 -0.3196 -0.1706 -0.3311
23303W        W40151   1.069   4.095  15.583  0.1860  0.0308 -0.0067
23304W        W40152   0.968   5.645  13.030 -0.1558 -0.3584 -0.0684
23305W        W40153   3.027   0.042  12.170 -0.0850 -0.2927 -0.2345
23306W        W40154   2.410  10.934  12.083 -0.1413  0.1912 -0.2413
23307W        W40155   7.133  14.257  12.230 -0.1540 -0.1981  0.0824
23308W        W40156   0.098   6.800   2.391  0.1432 -0.2540 -0.2765
23309W        W40157   9.436  12.275  12.607 -0.1513  0.1583  0.2332
23310W        W40158   5.293  11.480   0.986 -0.0907  0.0680 -0.0985
23311W        W40159   4.197   9.760   3.959 -0.0202 -0.0878  0.0874
23312W        W40160   4.334  16.306   4.510 -0.0797 -0.0542 -0.1212
23313W        W40161   0.115   3.259   4.971 -0.1050 -0.2365 -0.0425
23314W        W40162  12.708   0.098  12.608  0.1796 -0.3395  0.0174
23315W        W40163   8.277   8.802  14.444  0.2110 -0.0021  0.2100
23316W        W40164  16.917  13.275   1.734 -0.0277  0.5187  0.0545
23317W        W40165   7.680   2.376   3.892 -0.2061 -0.0878 -0.3017
23318W        W40166   0.124  13.436  12.683  0.1044  0.0910 -0.0504
23319W        W40167   0.417   3.675   4.128  0.0495  0.1040 -0.1179
23320W        W40168  13.101  13.638  13.814  0.1310 -0.3035  0.0421
23321W        W40169   8.608   8.259  16.334 -0.0318  0.0634  0.0488
23322W        W40170   4.790  13.292   5.155 -0.2445 -0.0879 -0.1318
23323W        W40171  11.662   9.834   2.113 -0.2839  0.1276 -0.0259
23324W        W40172   0.858  11.294  16.447  0.2442  0.2292  0.0835
23325W        W40173  14.768  16.452  15.977  0.0485  0.1751  0.1659
23326W        W40174   6.527  14.911  11.562  0.1449 -0.3142 -0.0837
23327W        W40175  14.894  13.194  15.611  0.3124 -0.0923  0.0097
23328W        W40176   3.252   8.101   3.549 -0.1096  0.1114 -0.1674
23329W        W40177  12.585   1.153   2.745  0.1081  0.4239 -0.2748
23330W        W40178  14.670   8.273   3.195 -0.1412  0.0315 -0.2195
23331W        W40179   1.411   3.824   2.594 -0.2010 -0.1388  0.2730
23332W        W40180  15.460   7.223   1.938 -0.0545 -0.0004  0.0703
23333W        W40181  10.304  14.775  15.508 -0.0844 -0.2290 -0.0230
23334W        W40182  10.116   0.120  12.460 -0.3056  0.0681  0.2972
23335W        W40183   5.905  10.818  14.680 -0.2477 -0.0458  0.1113
23336W        W40184   6.200  13.784   3.653  0.0763 -0.1134  0.3206
23337W        W40185   1.881   2.047   1.135 -0.3430  0.0130 -0.0502
23338W        W40186   9.416  10.864   2.819  0.0344 -0.1316  0.0673
23339W        W40187   9.189   4.589  16.055 -0.2898 -0.0941 -0.2704
23340W        W40188   7.689   8.849   3.550  0.0350 -0.0002 -0.1266
23341W        W40189   9.116  15.629  12.371 -0.0425  0.3515 -0.0389
23342W        W40190   0.390  13.317   2.000 -0.0855 -0.0370  0.5307
23343W        W40191   7.262   7.885  14.971 -0.2108  0.2303  0.3127
23344W        W40192  14.086   6.235   5.302  0.1798 -0.2073 -0.3044
23345W        W40193   3.399  13.023   5.884 -0.3710  0.2444  0.0374
23346W        W40194  11.721   3.471  12.973  0.1942 -0.1591  0.1660
23347W        W40195   2.528   6.744   0.610  0.1883 -0.2040 -0.1431
23348W        W40196  16.375   2.603  15.637  0.0568  0.3872  0.1366
23349W        W40197   8.769  12.523  15.917  0.2029 -0.2305  0.3438
23350W        W40198  16.921   8.102   4.094 -0.1001 -0.2862 -0.0507
23351W        W40199   2.964  12.379  12.978  0.1250  0.2143 -0.0792
23352W        W40200  16.448  15.788   2.250 -0.2283  0.2461  0.1162
23353W        W40201   5.634  17.272   2.237  0.2002  0.0256 -0.2932
23354W        W40202  10.443  13.005   4.167  0.1970  0.3359 -0.1086
23355W        W40203   9.530  15.464  14.114  0.1027  0.3770  0.0605
23356W        W40204  10.559   6.449   2.688  0.0256 -0.0106 -0.0049
23357W        W40205   8.609   8.814  16.568  0.0166 -0.0233  0.1531
23358W        W40206   6.379   5.143   4.719 -0.2858 -0.0656  0.1213
23359W        W40207   9.814  16.996   1.203 -0.2472  0.0740 -0.1631
23360W        W40208   7.558   1.388   4.776  0.0318  0.3467  0.0734
23361W        W40209   7.825   7.899  13.664 -0.1518  0.0275 -0.1891
23362W        W40210   4.482  11.346   0.209 -0.1901 -0.1907 -0.0650
23363W        W40211   2.839  13.605  13.994  0.2467  0.1304 -0.1088
23364W        W40212  13.032   0.840  16.081  0.0027  0.3107  0.3378
23365W        W40213   1.200   8.955   2.083 -0.0026  0.1404 -0.0992
23366W        W40214  13.497   0.805   2.482 -0.0598  0.1197 -0.1020
23367W        W40215   8.683   7.109   2.091 -0.1390  0.1476 -0.3178
23368W        W40216   3.600   5.642   3.257  0.0384  0.0536 -0.1783
23369W        W40217  14.849   7.804   1.477  0.1083 -0.1297 -0.0098
23370W        W40218   1.281  17.458  14.784 -0.1607  0.0125 -0.2839
23371W        W40219  17.650   6.377   1.696 -0.1596  0.0747  0.3732
23372W        W40220  11.517  17.078  13.364 -0.0788 -0.0279  0.0847
23373W        W40221   4.135   6.681   0.757 -0.2091  0.4093 -0.0757
23374W        W40222  14.352   0.061   3.337  0.0555 -0.1909 -0.3838
23375W        W40223  14.438  13.495   1.362 -0.0140  0.0205  0.1034
23376W        W40224  12.938   4.906   2.373 -0.0570  0.5017 -0.1839
23377W        W40225   5.451   0.283  16.634 -0.1412 -0.0036 -0.0800
23378W        W40226  12.281  13.968   5.268 -0.1454 -0.1449  0.3989
23379W        W40227  16.550  13.249   3.943  0.1182 -0.1853 -0.0151
23380W        W40228   0.515   8.532   4.085  0.0238  0.0224 -0.0995
23381W        W40229  16.474  15.269   1.164  0.1468 -0.0203 -0.0530
23382W        W40230   3.700  17.275   4.375  0.0199  0.1032 -0.3374
23383W        W40231  13.751   1.140  13.174  0.0950 -0.0606  0.0712
23384W        W40232   5.078   6.164  12.804  0.5717 -0.3449 -0.0819
23385W        W40233   1.786   9.996  11.645  0.2094  0.2257  0.0228
23386W        W40234  15.620   2.005  11.758 -0.0807  0.1435 -0.0489
23387W        W40235   5.629   3.355   1.893 -0.1761  0.0023 -0.3101
23388W        W40236  17.225   4.847  12.354  0.1737 -0.2337  0.1366
23389W        W40237  17.088   4.233   0.240  0.1285  0.0247 -0.1456
23390W        W40238   1.064  15.216   3.906 -0.1814  0.0910 -0.0650
23391W        W40239  11.094  11.009  14.907 -0.1036  0.1594 -0.2195
23392W        W40240  16.504  14.374   1.256  0.2136  0.0552  0.1005
23393W        W40241   4.700   2.340  15.237  0.2719 -0.0710  0.1650
23394W        W40242  14.676   2.204   0.136 -0.0793 -0.3067  0.0853
23395W        W40243  15.368  12.001   0.189  0.0144 -0.1589 -0.0520
23396W        W40244  13.596  11.675   4.019 -0.2598  0.0113 -0.1311
23397W        W40245   9.016   7.589   1.023 -0.0251 -0.2367 -0.0599
23398W        W40246   2.114  16.931   0.958  0.1121  0.0855  0.1649
23399W        W40247   2.978  11.287   1.955 -0.0990  0.1008  0.1563
23400W        W40248   6.288   5.449  15.328 -0.0583  0.2754  0.0493
23401W        W40249   5.161   2.489  10.989  0.1442 -0.1310 -0.1494
23402W        W40250  16.204   7.566   4.359  0.1447 -0.1056  0.0740
23403W        W40251  14.529   8.958  12.756 -0.1619  0.0663 -0.2926
23404W        W40252  15.927   7.124   1.009  0.1785 -0.0873 -0.3585
23405W        W40253   7.342   5.837  14.183 -0.1897 -0.0525 -0.0334
23406W        W40254  12.354   9.200   4.840 -0.0471  0.1691 -0.1208
23407W        W40255  16.930   2.585   0.015 -0.0114 -0.0490 -0.0793
23408W        W40256   6.521  13.858   4.849 -0.0109 -0.2787  0.1103
23409W        W40257  16.414   3.929  14.442  0.0144 -0.2544 -0.1011
23410W        W40258   7.042   3.518  13.262  0.0088  0.0601 -0.0145
23411W        W40259  16.007  11.354  14.250  0.2439 -0.1523 -0.0181
23412W        W40260  17.534  11.620  13.611 -0.1806  0.0964  0.0196
23413W        W40261   9.625  17.696   5.894 -0.2492  0.2173  0.2179
23414W        W40262  11.323   4.860   3.744 -0.2393  0.1447 -0.0433
23415W        W40263  13.148   1.371   2.003  0.0064 -0.1510  0.0529
23416W        W40264  14.241  15.102  16.154 -0.0520  0.0294 -0.0253
23417W        W40265   6.225   3.328  14.095  0.0229  0.1544  0.0349
23418W        W40266   7.683  15.039   5.054  0.0290  0.0310  0.4314
23419W        W40267   4.064   3.694  13.742 -0.1264  0.2214 -0.3643
23420W        W40268  14.018   2.529  14.149  0.0937  0.1739  0.2626
23421W        W40269   6.002   5.332   0.695 -0.2822  0.0430 -0.0927
23422W        W40270   4.267  16.071   0.901  0.1425 -0.0033 -0.2190
23423W        W40271  15.478   3.206   4.257  0.0953  0.1105  0.1233
23424W        W40272   2.724  17.008  14.960  0.3110  0.1265 -0.0201
23425W        W40273  11.001   0.206   4.311 -0.1497  0.0042  0.0579
23426W        W40274  16.671   8.294   4.613  0.1014  0.0185 -0.1417
23427W        W40275  10.850   4.684  15.633  0.1471 -0.0039  0.1087
23428W        W40276  16.542  13.181   5.257 -0.0857  0.0340  0.1361
23429W        W40277   9.318  10.241  12.497 -0.1093 -0.0163 -0.0314
23430W        W40278   2.360  11.373  15.165 -0.0690 -0.2701 -0.1862
23431W        W40279   8.060   9.290  14.317  0.3322 -0.0944 -0.0592
23432W        W40280   7.108   6.100   4.585  0.3076 -0.1466 -0.1288
23433W        W40281   7.553   7.864  15.400  0.0319  0.1233 -0.2722
23434W        W40282  15.405   2.249   4.348  0.1847  0.1944  0.1770
23435W        W40283  15.223   6.431  12.225  0.1163  0.0574  0.1646
23436W        W40284  12.672  16.444   2.337  0.1303 -0.1229 -0.0917
23437W        W40285   1.917   7.996   0.085 -0.4257  0.2426 -0.1286
23438W        W40286   1.362   7.828   3.931  0.1261  0.0693 -0.1080
23439W        W40287   5.641  16.629  16.419 -0.1316 -0.3277 -0.0498
23440W        W40288  15.042  11.035   0.557  0.2355  0.0323  0.0266
23441W        W40289  12.031   8.815  15.791  0.0581 -0.0332 -0.2985
23442W        W40290  13.385   8.593   4.275  0.0229 -0.0718 -0.1661
23443W        W40291  12.121  16.209  14.630 -0.1813  0.0220  0.2877
23444W        W40292   1.565   6.553  16.519 -0.1711 -0.1206 -0.0653
23445W        W40293   1.175   1.431   4.032  0.1660 -0.1945  0.0144
23446W        W40294  14.328   3.144  14.788 -0.0023  0.1567 -0.0375
23447W        W40295   8.295   8.353   3.902 -0.0021 -0.0775  0.1505
23448W        W40296  11.553   6.151  13.919  0.0401 -0.2381 -0.0047
23449W        W40297  16.169   1.258   2.029 -0.0586  0.1865 -0.0925
23450W        W40298   8.402  10.057  15.786 -0.0627 -0.0659 -0.1187
23451W        W40299  10.191   1.289  13.952  0.2849  0.0677  0.4099
23452W        W40300   6.234  13.338   0.911  0.0657  0.0726  0.0621
23453W        W40301  10.583   8.112  14.149 -0.2426 -0.3823  0.2216
23454W        W40302   9.847   5.989   5.034  0.2339  0.1136 -0.1300
23455W        W40303  11.829  15.798  16.307  0.2057 -0.5028 -0.0929
23456W        W40304   8.949  15.214  15.984  0.0759  0.1569 -0.1627
23457W        W40305  15.222  13.475   1.628 -0.0674  0.0823  0.1485
23458W        W40306   2.590   1.244   1.617 -0.1454  0.0165  0.0040
23459W        W40307  12.876   3.138   5.397 -0.2878 -0.1280  0.1309
23460W        W40308   4.245  17.249  13.330  0.1523  0.0283  0.1762
23461W        W40309  14.410   4.112   2.962  0.0297  0.1199 -0.0078
23462W        W40310  16.002  17.177  13.356  0.1556 -0.1514 -0.0388
23463W        W40311   5.869   8.116  14.565  0.1103 -0.2838  0.1687
23464W        W40312   7.231   6.545   3.821 -0.0158  0.1299 -0.2249
23465W        W40313  10.159  16.752   1.440 -0.4486  0.0934  0.0678
23466W        W40314   8.200  15.236   3.578 -0.0433  0.0692  0.1862
23467W        W40315   6.126   1.113  13.290 -0.1703 -0.0758 -0.2159
23468W        W40316   7.432  14.833   1.389 -0.0259  0.1931 -0.1819
23469W        W40317   6.929  12.850  13.643 -0.2639  0.0509 -0.0453
23470W        W40318   1.538  10.385  16.193 -0.1724  0.0638  0.0829
23471W        W40319  15.259   8.712  13.030 -0.1178  0.0684 -0.1560
23472W        W40320   9.957  10.166   3.331 -0.0706  0.1763  0.0979
23473W        W40321   3.751   5.310  14.163  0.0898 -0.0250 -0.3671
23474W        W40322  11.041   8.825  11.551 -0.0832 -0.0754  0.0858
23475W        W40323  11.213   3.120  15.327 -0.0988  0.0634 -0.3593
23476W        W40324   7.512   9.157  14.771 -0.1020  0.0139  0.0883
23477W        W40325   1.383  10.624   2.238 -0.2691 -0.0245 -0.2177
23478W        W40326   6.070   8.196  16.511 -0.1475 -0.4242 -0.2878
23479W        W40327   8.081   1.418   4.828 -0.1504 -0.2262  0.5079
23480W        W40328   3.752   3.078  12.171 -0.1029 -0.0767  0.0041
23481W        W40329   5.014  13.983   4.008 -0.1923  0.1809  0.0528
23482W        W40330  11.483  14.050   3.191  0.0272  0.1859 -0.0676
23483W        W40331  14.391   4.993   0.771 -0.0140  0.1299 -0.1462
23484W        W40332  14.392   0.714   3.770 -0.0798 -0.3185  0.0079
23485W        W40333  15.334   4.882   2.402 -0.0331 -0.1117 -0.3098
23486W        W40334   2.406  14.413   4.211 -0.2780  0.0844  0.0508
23487W        W40335  10.609   5.359  16.480  0.1064  0.2628 -0.1499
23488W        W40336  10.088  16.744   3.282 -0.1369  0.0611 -0.0297
23489W        W40337   1.532   0.984   3.416  0.0927  0.0445  0.0266
23490W        W40338  14.628  15.426   0.350  0.0886  0.2256 -0.0762
23491W        W40339   2.885   7.880  12.670  0.1127 -0.1743  0.0724
23492W        W40340   2.663  12.625   2.009 -0.1887  0.0792 -0.0643
23493W        W40341   3.582  14.856   5.816  0.0412 -0.0908  0.0780
23494W        W40342  10.545   7.892  12.120  0.1133  0.0357  0.1329
23495W        W40343   1.561   0.704   0.072 -0.0275  0.1955 -0.0558
23496W        W40344  12.416  10.123  14.641  0.0317  0.1738 -0.0779
23497W        W40345   6.814   1.573  12.980  0.2135 -0.0276 -0.1266
23498W        W40346  14.526  10.851   3.287 -0.0397 -0.0254  0.2126
23499W        W40347  14.067   1.210   2.590  0.0358  0.1875  0.1566
23500W        W40348   6.381  11.735  11.892 -0.0882 -0.0035 -0.1491
23501W        W40349   4.300   4.610   4.079  0.0035 -0.1811  0.0773
23502W        W40350   7.637   1.981   3.136  0.0055  0.1666  0.1934
23503W        W40351  12.435   9.469  12.276  0.0135  0.1460  0.0532
23504W        W40352  10.976   6.006  13.263  0.2150  0.0836  0.3841
23505W        W40353  17.648  12.827   3.711  0.0460 -0.3547  0.2067
23506W        W40354   1.982   9.224   4.828 -0.0151 -0.2691  0.1334
23507W        W40355  17.088   3.714  15.080 -0.0348  0.2372  0.1129
23508W        W40356  13.337   6.262   5.198 -0.0440  0.2443  0.0209
23509W        W40357   2.956   6.723   3.305  0.0915  0.0953  0.1475
23510W        W40358  11.570  15.151  12.195  0.0833 -0.0254 -0.2235
23511W        W40359   6.409  14.420   0.839  0.0265 -0.0618 -0.0742
23512W        W40360  10.786  13.444   3.095  0.2641  0.0052 -0.2332
23513W        W40361   9.637  16.634  15.238 -0.0592  0.0349  0.2183
23514W        W40362  12.438   3.315  11.513 -0.1433  0.1317 -0.1749
23515W        W40363  15.869  10.682   5.393  0.0525 -0.1224 -0.1679
23516W        W40364  11.989   0.914   1.278  0.0643  0.0229  0.0254
23517W        W40365  17.199   3.794   2.617  0.0061  0.1899 -0.5060
23518W        W40366  13.043   9.995  14.446 -0.2615  0.0949 -0.2298
23519W        W40367   4.448   9.565   3.414  0.1465  0.0758 -0.2777
23520W        W40368   4.257   1.281   4.513 -0.2974  0.3722 -0.3420
23521W        W40369  17.298   0.788   4.076 -0.1855 -0.1441 -0.1341
23522W        W40370  17.138  14.797   2.272 -0.1501 -0.3257  0.0882
23523W        W40371  15.482  15.192   4.172 -0.1226 -0.2223 -0.3399
23524W        W40372  14.561  13.751   0.931 -0.1277  0.2722  0.0194
23525W        W40373   6.223  14.199   5.724 -0.0988  0.1893 -0.0966
23526W        W40374  13.822  11.206  15.067  0.3867  0.2303  0.3644
23527W        W40375  13.253   6.746   1.077  0.2304 -0.0249 -0.0031
23528W        W40376  10.297  10.025  11.005 -0.1534 -0.1582 -0.2403
23529W        W40377  10.884   5.094   1.213  0.0504  0.1065  0.1084
23530W        W40378   1.424  12.221  15.062 -0.0011 -0.0010 -0.0391
23531W        W40379  14.662  10.121   2.144  0.3001  0.0660  0.2973
23532W        W40380   0.038   7.343   2.135 -0.0198  0.0887 -0.4366
23533W        W40381   3.302  13.201   0.596  0.3579  0.1460  0.1689
23534W        W40382   3.077   5.604  14.714 -0.1889 -0.1685 -0.0623
23535W        W40383   2.376   3.461  14.766  0.0928  0.1887 -0.1072
23536W        W40384   3.284  13.249  13.194 -0.1325  0.0692  0.1712
23537W        W40385   0.929  11.427   3.671  0.3485  0.0466  0.0163
23538W        W40386   9.277  13.942   4.212  0.3027  0.4426 -0.2113
23539W        W40387  11.333   3.977   2.639 -0.1786  0.2178  0.2240
23540W        W40388   9.157   4.609  14.470  0.2144  0.0746  0.1818
23541W        W40389   8.375  16.597  12.238  0.1648 -0.1723  0.4214
23542W        W40390   6.602  16.680  14.629  0.0553  0.4676  0.1274
23543W        W40391   2.027   6.961   5.024  0.0383 -0.0410 -0.0740
23544W        W40392   4.501  16.631  11.342 -0.0733 -0.0381  0.1361
23545W        W40393   0.221   6.319  14.827 -0.2320  0.3534  0.0044
23546W        W40394   6.439  11.899  13.330 -0.3127 -0.0230 -0.2449
23547W        W40395   1.600   2.440   1.884  0.1393  0.0169 -0.3900
23548W        W40396  14.675  14.050  11.861  0.2430 -0.4494  0.3199
23549W        W40397   1.369   3.498   0.058 -0.0605 -0.1495 -0.1702
23550W        W40398  15.604  11.576  11.851 -0.1066 -0.1672  0.0061
23551W        W40399   5.590   8.910   5.933  0.1304 -0.1136 -0.0373
23552W        W40400  15.750   8.168   5.040  0.1483  0.1008 -0.1864
23553W        W40401   3.327   5.386  13.690  0.1378  0.2024  0.1967
23554W        W40402  11.144  14.327  12.135 -0.0471  0.0674 -0.0343
23555W        W40403   1.551  11.239  15.589 -0.0911 -0.0769  0.0261
23556W        W40404  14.118   1.763  12.168 -0.2362 -0.0173 -0.1540
23557W        W40405  11.106  14.658   2.277 -0.0468 -0.0574  0.0884
23558W        W40406   5.215   7.756  15.812  0.0129 -0.0002 -0.1200
23559W        W40407   2.300  15.140  11.703 -0.2551 -0.2749 -0.2150
23560W        W40408  12.553   4.908   5.278  0.0774  0.3480  0.1599
23561W        W40409  17.602   7.013  12.961  0.2201 -0.0959  0.0966
23562W        W40410   7.267   6.924   1.026  0.0301  0.2187  0.0382
23563W        W40411   4.947  10.773   1.951  0.2841 -0.1618  0.1952
23564W        W40412   9.520   7.076   3.005  0.2088 -0.3348 -0.0016
23565W        W40413   3.405   3.275  14.889  0.1651 -0.0607  0.1356
23566W        W40414   6.792   6.488   0.054  0.3167 -0.1304 -0.1161
23567W        W40415   4.147  16.183   2.147  0.1185 -0.3089  0.0831
23568W        W40416  16.416  10.637  12.530  0.5586 -0.1009 -0.0240
23569W        W40417  14.497  10.188   4.166 -0.0885  0.0863 -0.1008
23570W        W40418  17.589  11.784   1.967  0.2017  0.0918  0.0069
23571W        W40419   1.367   9.510   6.519 -0.2842  0.1468 -0.0124
23572W        W40420  11.233   0.327  11.998 -0.0202 -0.0696  0.0919
23573W        W40421   6.155   5.769  13.576 -0.1954  0.0871  0.3141
23574W        W40422   0.108  17.370   4.363  0.2544  0.0247 -0.0045
23575W        W40423   6.955  13.931   1.209  0.1567  0.2336  0.2319
23576W        W40424   4.618   7.635   1.922 -0.0643 -0.1718 -0.2270
23577W        W40425  16.961   6.023  12.885  0.0071 -0.0199  0.0637
23578W        W40426   1.974  12.857   0.654 -0.0761  0.2920 -0.0317
23579W        W40427   5.626   2.708   2.453  0.2084  0.2838 -0.2239
23580W        W40428  12.806   5.068   1.904  0.2998 -0.2741  0.3182
23581W        W40429  15.949   2.617   4.722 -0.0650 -0.0077 -0.0398
23582W        W40430  17.558   0.545  16.263 -0.1311  0.2381 -0.0692
23583W        W40431   4.291   0.211   0.745 -0.1292  0.0186 -0.1051
23584W        W40432  12.982   8.467   0.783 -0.1405  0.1296 -0.0104
23585W        W40433   5.951  16.967   0.704  0.1074 -0.1444 -0.3707
23586W        W40434  10.566   3.132   4.568 -0.0674  0.3499  0.1950
23587W        W40435  10.990  17.232   4.148  0.1446 -0.1220 -0.2381
23588W        W40436  14.531   9.864  12.608 -0.3127  0.0162 -0.1699
23589W        W40437   2.819   4.745   1.453 -0.2224 -0.0540  0.1998
23590W        W40438  16.955   1.108   0.940  0.0694 -0.0438 -0.0282
23591W        W40439   5.166   2.494   2.529 -0.1619  0.1463 -0.2264
23592W        W40440  11.918   1.665  13.888  0.2722  0.2765 -0.1830
23593W        W40441  16.501   2.780  16.497  0.0673  0.0682  0.0916
23594W        W40442   1.024  14.849  16.475 -0.1001  0.1627 -0.0888
23595W        W40443   9.073  14.927   3.264 -0.1647 -0.3934  0.1307
23596W        W40444   9.615   4.718  14.805 -0.2144 -0.0132  0.2190
23597W        W40445   3.473   0.027   5.372 -0.1224 -0.1319 -0.2418
23598W        W40446   2.876  12.143  15.134  0.0971 -0.0855 -0.0769
23599W        W40447  11.710  15.419   2.455 -0.0907 -0.0099  0.3290
23600W        W40448  12.339  15.950   1.875  0.0402 -0.0400  0.0122
23601W        W40449   5.208   8.168  15.495  0.0782 -0.0624 -0.0226
23602W        W40450  15.797   2.825   2.985  0.1815  0.2707 -0.2724
23603W        W40451  10.803   3.747   1.827 -0.2078 -0.0410  0.1212
23604W        W40452  13.501  14.914   2.227 -0.0931  0.1576 -0.2544
23605W        W40453  13.306   2.509   3.603  0.0946  0.2863  0.1676
23606W        W40454   9.032  16.249  15.828  0.1151 -0.2325  0.0381
23607W        W40455  15.975   2.769  16.627 -0.1241  0.0744 -0.2852
23608W        W40456   0.363   0.845   1.119 -0.3337  0.0807  0.2215
23609W        W40457   9.709   9.120  15.938  0.1518  0.4168 -0.0281
23610W        W40458   8.229  11.323  12.798 -0.0281 -0.2116  0.1668
23611W        W40459  12.164   2.915   2.410  0.3112 -0.0984  0.0584
23612W        W40460   1.498   1.814   3.876  0.0787  0.0228  0.0202
23613W        W40461  11.485   8.921  13.223  0.2414  0.2883  0.1983
23614W        W40462  11.702   5.856   0.382 -0.0855 -0.0958  0.2573
23615W        W40463   6.865  11.567   1.626 -0.0647  0.0675  0.1292
23616W        W40464  14.296   2.574  13.690  0.0351  0.0583 -0.0923
23617W        W40465  13.150   8.776  15.047 -0.1526 -0.0640 -0.2692
23618W        W40466   7.126   7.126  12.875 -0.0381 -0.0364 -0.0891
23619W        W40467  14.829   0.059   4.127  0.0920  0.2024  0.1379
23620W        W40468   8.793  14.954   1.688 -0.0542  0.2313 -0.0173
23621W        W40469   8.009   4.641   4.475  0.0798  0.2007  0.2313
23622W        W40470   7.679   7.914  13.210  0.2268 -0.2222  0.0711
23623W        W40471   7.505   7.565   4.851 -0.0547 -0.0573  0.1250
23624W        W40472   5.376  11.928   0.217  0.0425  0.1181 -0.2189
23625W        W40473   1.476   7.646  12.291  0.2742  0.1742 -0.0261
23626W        W40474   5.462  13.766   0.230  0.0455  0.0768 -0.2383
23627W        W40475  15.287   5.841   2.141  0.3406  0.1010 -0.0025
23628W        W40476  14.458  11.193  16.199  0.3663  0.0086  0.1051
23629W        W40477   6.572   2.321   4.828 -0.1247 -0.1080 -0.1829
23630W        W40478   0.564   4.531  14.101  0.2814 -0.2353 -0.0132
23631W        W40479  16.073  14.017  12.907 -0.0505 -0.0699 -0.0389
23632W        W40480  13.508   2.205  15.608  0.1163 -0.0664 -0.0928
23633W        W40481   5.552  13.317   0.411  0.1457  0.2398 -0.0329
23634W        W40482   9.909  15.063   2.230  0.2084  0.1589 -0.4167
23635W        W40483   3.657   9.154  11.483  0.0758  0.2287 -0.0304
23636W        W40484   4.070   4.832   2.844 -0.0468  0.3868  0.0491
23637W        W40485   1.347   5.204   1.226 -0.1839  0.0067  0.0856
23638W        W40486   5.777   6.228   2.532 -0.0980  0.0429  0.0904
23639W        W40487  16.680   0.080   1.187  0.0810  0.0178 -0.0064
23640W        W40488   4.355  11.129   2.963  0.2278  0.4368 -0.2545
23641W        W40489   3.534  15.098  15.187  0.2708  0.0079  0.0923
23642W        W40490  14.299  13.154   4.282  0.0419  0.1750 -0.0153
23643W        W40491  12.956   2.975  16.194  0.2173  0.1785 -0.1455
23644W        W40492   1.110   7.323  15.542  0.2012 -0.1494 -0.0274
23645W        W40493  11.724  15.700  13.614  0.0839  0.1354 -0.0504
23646W        W40494   9.885  12.293  12.893 -0.1031 -0.1996  0.0317
23647W        W40495  16.698   3.378   3.835  0.0304  0.0456  0.1423
23648W        W40496  15.004   5.716   5.224 -0.0838  0.0146 -0.4030
23649W        W40497  15.276   0.655   5.056  0.1551 -0.1032 -0.0625
23650W        W40498   2.104  17.592   4.030 -0.2146  0.1352  0.0287
23651W        W40499  16.308   3.187  12.872  0.0143 -0.0341  0.3403
23652W        W40500   3.515  16.826   3.997 -0.4987 -0.1681 -0.4675
23653W        W40501   9.922  17.267   5.684 -0.2777  0.2219  0.1134
23654W        W40502   0.812   4.218   1.908  0.1688  0.0544 -0.0563
23655W        W40503  17.189   4.180   5.315 -0.3735  0.0897  0.2251
23656W        W40504   9.924  15.376  12.458 -0.0869  0.1015 -0.0924
23657W        W40505   5.948   1.531  13.474  0.0130 -0.2834 -0.0998
23658W        W40506  16.351  16.889   1.029  0.0345 -0.0575  0.1379
23659W        W40507   2.999  14.278   1.437 -0.0331  0.1005  0.0595
23660W        W40508   1.275   4.396  13.544  0.0417  0.0825 -0.0344
23661W        W40509  13.604   9.277  16.022  0.2326 -0.2237  0.2407
23662W        W40510  14.329  12.890  14.883 -0.0214  0.0242 -0.0275
23663W        W40511   6.643  16.872   3.767 -0.1291 -0.1357 -0.1050
23664W        W40512  16.162  11.255  13.786 -0.0777 -0.1902  0.0911
23665W        W40513   7.245  11.634  14.088 -0.0362 -0.1765  0.0069
23666W        W40514   4.224   3.389  12.878 -0.0848  0.1083 -0.0351
23667W        W40515   3.322   4.112   0.958  0.3625 -0.0493 -0.2217
23668W        W40516   8.669  13.032   4.199 -0.1928 -0.0545  0.3631
23669W        W40517   5.026   6.655  10.697  0.2445  0.1183  0.2298
23670W        W40518   2.007   2.184   6.181  0.0936 -0.2535 -0.3057
23671W        W40519  12.306  15.517  14.744 -0.2297 -0.0855  0.0650
23672W        W40520   9.687   9.842  13.716  0.0589  0.2062  0.2208
23673W        W40521  16.817   7.246   0.434  0.0959 -0.0470 -0.4843
23674W        W40522   4.164   6.681   4.816 -0.1310  0.0681 -0.0083
23675W        W40523  15.136  14.373  11.959  0.0191  0.1736 -0.0974
23676W        W40524  15.278  11.968   1.172  0.0113 -0.0735  0.1875
23677W        W40525  10.707  10.458  14.361  0.3668 -0.1667  0.1974
23678W        W40526  15.206   3.016  16.304 -0.0653 -0.4353 -0.2054
23679W        W40527   0.040   9.986   0.269 -0.0697  0.2847 -0.0454
23680W        W40528   8.650  13.212   2.450  0.1937  0.2411 -0.2418
23681W        W40529   1.650  13.211  11.309 -0.1307 -0.0138  0.1248
23682W        W40530   1.345   3.987  13.954  0.1124  0.1780 -0.3314
23683W        W40531   9.309   5.828  14.441 -0.0793  0.3579 -0.0727
23684W        W40532   2.957  10.312  11.145  0.0183 -0.0416  0.0203
23685W        W40533   2.817   9.749   3.562 -0.3116 -0.0400 -0.0366
23686W        W40534   5.559   6.234   5.511 -0.1013  0.1778 -0.1515
23687W        W40535   8.503  10.433  11.185  0.0699  0.0006 -0.2258
23688W        W40536  10.752   7.102   0.385  0.1335 -0.0097  0.0142
23689W        W40537  13.646  14.027   4.892  0.0070  0.1071  0.0217
23690W        W40538  12.526   4.680   2.612  0.0695  0.2060  0.1958
23691W        W40539   4.486   7.672  10.755  0.1714  0.0131  0.0571
23692W        W40540  11.735  12.188  12.761 -0.3465 -0.0451  0.0511
23693W        W40541   1.368   1.952  10.942  0.2494 -0.1641 -0.1060
23694W        W40542   2.868  16.767   3.362 -0.1237  0.1194  0.2048
23695W        W40543   6.832  11.789  12.095  0.1953  0.1929  0.2397
23696W        W40544  14.907  17.383   3.395 -0.0525  0.0325 -0.3676
23697W        W40545  10.507   3.119  14.004 -0.1156  0.1203 -0.1166
23698W        W40546  16.973  15.793   4.840 -0.4664  0.1662 -0.1724
23699W        W40547   5.912   9.415  12.911  0.1779 -0.1960 -0.0090
23700W        W40548   2.247   5.145   0.885 -0.1225  0.3445  0.3084
23701W        W40549   9.029  12.959  12.328 -0.0443 -0.0856  0.1195
23702W        W40550   3.091   5.377   0.890 -0.2464 -0.0150  0.3067
23703W        W40551  13.727   4.532  12.633 -0.0054  0.0158 -0.1399
23704W        W40552  12.657   3.229   3.061  0.2187  0.2093 -0.0549
23705W        W40553   9.630  17.194  15.135  0.0935 -0.2111 -0.0990
23706W        W40554   4.134   8.048   0.761 -0.0556  0.2677 -0.1370
23707W        W40555  14.517  14.084   2.299  0.2750 -0.2197  0.0335
23708W        W40556   5.237  13.387  15.101  0.0281 -0.0089 -0.1339
23709W        W40557   9.596   4.904   2.932 -0.1425  0.0138  0.0667
23710W        W40558  12.449   6.750  12.963  0.1684  0.3472 -0.0400
23711W        W40559  16.508   8.195   3.273  0.0392  0.0327 -0.0937
23712W        W40560   8.681  10.926   4.167 -0.0126 -0.0527 -0.0169
23713W        W40561   5.146  13.148  13.721  0.0578  0.0044 -0.5233
23714W        W40562   6.096   2.375  13.848  0.2278 -0.1048 -0.4569
23715W        W40563  13.895   5.349  12.958 -0.0461  0.3078 -0.0463
23716W        W40564   2.305  14.272  10.536  0.2484 -0.0120 -0.0099
23717W        W40565  13.412  17.241  11.774  0.2507  0.1731 -0.0796
23718W        W40566   1.637  15.371  12.573  0.0365  0.0421 -0.1765
23719W        W40567   2.852  13.448   5.566  0.1732  0.1290  0.2105
23720W        W40568   6.157  11.232  12.956 -0.1063 -0.0227 -0.1972
23721W        W40569  15.703   7.295  12.673 -0.0904  0.2676  0.1470
23722W        W40570  10.584   9.845   3.619  0.0022 -0.1687  0.0707
23723W        W40571   0.694  15.606  12.311 -0.2138  0.0735 -0.1921
23724W        W40572  16.233  13.571   5.115 -0.0554  0.2847  0.1169
23725W        W40573  10.378   8.878   0.567  0.1382 -0.0309  0.0927
23726W        W40574   2.743   1.414   3.438 -0.3139  0.1124  0.1510
23727W        W40575   5.592  10.226   5.156 -0.3397 -0.3083  0.0912
23728W        W40576   4.323   4.631  12.194  0.0536 -0.0830 -0.0669
23729W        W40577   3.327   6.096  13.822 -0.1697  0.0663  0.0539
23730W        W40578  11.104  13.073   3.734  0.1216  0.2858  0.1070
23731W        W40579  14.989   9.735   2.855  0.3882 -0.0441 -0.1179
23732W        W40580   4.287  16.791  16.101  0.3541  0.0929 -0.1470
23733W        W40581   2.950  15.423   0.384  0.1105  0.2189  0.0497
23734W        W40582   7.946  12.443   2.319  0.0245 -0.1621 -0.0953
23735W        W40583  13.355   6.797  10.885 -0.2480 -0.0370  0.1077
23736W        W40584  14.899  14.951  16.298  0.1852 -0.1084  0.1492
23737W        W40585   7.516  13.858  16.451  0.1343 -0.2572  0.1538
23738W        W40586   8.919   9.369  12.819 -0.0029  0.2145  0.0434
23739W        W40587  17.379   2.533   4.698 -0.0343  0.0376 -0.0411
23740W        W40588  17.052   2.740  12.271  0.1721  0.3861 -0.0552
23741W        W40589  16.639  13.992   0.483  0.1803 -0.0107 -0.3254
23742W        W40590   9.388   6.174   2.032  0.2053 -0.2385 -0.0324
23743W        W40591  15.405   8.842  14.057 -0.0395 -0.0268 -0.0440
23744W        W40592   4.267   8.979   1.659 -0.3175  0.2329 -0.0039
23745W        W40593  12.449   4.223   3.293 -0.0254  0.0457 -0.3805
23746W        W40594  15.446   4.931   0.021 -0.2774 -0.0119  0.0400
23747W        W40595  13.509   8.336   4.715  0.0368 -0.1022  0.1535
23748W        W40596  13.987  12.009   0.401  0.1731 -0.0257 -0.1465
23749W        W40597   0.290  10.156  11.050 -0.0503  0.0717 -0.0702
23750W        W40598   8.428   6.241   4.931 -0.0244  0.1376 -0.1070
23751W        W40599  12.919   9.900   2.699  0.1267  0.1692  0.0833
23752W        W40600   2.062  10.702   4.728 -0.0290 -0.1823 -0.0815
23753W        W40601  10.894  10.672   4.860 -0.0785  0.0009 -0.0268
23754W        W40602   3.809   8.668   0.201 -0.0980  0.2222 -0.0721
23755W        W40603  12.189  15.669   2.425 -0.0430 -0.0867  0.1849
23756W        W40604   8.325   9.982  16.249  0.4056 -0.0265 -0.0251
23757W        W40605  13.307   1.948  13.790  0.0087 -0.0848 -0.1583
23758W        W40606   8.766  16.869   0.319 -0.0439  0.3059 -0.0866
23759W        W40607   5.215  13.387  16.012  0.2330 -0.2339  0.0376
23760W        W40608   4.064   8.661   1.957 -0.1827 -0.3382  0.0598
23761W        W40609  12.661  15.702   5.357 -0.1585 -0.1443  0.3768
23762W        W40610   7.281  13.768   4.388  0.0188  0.2325 -0.0874
23763W        W40611  13.060   1.652   1.506 -0.1477 -0.2835  0.1209
23764W        W40612  17.514  13.588  12.338 -0.1586 -0.1386  0.3112
23765W        W40613   3.039  15.644  11.564  0.4059  0.0913  0.1274
23766W        W40614  16.967   9.668   1.893 -0.0488 -0.0159  0.0196
23767W        W40615   5.652   0.366   1.157 -0.1036 -0.1426  0.0644
23768W        W40616   2.242   0.320  11.855  0.1424  0.5680 -0.0511
23769W        W40617   4.923  10.351   1.173  0.2430  0.2522  0.2150
23770W        W40618  11.749  10.532  13.637 -0.0683  0.1134 -0.2013
23771W        W40619   2.107  11.349   3.384  0.1035  0.1358  0.0708
23772W        W40620   9.538  17.394   1.533 -0.0405 -0.1490  0.0291
23773W        W40621  16.819   0.710   1.820 -0.1297  0.0184  0.0596
23774W        W40622  16.540  15.565   2.921  0.0183  0.1422 -0.0178
23775W        W40623   7.916  15.737  11.888  0.0947  0.1407 -0.5655
23776W        W40624   6.624  13.670   4.380  0.0748  0.1655 -0.1762
23777W        W40625   3.339  17.485   1.067  0.0653 -0.1151 -0.1702
23778W        W40626   3.288  13.596   3.369  0.0137 -0.2366  0.1437
23779W        W40627  14.664  10.593   1.860 -0.2038  0.1332 -0.0775
23780W        W40628   8.477   4.398   0.807  0.1607  0.0759  0.0549
23781W        W40629  10.776   0.693  12.544 -0.0183  0.0233  0.2309
23782W        W40630   1.629   9.727  11.261 -0.3240  0.1966 -0.0797
23783W        W40631   5.614   9.575  13.398 -0.0757  0.1057 -0.3334
23784W        W40632  17.042  17.677   4.020  0.1789 -0.0527  0.1574
23785W        W40633  15.694  13.480  12.478  0.0482 -0.0200  0.1205
23786W        W40634   0.409   4.099   4.734  0.0225 -0.1867  0.1367
23787W        W40635   5.937   3.447   4.727 -0.3258 -0.2854  0.3029
23788W        W40636   4.837  17.317   5.183  0.1031  0.1433  0.1987
23789W        W40637   2.054   3.568   4.451  0.0282 -0.2131  0.0707
23790W        W40638  13.541   4.589   0.231 -0.2662 -0.2063 -0.0870
23791W        W40639   1.559   4.877  16.052  0.2484  0.2946  0.0687
23792W        W40640  17.490  14.178   3.408 -0.1619 -0.1014  0.1209
23793W        W40641   4.028  14.091  14.221  0.1518 -0.1266 -0.0864
23794W        W40642  15.909  12.058   3.330 -0.0147  0.1031  0.3787
23795W        W40643  16.339  10.658  14.678  0.0248 -0.0275 -0.2117
23796W        W40644   2.529  17.448  15.195 -0.0288 -0.0173 -0.0872
23797W        W40645   7.924   0.646   1.792 -0.0220  0.3163 -0.3293
23798W        W40646   3.385   3.504   0.061 -0.1160  0.2223  0.2054
23799W        W40647   7.049   2.344  13.381 -0.3396  0.2339 -0.1004
23800W        W40648   1.746  17.472   4.796  0.4031 -0.0113 -0.0083
23801W        W40649   0.312  11.787   2.232 -0.1862  0.3071 -0.0461
23802W        W40650  15.304  16.220   4.005  0.1847  0.3209 -0.2214
23803W        W40651   3.967  11.016  16.176 -0.1388  0.0940  0.0243
23804W        W40652   2.575  12.777   5.372  0.1721 -0.0028 -0.1697
23805W        W40653  13.633   3.431  13.543  0.0227  0.0087  0.0219
23806W        W40654  11.499   7.814  16.171  0.1418  0.4235 -0.0345
23807W        W40655  13.829   2.031  13.131  0.2153 -0.0391  0.1050
23808W        W40656   5.493   3.322   3.667 -0.1428 -0.0593 -0.1128
23809W        W40657   5.066   3.802  10.636 -0.0761 -0.0417  0.1927
23810W        W40658   1.816   0.693   0.497 -0.0745  0.3946 -0.0919
23811W        W40659   4.362  11.095  14.311  0.1869  0.3893  0.0172
23812W        W40660  11.140  13.990  16.055  0.2924  0.2554 -0.2051
23813W        W40661   3.854  10.290   0.767  0.2122  0.0357  0.1534
23814W        W40662  14.940   3.041   4.689  0.2558  0.0966 -0.0370
23815W        W40663   6.875   6.053   0.996  0.1832 -0.0792 -0.0259
23816W        W40664   4.980  14.453  14.397 -0.0985 -0.2623 -0.3328
23817W        W40665   1.636  12.803   6.136 -0.2678 -0.1808 -0.0411
23818W        W40666  12.873   4.556  12.111 -0.0611 -0.0729 -0.3637
23819W        W40667   2.684   3.878   2.865  0.2639  0.0300  0.1413
23820W        W40668   2.287   6.937  15.228 -0.2721 -0.1364  0.3411
23821W        W40669   2.225  10.199   1.375  0.1188 -0.0281 -0.2869
23822W        W40670  11.627   8.695  10.879 -0.1721  0.0180 -0.3612
23823W        W40671  12.367   7.725   2.259  0.0773  0.0120  0.0446
23824W        W40672   6.208  15.893   1.346  0.3002  0.0924  0.0069
23825W        W40673  12.587  12.165   2.863 -0.2582 -0.2473 -0.2319
23826W        W40674   7.039   2.165   6.706  0.1702  0.0048  0.0022
23827W        W40675  14.818  13.676  15.636  0.0514 -0.0784  0.1404
23828W        W40676   2.286   8.704   1.849  0.1632  0.0957 -0.1609
23829W        W40677   0.820   8.879  14.343  0.1181 -0.0943  0.0562
23830W        W40678  10.054   0.056   5.624 -0.2180  0.0814 -0.1163
23831W        W40679  11.775  16.566   4.616  0.0341 -0.1190 -0.2477
23832W        W40680  10.241   8.265  13.312  0.1117  0.2226  0.1208
23833W        W40681   8.375   1.834   4.668  0.1929 -0.1522 -0.0225
23834W        W40682  14.926   5.484  14.256  0.3369  0.2345  0.0155
23835W        W40683   1.556  16.104  12.569  0.2692 -0.2731 -0.0208
23836W        W40684  15.606  11.933  14.871  0.2108  0.1327  0.1849
23837W        W40685   8.464   8.593   3.450  0.0605 -0.2432 -0.1323
23838W        W40686  12.472   1.911   2.325 -0.0926  0.0384  0.1093
23839W        W40687   8.689   9.101   4.313 -0.1294 -0.2037 -0.0693
23840W        W40688   8.352  14.596  12.320  0.0146 -0.3049  0.0941
23841W        W40689   9.086  13.338   4.175  0.1051  0.0573 -0.0538
23842W        W40690   6.113  11.360  12.486  0.1139  0.0365 -0.1482
23843W        W40691   8.878   3.216   4.584 -0.0550 -0.0486  0.1588
23844W        W40692  16.959   1.207  14.752  0.1043 -0.0446 -0.0505
23845W        W40693   2.681   0.033  13.718  0.1222  0.1928  0.0785
23846W        W40694   6.446   4.174  14.561 -0.1425 -0.0333 -0.2339
23847W        W40695  13.984   1.813  13.676 -0.0378 -0.0795  0.1036
23848W        W40696   1.055   3.910  10.913  0.0681 -0.0553  0.0549
23849W        W40697  13.348  11.393   3.082  0.0490 -0.1451 -0.0830
23850W        W40698   6.861   5.672   6.133  0.0868  0.2167 -0.3194
23851W        W40699  16.140   6.388  13.296 -0.1935 -0.1049  0.2228
23852W        W40700  11.263  11.421  14.355  0.1008  0.1208  0.2422
23853W        W40701  13.982   4.579  16.582  0.2784  0.1835 -0.0224
23854W        W40702  16.796   4.378   4.916 -0.1651  0.0944  0.2034
23855W        W40703  14.132  16.733   4.338 -0.3201 -0.0621 -0.0492
23856W        W40704  15.422  14.866   0.469  0.2008  0.2484  0.1409
23857W        W40705   8.097  15.762   3.279 -0.1023 -0.0057 -0.0733
23858W        W40706  12.373  14.650   3.965 -0.1333 -0.2617 -0.3739
23859W        W40707   6.611  15.830   5.360 -0.2869  0.1194  0.2553
23860W        W40708   4.874  15.640  14.845 -0.1774 -0.2268  0.1226
23861W        W40709  13.739  12.754   3.053  0.1367 -0.3299  0.0255
23862W        W40710  16.019   3.596   5.362 -0.2649  0.1294 -0.2784
23863W        W40711  12.671  11.614   0.785 -0.2192  0.2298  0.1810
23864W        W40712   8.959  11.669   0.898 -0.0038  0.1717  0.1702
23865W        W40713  13.991   1.365  15.543 -0.0474 -0.0885  0.0767
23866W        W40714   8.696  12.090   3.088  0.2420 -0.0943 -0.3173
23867W        W40715  11.107  11.951   0.714 -0.1369 -0.1032  0.0398
23868W        W40716   0.423   8.428   4.658  0.1493 -0.1065  0.1084
23869W        W40717   9.007   6.260   0.160 -0.1713 -0.1219 -0.2422
23870W        W40718   0.465   3.186  13.122  0.3383 -0.1578 -0.4198
23871W        W40719   8.176   6.725   4.775 -0.0264 -0.0915 -0.1071
23872W        W40720  17.558  16.341   1.635 -0.3378  0.2778 -0.0262
23873W        W40721  14.552   2.731  11.715  0.1540 -0.1623 -0.0952
23874W        W40722  14.593  15.517  15.850  0.1945  0.3124 -0.1897
23875W        W40723   1.056   5.005  15.179  0.0643  0.0606 -0.2915
23876W        W40724   5.576  17.064  13.793 -0.0932  0.0731 -0.1113
23877W        W40725   2.561  14.614  14.951 -0.1622  0.2494 -0.2383
23878W        W40726  12.838   2.356   3.437 -0.2024  0.1481 -0.1883
23879W        W40727   8.760  13.598  12.429  0.2009 -0.0970 -0.1431
23880W        W40728  11.397  12.689   4.559  0.1162 -0.3627 -0.0533
23881W        W40729   6.859   5.504   3.713 -0.1715 -0.1406  0.1334
23882W        W40730   0.893   1.979  13.571 -0.0339 -0.0040 -0.1019
23883W        W40731   8.899   8.710   2.701  0.0187  0.1730 -0.2478
23884W        W40732   4.235  15.318   4.688  0.1034  0.0097  0.1646
23885W        W40733  17.217   7.358   1.947 -0.0489  0.1206  0.2016
23886W        W40734   1.987   9.622   4.581 -0.0048  0.0658  0.1763
23887W        W40735   7.724   6.590  15.602 -0.0934  0.1998  0.0465
23888W        W40736  17.082   6.134  13.997  0.0742 -0.2901 -0.2548
23889W        W40737   6.919   5.523  12.239 -0.1083 -0.1327  0.3074
23890W        W40738   9.132  14.886   2.131  0.1135  0.3178 -0.0526
23891W        W40739  10.795   9.125   0.709  0.2797 -0.0592 -0.2855
23892W        W40740  15.078  12.076   4.250 -0.1754  0.0670  0.0830
23893W        W40741  12.009   3.882  11.210  0.0187  0.0271 -0.0674
23894W        W40742  12.076  12.747   3.349  0.0914 -0.0955  0.0289
23895W        W40743   0.054   5.506  11.870  0.1909 -0.4996  0.0806
23896W        W40744  13.721   2.640  15.743 -0.1289 -0.1522 -0.3504
23897W        W40745   3.981  14.186  16.573  0.0912 -0.1458 -0.2167
23898W        W40746  16.619   5.241   4.501  0.1382  0.1038  0.0055
23899W        W40747  13.751  12.290   1.503  0.0126 -0.1114  0.4466
23900W        W40748   3.594  13.858  15.467 -0.2347  0.0817  0.0846
23901W        W40749  14.694  13.429   1.818 -0.4308 -0.0754 -0.0731
23902W        W40750   0.782   0.672  13.270  0.0595 -0.0047  0.1181
23903W        W40751  11.191  13.310   4.405  0.1602 -0.0708  0.1124
23904W        W40752   3.713   3.709  11.159  0.0150 -0.1581 -0.0788
23905W        W40753  11.133  15.517  15.448  0.0409  0.2298 -0.0852
23906W        W40754   9.362  11.612   1.184 -0.0227 -0.0686 -0.0017
23907W        W40755   1.265   7.581   1.977 -0.0813  0.1163  0.0607
23908W        W40756   8.335   9.239   0.096  0.1201 -0.0988 -0.0659
23909W        W40757   7.835  17.645   2.411 -0.2775 -0.0156  0.1221
23910W        W40758  10.767   3.988   2.300 -0.3349 -0.1145  0.2443
23911W        W40759   8.684  12.727   2.703 -0.2780  0.1366 -0.0562
23912W        W40760   0.798  17.321   2.668 -0.1852 -0.0060 -0.1957
23913W        W40761  16.497   1.280   0.695 -0.0263  0.1340 -0.2474
23914W        W40762   9.370   9.692   0.754 -0.0406 -0.0221 -0.1202
23915W        W40763   2.300   3.799  11.640 -0.2828  0.0659  0.0809
23916W        W40764   2.980  12.958   3.293 -0.1131  0.0207 -0.0061
23917W        W40765   8.940  11.408  13.677  0.1981  0.0501  0.1046
23918W        W40766  14.314   7.561  11.230 -0.0509  0.0646  0.2142
23919W        W40767  13.952  16.977  15.183 -0.1040 -0.0683 -0.0684
23920W        W40768   0.364   9.739  12.495  0.1669 -0.1857 -0.0904
23921W        W40769   2.832  12.116   1.830  0.1038 -0.2281  0.1900
23922W        W40770   2.395   9.154  11.254  0.0470 -0.2542  0.1405
23923W        W40771   5.610  11.227  11.869  0.0854  0.1163  0.0914
23924W        W40772  11.743   3.475   1.524 -0.1740  0.0440 -0.1016
23925W        W40773  14.041   5.951  12.145  0.0114 -0.1088  0.0200
23926W        W40774  10.272   0.676  13.438 -0.1284 -0.1288 -0.2613
23927W        W40775   5.001   5.339   1.711 -0.1416  0.1209  0.2619
23928W        W40776   1.733  17.152   0.518 -0.0135  0.0435 -0.0553
23929W        W40777  16.761   9.967  11.332  0.2279  0.2400  0.0010
23930W        W40778   4.788  13.989  15.517 -0.2425 -0.2183 -0.1390
23931W        W40779  14.868  15.982   4.868  0.0453  0.0366  0.0930
23932W        W40780  15.575   8.034   2.196 -0.2714  0.1633 -0.0926
23933W        W40781   9.616   7.793  15.786 -0.2544 -0.4133  0.1636
23934W        W40782   0.944   8.716   4.422  0.2006  0.1346 -0.0371
23935W        W40783  15.009   6.241   4.372 -0.1508  0.1916 -0.2944
23936W        W40784  17.336   8.253  12.576 -0.0809 -0.2957  0.2170
23937W        W40785   1.628   5.440   5.230 -0.2012  0.0634  0.0941
23938W        W40786  12.990  17.642  12.989 -0.1265  0.2239 -0.0608
23939W        W40787   6.008  10.743  14.073 -0.0262  0.1727  0.0311
23940W        W40788   3.636   9.886   2.475 -0.0893  0.2205 -0.3518
23941W        W40789   9.844   2.120   1.885  0.2407 -0.2595  0.0083
23942W        W40790   6.485   6.335  15.879  0.0536  0.3592  0.0828
23943W        W40791  13.652  16.672  13.820  0.0538  0.0148 -0.0727
23944W        W40792   4.847   9.123  12.201 -0.0914  0.2926 -0.1677
23945W        W40793  15.429  13.803   0.363  0.1703 -0.2753  0.3098
23946W        W40794   8.590  14.204  11.063 -0.2593 -0.2234 -0.0741
23947W        W40795   9.876  10.493   1.655 -0.1022 -0.1251 -0.2105
23948W        W40796  14.799   2.422  10.628 -0.1415  0.0260 -0.1265
23949W        W40797   2.893   5.226  12.773  0.0495  0.1654  0.1274
23950W        W40798  16.988   5.031   5.061  0.2265  0.0908  0.1026
23951W        W40799  10.924   2.497   0.112  0.0860 -0.2570  0.1067
23952W        W40800  11.251  16.045   1.394  0.1671 -0.2337  0.0311
23953W        W40801   5.820  16.174   3.455 -0.1174 -0.0080  0.0609
23954W        W40802   5.825  12.779  13.481 -0.0512 -0.3104 -0.3472
23955W        W40803   7.418   4.488   2.771 -0.0651 -0.3945  0.0173
23956W        W40804   8.453   2.628   1.994 -0.2988  0.1191 -0.0402
23957W        W40805  13.346   6.909  12.100 -0.1446 -0.2807 -0.3169
23958W        W40806   8.550   3.504  13.557 -0.0827 -0.1823  0.0689
23959W        W40807  10.150  12.082  13.808  0.4027  0.1467 -0.1815
23960W        W40808   0.084   9.222  13.363  0.1101  0.0504  0.1867
23961W        W40809   9.627   3.181   5.301 -0.0796  0.2548  0.1775
23962W        W40810  11.345   9.611   1.067  0.1750 -0.1496 -0.1757
23963W        W40811   2.088  10.949  16.417 -0.1772  0.0622 -0.0112
23964W        W40812  17.248  13.205   2.463 -0.1541  0.2997 -0.2270
23965W        W40813  10.082   7.325  11.657 -0.1496 -0.1453 -0.1165
23966W        W40814   2.312   0.495   4.685 -0.2149  0.2409  0.0505
23967W        W40815   5.493   4.363  13.117 -0.0680  0.0678 -0.1997
23968W        W40816  14.091   9.640   5.018 -0.0329  0.0347  0.1230
23969W        W40817  13.383   3.487   2.587  0.1349  0.2824  0.0395
23970W        W40818   5.787   4.260   2.433  0.0294 -0.1964  0.0609
23971W        W40819   1.512   7.584  16.230  0.3338 -0.2541  0.1676
23972W        W40820   0.471   5.683   1.505 -0.0696  0.3143  0.2333
23973W        W40821  10.066  11.341  13.079  0.0122 -0.0927 -0.1130
23974W        W40822   7.061   9.470  14.272  0.1905 -0.1045 -0.0377
23975W        W40823  11.890   2.368  15.907 -0.0851  0.4196 -0.3862
23976W        W40824   8.313   0.760  13.756  0.0428 -0.2308 -0.1321
23977W        W40825  15.552   0.610   4.526 -0.1564  0.0926 -0.2373
23978W        W40826   5.882   2.867  13.953  0.1224 -0.4360 -0.1664
23979W        W40827  15.688   5.900  12.664 -0.1470  0.1174 -0.1585
23980W        W40828   2.205  13.468   1.921 -0.0370  0.2760 -0.0783
23981W        W40829  11.365  10.967   2.550 -0.1747  0.2346 -0.3099
23982W        W40830  16.397  13.738   2.352 -0.0431  0.0346  0.1722
23983W        W40831   8.603   1.806  11.344  0.1045  0.1243  0.1231
23984W        W40832  14.617   2.344  13.380  0.0138 -0.2034 -0.1706
23985W        W40833   4.829   8.796  14.290  0.1346  0.0048  0.0735
23986W        W40834   7.100   2.664   5.401  0.1362 -0.3153 -0.2834
23987W        W40835  10.089   3.777   4.059  0.0940 -0.1287  0.2006
23988W        W40836   2.908  16.177  11.489 -0.3737  0.1386 -0.0670
23989W        W40837   8.372   7.106  10.506  0.1428  0.0182  0.2275
23990W        W40838   1.416   8.901  15.753  0.1276  0.0792  0.2389
23991W        W40839   1.880  10.145   4.500  0.1749  0.1584 -0.1912
23992W        W40840  13.046  13.393  11.854 -0.0268 -0.0853 -0.0787
23993W        W40841   3.099  10.819  11.246  0.0254  0.5022 -0.6503
23994W        W40842   4.395   4.035   1.323  0.0215 -0.2028  0.2906
23995W        W40843  17.190  17.357  14.301 -0.2456 -0.0462 -0.2345
23996W        W40844  13.060  17.072  16.158  0.1900  0.1352 -0.0083
23997W        W40845   7.051   3.644   5.495  0.0434  0.1931 -0.2334
23998W        W40846   4.894   4.652  16.325  0.1641  0.1767 -0.1642
23999W        W40847  15.527   7.108   1.455 -0.3138 -0.2012  0.1012
24000W        W40848  11.053   5.639   0.008  0.2079  0.4087  0.0727
24001W        W40849   4.519   4.503  13.665  0.2313  0.0135 -0.1914
24002W        W40850  13.632   9.313   2.416 -0.1086  0.0391  0.0490
24003W        W40851   7.186   0.810  15.133 -0.0601  0.1404  0.1723
24004W        W40852   9.231   4.806  16.536 -0.2713 -0.1438  0.1286
24005W        W40853  15.212   6.016  13.507 -0.0497  0.0637 -0.2224
24006W        W40854   4.449   1.386  13.478 -0.0998 -0.0315 -0.2251
24007W        W40855  16.802  15.630   4.391 -0.2382 -0.1354  0.0183
24008W        W40856  15.825   1.814   5.539 -0.0382  0.0410  0.2717
24009W        W40857   7.427   6.832  14.950 -0.1154 -0.2390  0.0827
24010W        W40858   7.445   2.031  13.221  0.0177  0.1182  0.0709
24011W        W40859  11.592  12.732   3.515  0.0316  0.2824  0.1719
24012W        W40860   6.167  12.441   2.316  0.0842 -0.0982 -0.3100
24013W        W40861  15.768   2.781   5.149 -0.1380 -0.2144  0.0719
24014W        W40862  10.801   6.289  14.005  0.1307 -0.2680 -0.2501
24015W        W40863   0.052  17.679  11.637  0.2166  0.0285 -0.0127
24016W        W40864  13.342   7.261  16.592 -0.1110  0.2032  0.0076
24017W        W40865  13.733  11.405   0.106 -0.2150  0.4151 -0.3240
24018W        W40866  10.279  10.089   4.589 -0.1248 -0.1748  0.0751
24019W        W40867  13.823  16.571   5.433  0.1814  0.3239  0.1594
24020W        W40868  11.412   4.866   0.244 -0.1785 -0.0754  0.1366
24021W        W40869  13.108  15.624   2.368 -0.0951  0.0232 -0.4063
24022W        W40870  10.934   8.120   2.406  0.1811  0.1949  0.2453
24023W        W40871  14.261  17.126   3.582 -0.2336  0.0810  0.0907
24024W        W40872   0.653   5.510  13.980  0.0688  0.1973 -0.0566
24025W        W40873   8.013  14.020  16.649  0.1631  0.3661  0.0726
24026W        W40874   1.813  10.157   2.497 -0.1926 -0.0672 -0.0197
24027W        W40875  17.700  17.165   2.916 -0.1251  0.0131 -0.1062
24028W        W40876   0.170   5.641  12.418  0.0600 -0.2291 -0.2910
24029W        W40877  17.434  13.894  15.267 -0.0895  0.0401 -0.0314
24030W        W40878   8.766   5.175   1.911 -0.0149 -0.3470  0.2150
24031W        W40879   1.551  11.564   0.219  0.0497  0.1279 -0.2146
24032W        W40880  17.494   4.063  15.243  0.0160 -0.2200  0.0798
24033W        W40881  14.937   0.044  14.099 -0.1195  0.0290  0.1302
24034W        W40882   7.002  11.175   5.373  0.0809 -0.2397 -0.2335
24035W        W40883  14.156  13.355   3.429 -0.0242  0.0397  0.1011
24036W        W40884   2.917  12.652   5.011 -0.0366 -0.1763  0.1684
24037W        W40885   2.418  11.988   4.912  0.1497  0.0327  0.2497
24038W        W40886   7.558  11.687   2.673  0.1470  0.2478  0.1230
24039W        W40887  11.030   9.132   0.225  0.0502 -0.0792  0.1173
24040W        W40888  17.307   1.873  14.813 -0.2962 -0.0786 -0.1481
24041W        W40889  14.228   2.928  12.194 -0.0756  0.0213  0.1401
24042W        W40890  14.457   9.068   4.905 -0.2213  0.0947  0.2075
24043W        W40891   5.678  14.259  15.417  0.1369 -0.1709 -0.0291
24044W        W40892  12.430   0.444   3.902  0.0519  0.5436  0.0803
24045W        W40893   6.689   1.663  14.244 -0.0112  0.1978 -0.0376
24046W        W40894   2.225  14.718  14.120  0.0549 -0.3894 -0.1843
24047W        W40895   7.654   4.315   4.358  0.2301 -0.1546 -0.0834
24048W        W40896  17.392  14.263   2.902  0.1752  0.0298  0.1973
24049W        W40897  11.389   6.982   5.155 -0.0217 -0.1689 -0.2729
24050W        W40898   3.413  13.960  15.979  0.3381 -0.0656 -0.1350
24051W        W40899   5.691   7.452  12.252  0.1055 -0.0665  0.2363
24052W        W40900   2.729   2.829  16.550  0.0243 -0.1792  0.0379
24053W        W40901   2.439  17.538  15.677 -0.1003  0.1378 -0.0015
24054W        W40902   9.962   2.029   4.235 -0.0203  0.2579  0.0210
24055W        W40903   4.946   4.346  15.846  0.0195 -0.0377  0.1269
24056W        W40904  13.905   3.226  11.564  0.0277 -0.1784 -0.1517
24057W        W40905  14.524  16.934   1.458 -0.0883  0.0312  0.1489
24058W        W40906   7.097  16.184   1.807  0.0130 -0.0648  0.2292
24059W        W40907   7.009   8.668  12.149  0.0815  0.1357 -0.1737
24060W        W40908   4.467   4.499   2.610 -0.2762  0.1352  0.0039
24061W        W40909   7.442   7.844   4.431  0.1132  0.1759  0.4296
24062W        W40910   4.262  15.452   2.957 -0.0758  0.2807 -0.1200
24063W        W40911   9.721   9.367  14.854 -0.2088  0.1588 -0.0819
24064W        W40912   0.152  11.417   1.065 -0.1520  0.2120 -0.1157
24065W        W40913  15.818  16.487   0.179  0.0184  0.1400 -0.3835
24066W        W40914  16.657   6.818   0.742  0.0418 -0.0263  0.0825
24067W        W40915  16.821  12.313   4.651  0.0649 -0.3024 -0.1513
24068W        W40916  10.857  15.977  14.178  0.1998 -0.0537 -0.0841
24069W        W40917  17.014  12.831  11.049  0.1945 -0.2680 -0.1678
24070W        W40918   7.741  11.904   1.522  0.1513 -0.2890  0.1635
24071W        W40919  13.522  13.386  15.658 -0.1657 -0.1963 -0.1126
24072W        W40920  10.604   5.660  15.476 -0.0571  0.0288  0.0409
24073W        W40921   8.373  15.956   0.361  0.1112  0.0242 -0.1460
24074W        W40922   7.500   9.562   4.590  0.0999 -0.1484 -0.0179
24075W        W40923   5.080   8.216  16.611  0.0301 -0.0465 -0.0127
24076W        W40924  11.445  12.252   1.313  0.3099  0.6998  0.0553
24077W        W40925  14.000  11.809  14.710  0.0702 -0.2286 -0.0015
24078W        W40926   3.088   7.649   3.298  0.0812 -0.0761  0.1517
24079W        W40927   0.988  10.729  14.101 -0.1859  0.0673  0.2868
24080W        W40928   5.638  15.811   2.724  0.0100  0.3735  0.0143
24081W        W40929   9.660  10.877   3.673 -0.1057  0.1520 -0.0364
24082W        W40930  11.851  17.032  15.572  0.1896 -0.0200  0.1099
24083W        W40931   5.562   1.211   2.786 -0.1277 -0.0715  0.3775
24084W        W40932   6.883   6.027  11.941  0.0604  0.0458 -0.1650
24085W        W40933  17.044   0.135   0.832  0.3629 -0.0227  0.1942
24086W        W40934   8.114  15.687  13.157 -0.0266  0.1191 -0.3247
24087W        W40935  10.291   2.847   4.086 -0.1323  0.1711  0.2158
24088W        W40936   7.996  13.523   1.288  0.0482 -0.1478  0.2111
24089W        W40937   9.330  14.742  12.022 -0.2566  0.3772  0.1330
24090W        W40938   6.463   1.094  11.650  0.0238 -0.1128 -0.3652
24091W        W40939   3.654  15.771   3.778 -0.1391 -0.1495  0.3625
24092W        W40940  10.531  17.210  15.137 -0.2581 -0.2934 -0.1127
24093W        W40941   1.903  13.150   0.242  0.0562 -0.1807  0.1116
24094W        W40942  15.841  12.809   4.526 -0.1150 -0.1605  0.0050
24095W        W40943  16.538  17.278   3.394 -0.0886  0.0183  0.3135
24096W        W40944  15.904   3.675  13.491  0.0193 -0.1081  0.1331
24097W        W40945  17.415   4.353  13.003  0.0392 -0.0285  0.1178
24098W        W40946  12.694   1.641  14.261  0.1628  0.2115 -0.0179
24099W        W40947   0.565   6.850  11.827  0.0369 -0.1888 -0.3054
24100W        W40948   4.104  16.864  16.604 -0.0049 -0.0353 -0.0311
24101W        W40949   6.794   9.991   1.293  0.1529 -0.0528  0.0670
24102W        W40950  15.340   5.498  14.635 -0.2759 -0.3000  0.1631
24103W        W40951  14.332  16.171   3.268 -0.0084 -0.0175 -0.1649
24104W        W40952   5.862   3.465  14.834 -0.1498 -0.0410  0.0175
24105W        W40953   4.276  13.721   4.277 -0.0312 -0.0488 -0.1177
24106W        W40954   1.827  10.233  15.750 -0.0637 -0.1679 -0.0972
24107W        W40955   9.238   7.892  16.114  0.1512  0.0029  0.1646
24108W        W40956  11.788   3.633   3.449  0.0255  0.0488  0.1060
24109W        W40957  16.852  15.149  14.517  0.0654 -0.2828 -0.0469
24110W        W40958  10.480  15.170  14.126  0.1483 -0.0247 -0.2675
24111W        W40959   9.074   8.371  11.286  0.1891  0.2259  0.1169
24112W        W40960   7.149   4.995   1.241  0.7282 -0.0202 -0.1014
24113W        W40961  11.198   1.064  15.626 -0.1435  0.0619  0.0728
24114W        W40962   5.884  10.212  11.952 -0.0080  0.1298 -0.0859
24115W        W40963   9.870   5.446   4.832  0.2464  0.1159 -0.1034
24116W        W40964   0.501   9.047  13.535 -0.1275  0.1212  0.0403
24117W        W40965   0.882  12.665   1.153  0.2114 -0.1991 -0.1084
24118W        W40966   5.114  16.013  11.166  0.0614  0.2100  0.1835
24119W        W40967  10.343  14.178  16.651 -0.1170 -0.2135 -0.3409
24120W        W40968  12.043   2.879   3.601  0.2386 -0.2114  0.3258
24121W        W40969  16.081   5.296   0.908  0.2830 -0.4074  0.1319
24122W        W40970   5.276   0.267   2.587 -0.2229  0.4526 -0.1415
24123W        W40971  17.017   6.857  16.321 -0.0169 -0.1726 -0.1386
24124W        W40972  13.314   0.520  12.097  0.0234 -0.0260  0.1436
24125W        W40973  12.157   3.789  12.034  0.2806 -0.0234 -0.0655
24126W        W40974   1.243   0.778   2.140 -0.1440 -0.0792  0.1373
24127W        W40975  12.477   3.810  15.422 -0.1393  0.1262  0.1225
24128W        W40976  10.533   6.850   0.800 -0.2289 -0.0324 -0.1399
24129W        W40977   3.129   6.427   1.250 -0.1541  0.1069 -0.2305
24130W        W40978  14.448  10.833  15.252  0.0571 -0.2215 -0.0712
24131W        W40979  16.403   7.815  12.668 -0.3499 -0.1500  0.1782
24132W        W40980   9.037  11.915   1.347 -0.0006 -0.0073 -0.3335
24133W        W40981  14.983  12.400   0.206  0.2303  0.1623  0.0298
24134W        W40982   5.461  12.736   3.680  0.3463 -0.1869  0.0084
24135W        W40983   4.982   2.175  12.771 -0.3463 -0.1063  0.3150
24136W        W40984   7.517   2.310   0.878  0.0086  0.1023 -0.1890
24137W        W40985   1.430   1.756  12.756 -0.0109 -0.1466 -0.4691
24138W        W40986   8.769  16.456  11.913  0.1197  0.1264 -0.0320
24139W        W40987  15.522  17.619   2.502  0.0008  0.0417  0.0903
24140W        W40988  12.227   0.957  15.035  0.0580 -0.0215 -0.1216
24141W        W40989   9.588   1.118   5.253  0.0241  0.0855  0.1050
24142W        W40990  17.441  17.637   2.903  0.1010  0.1174  0.2053
24143W        W40991   4.776   0.206  15.977  0.1138  0.0388 -0.5537
24144W        W40992   4.521   4.691   3.057 -0.0712  0.3430 -0.0428
24145W        W40993  13.829  17.473   0.718  0.0323 -0.2187 -0.1105
24146W        W40994  12.018  10.794  15.142  0.1346 -0.2500  0.1963
24147W        W40995  12.738  13.661   2.104  0.2921  0.0627 -0.0141
24148W        W40996   0.664  16.025  11.773  0.0491  0.2415 -0.0592
24149W        W40997  16.463  15.050  13.755  0.0641  0.0230 -0.0093
24150W        W40998  16.799   8.122   2.235 -0.1656 -0.3262 -0.0957
24151W        W40999  14.845   6.602   1.304 -0.0115 -0.0644  0.0578
24152W        W41000   0.267   0.742  13.550  0.2047  0.0699 -0.2645
24153W        W41001  11.764  11.449  16.583 -0.1292 -0.2206  0.1201
24154W        W41002   2.034   9.998  13.671  0.0489 -0.4058  0.0945
24155W        W41003   8.073  10.033   2.345  0.0751  0.0060 -0.0731
24156W        W41004   1.028  12.101  15.382  0.1603 -0.1852 -0.1078
24157W        W41005  16.562   2.241  12.737 -0.0753  0.3988  0.0405
24158W        W41006   4.526   7.131  12.663  0.0612 -0.0504  0.2104
24159W        W41007   9.199   1.829  12.602  0.1338  0.0904 -0.3529
24160W        W41008   3.585  12.756   4.911 -0.1155  0.1860 -0.0660
24161W        W41009   5.833   8.265  12.517  0.2342 -0.1361 -0.1497
24162W        W41010   8.742   7.255  11.526 -0.1542 -0.1733  0.1672
24163W        W41011  10.834  12.983  15.707  0.0577 -0.1526 -0.2276
24164W        W41012  12.394   6.983   2.830  0.0216  0.1438 -0.1934
24165W        W41013   0.300  11.004   1.756 -0.0961 -0.2935 -0.2176
24166W        W41014   0.474  15.262   3.021 -0.2520  0.0745  0.1013
24167W        W41015   2.414   2.503  15.706 -0.1062 -0.1902  0.0534
24168W        W41016   1.669  16.628   4.878 -0.1158  0.0885  0.0443
24169W        W41017   7.059  17.675   0.375  0.4619  0.0400  0.1673
24170W        W41018   2.872   4.956   5.394  0.1109 -0.2980  0.0406
24171W        W41019   3.214  16.030  11.907 -0.0261 -0.0840 -0.2694
24172W        W41020  12.925   9.325  13.112 -0.0893  0.0059 -0.0617
24173W        W41021   4.635  17.061  11.611  0.0837 -0.1465 -0.0340
24174W        W41022   3.893  16.538  12.020 -0.0621  0.1681  0.0432
24175W        W41023   9.363   9.239   1.119 -0.1191  0.1068  0.1182
24176W        W41024  15.852   2.674  13.509 -0.2518  0.0381 -0.1828
24177W        W41025  15.094  13.554   2.594 -0.0735 -0.1376 -0.1935
24178W        W41026   3.253   6.437   5.165  0.0364 -0.2167 -0.3466
24179W        W41027   8.499   7.410   4.433  0.0769 -0.1898 -0.1369
24180W        W41028   9.650   0.181   4.222 -0.0084  0.0455 -0.1630
24181W        W41029  13.893  14.917  14.825  0.3073 -0.2305  0.0224
24182W        W41030  17.538  10.586   3.414  0.0570  0.0387 -0.5019
24183W        W41031  14.884  13.877   4.451  0.0511 -0.0544 -0.2509
24184W        W41032  12.830   2.831   4.648  0.1056  0.1092  0.0643
24185W        W41033   3.203  14.195   0.519  0.3357 -0.2908  0.1398
24186W        W41034   5.906   2.501   5.649  0.0962 -0.2594 -0.3164
24187W        W41035   8.516  17.016  10.589  0.1702 -0.0553  0.0979
24188W        W41036   3.348   5.524  12.783  0.1248 -0.1340  0.3016
24189W        W41037  17.473   5.985  13.718  0.1296  0.1168 -0.0438
24190W        W41038   2.355  16.390  14.387 -0.3301  0.1125 -0.0411
24191W        W41039  12.073  17.670  12.035  0.1757 -0.2275 -0.0480
24192W        W41040  15.583   8.605   5.325 -0.0032 -0.2945  0.1332
24193W        W41041  12.351  10.998   2.774  0.2158 -0.0990 -0.0190
24194W        W41042  10.281   1.659   3.070  0.0582  0.0215  0.2518
24195W        W41043  17.286   5.907   5.113  0.1314 -0.1731 -0.0912
24196W        W41044  16.907   6.401  16.566  0.0507 -0.0140 -0.0026
24197W        W41045   7.830   7.145  15.015 -0.1385  0.1540 -0.0780
24198W        W41046   1.905   8.200  13.903 -0.0195  0.2287  0.2800
24199W        W41047   1.235  10.606  16.575  0.0849 -0.0861 -0.0806
24200W        W41048   1.361   8.046  14.046  0.1207 -0.2112  0.1577
24201W        W41049   5.561   0.906   4.286  0.2619 -0.0383  0.0131
24202W        W41050  12.487   4.740  14.927  0.0159  0.0163 -0.1551
24203W        W41051   0.815   7.805   2.720 -0.0707 -0.1207 -0.3115
24204W        W41052  12.717   4.547   3.593  0.0770 -0.2439 -0.2700
24205W        W41053   2.098  14.327  15.306 -0.0682  0.1273 -0.2193
24206W        W41054   2.026  15.940   0.349  0.0229 -0.0064 -0.1485
24207W        W41055  13.255  12.541   3.754  0.0695 -0.1485 -0.0281
24208W        W41056   7.756   8.030   4.768  0.0457  0.0232 -0.0982
24209W        W41057  11.722  14.102   5.914  0.2870  0.0853  0.1810
24210W        W41058   2.679  13.199  15.779 -0.1708  0.0008 -0.2828
24211W        W41059   1.916  11.509   0.519  0.1437  0.1765  0.1386
24212W        W41060  12.597   2.154   4.252  0.0340  0.0867 -0.0866
24213W        W41061   1.354   0.627  15.011  0.3806 -0.2763 -0.0407
24214W        W41062   3.726  13.253  12.122 -0.3456 -0.0634  0.0363
24215W        W41063  10.642   0.329   4.637  0.2084  0.1438  0.3644
24216W        W41064   5.277  14.807   1.511  0.0544 -0.2501 -0.1493
24217W        W41065  12.607   3.763   0.199 -0.0923  0.1133 -0.0136
24218W        W41066  17.561  12.159   1.605 -0.1290 -0.0395 -0.1069
24219W        W41067   0.733   0.073   5.169  0.1909  0.2505  0.4324
24220W        W41068   3.987  10.316   3.561 -0.1143  0.3964 -0.0696
24221W        W41069  16.687  15.997   3.187 -0.1077 -0.0609 -0.1284
24222W        W41070   7.056  10.250   5.017 -0.0701  0.0580  0.1247
24223W        W41071   6.536   7.763  13.103 -0.0922  0.4194  0.0097
24224W        W41072   7.713   4.233  13.397  0.1074 -0.1162  0.0660
24225W        W41073   1.258  16.196   6.012 -0.3005 -0.0626 -0.1289
24226W        W41074   2.441  10.950   2.536  0.1429  0.0558 -0.0583
24227W        W41075   4.489   5.587   2.409  0.1299 -0.0375  0.0118
24228W        W41076   1.523   0.588  13.954  0.0266  0.1191 -0.1870
24229W        W41077   2.026   5.238   5.576 -0.3595  0.3035 -0.1232
24230W        W41078   5.556  10.686   5.449 -0.1015  0.1715  0.2305
24231W        W41079  12.260   0.095  10.649  0.0586  0.0288  0.0045
24232W        W41080   6.194   1.910   1.171  0.3388 -0.0551  0.2665
24233W        W41081   0.448  10.364   1.198 -0.1308 -0.2028  0.1557
24234W        W41082   1.440   3.721  15.652 -0.0735  0.2413  0.1064
24235W        W41083   4.412   1.520  12.753 -0.1260 -0.1112 -0.1097
24236W        W41084   0.447  16.850   0.759 -0.0067  0.0180 -0.0029
24237W        W41085  15.028   9.787  12.644  0.1786 -0.0443 -0.0625
24238W        W41086   1.213   4.213  14.433 -0.2434  0.2045  0.0076
24239W        W41087   5.529   4.635  13.540 -0.3035  0.2179  0.1250
24240W        W41088   0.968   8.029  14.834  0.3587 -0.0326  0.1541
24241W        W41089  12.347  11.242  14.637  0.1757  0.1450  0.0089
24242W        W41090   1.772   4.598  13.570 -0.0618  0.2348  0.0594
24243W        W41091   7.082   2.185   1.152  0.0522  0.1065  0.2366
24244W        W41092  16.259   0.253   1.626  0.2546 -0.4088  0.1586
24245W        W41093   2.507   7.551  12.768  0.0908  0.1923  0.1224
24246W        W41094   0.240   4.873   2.004  0.0963 -0.4535 -0.0442
24247W        W41095   1.814   3.206   1.477 -0.1343  0.2745 -0.1842
24248W        W41096   1.764   1.879  13.657 -0.0603 -0.1085 -0.1691
24249W        W41097  17.325   8.936  12.393  0.1307  0.2504 -0.0035
24250W        W41098  14.858  10.407  12.718  0.0255 -0.0918 -0.2580
24251W        W41099   9.747   5.064   5.076 -0.1648  0.2021 -0.0333
24252W        W41100   9.728  14.975  15.829 -0.0980  0.3475 -0.0287
24253W        W41101   7.298   6.102  15.680  0.0890  0.0085  0.1778
24254W        W41102   0.313  14.800  14.800 -0.2599 -0.0997 -0.1895
24255W        W41103   6.178  16.082   2.388  0.1480  0.3854  0.1242
24256W        W41104   5.808  10.713  11.802  0.1914 -0.1436 -0.2796
24257W        W41105  11.395   4.171  11.618 -0.0212  0.1357  0.0184
24258W        W41106   4.302   8.790   2.430 -0.2286 -0.2098 -0.1138
24259W        W41107  11.039  10.476   1.686  0.0758 -0.2202  0.1874
24260W        W41108  14.618  14.039  15.243 -0.0960  0.0671 -0.1552
24261W        W41109  16.528  13.336   0.822 -0.0993  0.1132  0.2655
24262W        W41110  12.454  11.690  14.878 -0.2339 -0.2331 -0.1941
24263W        W41111  12.527   3.039  14.871 -0.2198  0.1957 -0.0404
24264W        W41112   0.212   0.950  16.198 -0.0423 -0.1170  0.1065
24265W        W41113  15.463   6.838   0.192 -0.1134  0.2215 -0.0787
24266W        W41114  14.432  14.485   2.004  0.0663  0.2756 -0.0050
24267W        W41115  15.623   4.522   5.442 -0.1615  0.1299 -0.1322
24268W        W41116   7.064  15.535   2.389 -0.2273  0.0073 -0.3000
24269W        W41117  12.758   1.521  14.821 -0.0246  0.0574 -0.0543
24270W        W41118  10.696  11.488  15.369  0.0340 -0.0788 -0.1835
24271W        W41119  15.854  15.126  16.150  0.2496 -0.0022  0.1085
24272W        W41120   5.857   1.577   2.982  0.1034 -0.0795 -0.1825
24273W        W41121  17.535  11.658   4.510  0.1398  0.3500 -0.3536
24274W        W41122  11.488  10.733   4.925 -0.1177 -0.1140  0.0170
24275W        W41123   1.436   3.084   0.361  0.0923 -0.1285  0.0964
24276W        W41124  12.259   0.408   4.446 -0.0835 -0.0952  0.0167
24277W        W41125   3.209  11.847  12.034 -0.1302 -0.1015  0.2013
24278W        W41126  17.635   4.572  13.416 -0.1324 -0.0199  0.0236
24279W        W41127   3.731  11.677  16.181  0.3199  0.0206 -0.0776
24280W        W41128   7.685   9.410   1.776 -0.0309  0.0055 -0.2104
24281W        W41129  13.177  12.752   1.292  0.3247 -0.0862 -0.1533
24282W        W41130  11.022  15.043   1.995  0.3517 -0.1234 -0.1465
24283W        W41131  14.131   7.115   1.595  0.0048 -0.1799  0.2358
24284W        W41132  16.029   9.794  13.600  0.1984 -0.1628  0.0472
24285W        W41133  10.241  14.980  14.645  0.2428  0.1440  0.3565
24286W        W41134  16.465  11.701  11.692 -0.0493  0.2026  0.1710
24287W        W41135   8.584   0.261  15.836 -0.1082 -0.1883  0.1454
24288W        W41136   3.665   0.696  12.096 -0.2378 -0.1148 -0.1799
24289W        W41137  10.228  15.991   4.714 -0.1252 -0.2415 -0.2287
24290W        W41138   9.908  12.225   0.480 -0.3162 -0.0139 -0.1670
24291W        W41139   0.196   6.080   2.074 -0.0123  0.0616  0.2052
24292W        W41140   4.408   3.747  14.981 -0.1622  0.0609 -0.0656
24293W        W41141   7.716   6.954  15.988 -0.1791  0.1558 -0.2935
24294W        W41142   2.623  12.600  13.279 -0.0946 -0.0635 -0.2328
24295W        W41143  17.021  16.643  14.223 -0.1990 -0.0610  0.2683
24296W        W41144   1.707  17.328  13.070 -0.1716  0.2676  0.2197
24297W        W41145   2.931  16.066   2.284  0.1344  0.0194  0.1025
24298W        W41146  17.406   1.656   0.440 -0.1134 -0.0831 -0.0094
24299W        W41147  16.105   0.495  15.937 -0.0574  0.0635  0.0105
24300W        W41148  15.038   1.092   0.580  0.1935 -0.0792 -0.0662
24301W        W41149  16.324   4.489  13.660  0.1639  0.0578 -0.0376
24302W        W41150  10.868  12.543  11.877  0.1183  0.0030 -0.2114
24303W        W41151   3.391   3.615   4.396 -0.0230  0.1617  0.0728
24304W        W41152  10.137   3.340   4.365 -0.1274 -0.0118  0.1558
24305W        W41153  14.192   8.112   2.254 -0.1528 -0.1173 -0.0156
24306W        W41154   1.137   9.939  14.565 -0.0864 -0.1156 -0.0138
24307W        W41155  14.873  14.604  12.584 -0.2355  0.0218 -0.0904
24308W        W41156   3.740  15.012   2.245 -0.0577 -0.3714 -0.1133
24309W        W41157   5.241   7.485   1.015 -0.0036  0.0138 -0.0027
24310W        W41158   7.017  14.678  12.502 -0.2563  0.4092 -0.0398
24311W        W41159   2.925  14.411  13.503 -0.1146 -0.4685 -0.1687
24312W        W41160  14.074  13.774   1.645 -0.2030 -0.1344 -0.0032
24313W        W41161  15.226  17.114  11.506 -0.0088  0.0815 -0.1718
24314W        W41162  10.361  16.809  16.644  0.3242 -0.0526 -0.4022
24315W        W41163  13.044   3.580  12.664  0.0779  0.1972 -0.1084
24316W        W41164   5.497  17.274  15.184 -0.0059 -0.1841  0.2073
24317W        W41165   5.830  11.021  16.011  0.2469 -0.0669  0.0448
24318W        W41166  10.065  10.909  16.634 -0.2834 -0.1399 -0.1882
24319W        W41167   6.598   1.925  12.754 -0.1015 -0.0279 -0.1655
24320W        W41168  10.820  12.816  12.862  0.3549  0.2082 -0.2075
24321W        W41169   4.140  11.443   2.609 -0.3441 -0.0013 -0.2052
24322W        W41170   6.389   8.950   4.639  0.1930  0.0199  0.2990
24323W        W41171   3.669  17.699  10.615  0.0048  0.0091  0.0239
24324W        W41172   0.719  10.960  10.732 -0.1302 -0.1882 -0.0777
24325W        W41173   0.807  15.120  15.396  0.2147 -0.2010  0.1067
24326W        W41174  13.512  16.164  13.544 -0.0229 -0.1533 -0.2089
24327W        W41175  14.876  13.146   1.419  0.2250  0.0740 -0.3604
24328W        W41176   7.772   1.462  13.178 -0.0103  0.0534 -0.0033
24329W        W41177   7.690   5.925   3.752  0.0763  0.0725 -0.1048
24330W        W41178  16.536  13.832   0.978  0.0522  0.0303  0.2452
24331W        W41179   0.872   6.812  14.531 -0.0383 -0.1023 -0.0898
24332W        W41180  10.935  10.669  14.015  0.0257  0.0190  0.2152
24333W        W41181   0.481  15.241   4.444 -0.0789  0.2990 -0.0865
24334W        W41182   3.248  11.876   5.109 -0.0756  0.0759 -0.0830
24335W        W41183   0.181   2.110  15.545  0.3957  0.1703  0.1297
24336W        W41184   5.045  11.634   0.515  0.0307 -0.2845  0.2228
24337W        W41185   6.917   4.288  14.399 -0.0420 -0.1226  0.0323
24338W        W41186  10.541  16.459   1.211 -0.2918 -0.2298  0.1633
24339W        W41187   0.586   6.686  14.980 -0.0690  0.3135 -0.2183
24340W        W41188  14.218  10.875   4.122 -0.2968  0.0246  0.1430
24341W        W41189   2.779  11.966  13.798  0.1767  0.1334 -0.0291
24342W        W41190  15.419   0.237  16.566 -0.0022 -0.0077  0.2005
24343W        W41191  12.509  14.479   3.157 -0.1289  0.2822  0.0544
24344W        W41192   1.686  13.502   1.945  0.0338 -0.1023  0.0507
24345W        W41193  13.934  12.219   3.291 -0.0792  0.0217 -0.3081
24346W        W41194   5.472   8.249  14.953  0.2469  0.0410  0.2758
24347W        W41195   4.751  14.123   5.133 -0.0477 -0.1628 -0.0061
24348W        W41196  17.538  13.664   2.170 -0.3430  0.1054 -0.3612
24349W        W41197   2.706   3.545   1.225  0.1755 -0.0900 -0.2812
24350W        W41198   3.648  12.663  16.185 -0.0692 -0.3354 -0.0339
24351W        W41199   6.301  12.902   4.141  0.0555 -0.1106 -0.2152
24352W        W41200  17.183   6.382  16.161 -0.3096  0.0828 -0.1040
24353W        W41201   9.479  11.902  11.594 -0.0814 -0.1331  0.2270
24354W        W41202   3.944   4.463  11.843 -0.0501  0.1890  0.0192
24355W        W41203  12.298   2.162   1.893  0.0985 -0.0483 -0.0504
24356W        W41204  16.699  10.074  16.477 -0.2171 -0.0397 -0.1001
24357W        W41205   3.217  11.098  10.895 -0.2155 -0.1627  0.1437
24358W        W41206  16.281  17.509   2.992 -0.1751 -0.3093  0.0762
24359W        W41207   7.801  16.030  12.913  0.3555 -0.1073  0.2506
24360W        W41208   4.939   1.470   2.754  0.0502  0.1286  0.2235
24361W        W41209  11.934  12.378  14.543 -0.1182  0.0427  0.1703
24362W        W41210   8.211   2.016  13.943 -0.0466 -0.0131  0.2370
24363W        W41211   3.008  13.868  16.235  0.1796 -0.1460 -0.5117
24364W        W41212   8.870   8.790   0.353  0.1228  0.0906 -0.1416
24365W        W41213   3.474  15.090  11.848 -0.1596 -0.2231 -0.1706
24366W        W41214   4.567   9.957  13.817 -0.2536 -0.0179  0.0637
24367W        W41215  11.243  10.011  16.421 -0.4314  0.2067 -0.3909
24368W        W41216   6.835  17.146  15.503  0.2703 -0.2745 -0.3784
24369W        W41217   6.552  12.921   3.571  0.0122  0.2011  0.0371
24370W        W41218   7.000   7.624   4.639 -0.1153 -0.1477  0.0780
24371W        W41219   4.467   2.045  12.638 -0.1375 -0.1767 -0.2084
24372W        W41220   9.841  11.892   1.983 -0.0172  0.0324  0.2328
24373W        W41221   5.136   9.910   2.810  0.2808 -0.2257  0.0515
24374W        W41222   1.768   0.437  16.353 -0.0230  0.1069  0.1358
24375W        W41223   5.110   6.299  12.288 -0.2230  0.0970 -0.2403
24376W        W41224  11.610  13.540   0.768 -0.0611 -0.1270 -0.1174
24377W        W41225   9.680   6.874  12.292  0.1335  0.1163  0.0272
24378W        W41226  14.498  13.629  13.746 -0.0934  0.0941 -0.1658
24379W        W41227  15.198  11.656   5.047 -0.4501 -0.0113  0.0326
24380W        W41228   2.158   7.755  11.780 -0.1868 -0.0574 -0.0272
24381W        W41229   2.573   9.093  11.729 -0.0273 -0.5221 -0.0617
24382W        W41230  17.310  12.507   0.224 -0.1217 -0.3017 -0.0080
24383W        W41231   5.277   5.693   3.008 -0.1598  0.0076 -0.0131
24384W        W41232   5.825  16.668   3.666  0.0590  0.0639 -0.1252
24385W        W41233  10.340   2.032  16.202  0.0375 -0.1445  0.0496
24386W        W41234   6.827  16.134   0.435 -0.0911 -0.0709  0.0458
24387W        W41235   7.174   3.868  13.650  0.0443 -0.0629 -0.1099
24388W        W41236   4.662  10.670  13.370  0.2700 -0.1664  0.1187
24389W        W41237   7.532  14.742  11.759 -0.1571  0.0909 -0.3600
24390W        W41238   1.073   9.323   4.556  0.1622  0.0648  0.1478
24391W        W41239  13.729  16.289  15.161 -0.2688 -0.1786  0.2513
24392W        W41240  15.310   7.150   2.532  0.1011  0.1841 -0.1628
24393W        W41241   6.447  15.598  14.001 -0.1600 -0.1602  0.2843
24394W        W41242   0.584   6.173   1.761  0.2980 -0.0019  0.0012
24395W        W41243   8.492  15.588  13.676 -0.2283  0.1162 -0.1027
24396W        W41244  10.366   3.509   0.260 -0.1767  0.2021 -0.1891
24397W        W41245   0.028   5.655  13.056  0.1007  0.0150 -0.0101
24398W        W41246  12.017   8.574  13.966  0.0660 -0.1990 -0.0494
24399W        W41247   6.045   2.466   5.157  0.2200  0.0484 -0.0511
24400W        W41248  13.233   3.108  12.852 -0.1918  0.0345 -0.0338
24401W        W41249  16.178   7.800   1.045 -0.0104  0.1778 -0.0815
24402W        W41250   3.688   4.537  13.672  0.1111  0.0169 -0.2027
24403W        W41251  10.817  16.477  14.144 -0.0061 -0.3318 -0.2122
24404W        W41252   2.316   1.930   0.864 -0.0870 -0.0057 -0.1556
24405W        W41253  17.126  11.506   2.241  0.0646 -0.2122 -0.2307
24406W        W41254   9.529  13.111   1.799  0.1823 -0.2718 -0.4172
24407W        W41255  13.133  12.971  14.293 -0.1388  0.1836  0.1279
24408W        W41256  12.720  13.598  13.474  0.2654  0.1097  0.3082
24409W        W41257  13.364   6.409  12.119  0.0420  0.0974  0.2373
24410W        W41258   2.007  17.441   0.943 -0.0383  0.0933 -0.4003
24411W        W41259   8.908   0.271   2.323 -0.2807 -0.3429  0.2348
24412W        W41260  11.803  16.510  14.204  0.0045  0.3307  0.0712
24413W        W41261  14.922  17.489  16.114  0.2323  0.1906  0.0977
24414W        W41262   1.852   3.387  14.821 -0.0960  0.2759 -0.1590
24415W        W41263   6.816  15.493  16.578  0.0132  0.1941  0.2708
24416W        W41264   5.506  14.710   5.100  0.1552 -0.3646 -0.2900
24417W        W41265  15.846  11.605  15.203 -0.0030  0.2578 -0.2000
24418W        W41266  10.180  14.922   1.255  0.4219  0.1748  0.1787
24419W        W41267  12.860   3.244  11.213  0.2197 -0.2714 -0.1871
24420W        W41268   5.471   9.132  11.711 -0.0861  0.0518 -0.0614
24421W        W41269  10.492   7.541  11.532  0.3882 -0.4062 -0.2021
24422W        W41270  14.145  14.035   3.976  0.1330  0.0576  0.1868
24423W        W41271  12.868   7.132  12.213 -0.4390 -0.0392 -0.0244
24424W        W41272   9.630   9.602  12.845 -0.2085  0.0119  0.3018
24425W        W41273   6.842   5.963   3.299  0.2097 -0.2070  0.1707
24426W        W41274   6.785  14.126   0.713  0.0296  0.3015 -0.1932
24427W        W41275   8.001   7.754   0.752 -0.0835 -0.1886  0.3775
24428W        W41276   0.280   4.101  15.431 -0.0987  0.1341 -0.0225
24429W        W41277  17.342  13.310   3.785  0.0607  0.3597 -0.0869
24430W        W41278  17.111  10.811  12.316  0.0184  0.4203  0.2580
24431W        W41279  14.264   1.719  12.784  0.2093  0.0479 -0.2424
24432W        W41280   2.309   7.622   2.539  0.1825  0.2280 -0.0138
24433W        W41281   4.851  13.695   4.359  0.0417  0.3588  0.5935
24434W        W41282   4.288  13.246  16.392  0.1133 -0.1293  0.1554
24435W        W41283  17.299   2.951   1.784 -0.1722  0.3562 -0.5813
24436W        W41284   5.118   2.710  13.970  0.3650 -0.1017  0.2704
24437W        W41285   1.511  10.067  13.684  0.3233  0.4284 -0.1127
24438W        W41286  11.936  10.312   3.701  0.2717 -0.0794 -0.4020
24439W        W41287  16.110   1.951  15.335 -0.0210  0.0733  0.0165
24440W        W41288   9.897  15.342  16.215  0.2124  0.0942 -0.2015
24441W        W41289  15.204   3.651  11.844 -0.0125  0.0807  0.1289
24442W        W41290   4.262   7.690   1.556  0.0539  0.0940  0.1427
24443W        W41291   7.461   1.043  14.640 -0.1971  0.1302  0.2600
24444W        W41292  10.674   0.463   0.487 -0.0188 -0.0856 -0.0665
24445W        W41293   2.543  10.876   4.591  0.1737 -0.0910  0.1727
24446W        W41294   1.908   9.802  14.246  0.2304  0.1834  0.1169
24447W        W41295   7.100   6.639   2.798  0.6278 -0.1746 -0.0813
24448W        W41296  16.570   3.099   2.396 -0.0734 -0.1771 -0.0698
24449W        W41297  13.703  16.779  11.748 -0.1258 -0.0573 -0.3724
24450W        W41298  12.189   4.690  13.809 -0.2550 -0.1168  0.1084
24451W        W41299  14.685   5.346  12.364  0.3777 -0.1454 -0.2350
24452W        W41300  17.424   8.724   5.207  0.1289  0.3288 -0.0709
24453W        W41301   8.812  16.064   6.092 -0.2459 -0.0681  0.0953
24454W        W41302   1.546   7.683   3.478 -0.0298  0.3573 -0.0845
24455W        W41303   7.452  17.383   3.446 -0.2869 -0.1255  0.1708
24456W        W41304   7.427  14.353   4.384 -0.1563  0.0319  0.1214
24457W        W41305   2.281   0.768   2.224  0.2650 -0.0915  0.2091
24458W        W41306   8.222  12.176  16.589  0.3953 -0.1958  0.1439
24459W        W41307  16.754  15.907   6.097  0.0650 -0.2290  0.0018
24460W        W41308  15.676   4.527   2.327 -0.2001 -0.0977  0.3311
24461W        W41309  16.033   2.708  14.812  0.0661  0.1132  0.0151
24462W        W41310   1.676  12.313   2.895  0.0910 -0.0024  0.2069
24463W        W41311   0.260   4.482   1.612  0.0864 -0.3766 -0.1457
24464W        W41312   0.226  10.918  16.102  0.2750  0.4116  0.4822
24465W        W41313  14.773  16.725   5.142 -0.2774 -0.1360 -0.1762
24466W        W41314   3.489  16.623  14.054  0.1884  0.0379  0.2219
24467W        W41315   8.028   7.083  15.677 -0.0729 -0.1308 -0.2114
24468W        W41316   8.891  14.925  16.616  0.2520  0.1969 -0.1609
24469W        W41317   7.309   8.925   2.709  0.0643 -0.1359  0.1591
24470W        W41318  16.397  14.792  11.729  0.1815  0.1616 -0.0913
24471W        W41319   3.143  13.393   5.961  0.0461 -0.0918  0.0258
24472W        W41320   7.748   2.724  13.703 -0.1484  0.1004  0.0118
24473W        W41321   2.975  12.294  13.504  0.1003  0.2655  0.0193
24474W        W41322  10.479   6.139   4.421  0.4431  0.1708  0.1350
24475W        W41323  10.277  17.516   4.674 -0.2376 -0.3020  0.2227
24476W        W41324  17.427   7.894   1.954 -0.1021 -0.0328  0.1027
24477W        W41325  14.120   2.298   0.076 -0.0902  0.1219  0.8586
24478W        W41326   4.174  10.891   0.050  0.1744  0.0465 -0.0910
24479W        W41327  10.417   4.481  12.975 -0.0048 -0.1172  0.0131
24480W        W41328   1.894   1.312  16.048 -0.0534 -0.0268  0.1138
24481W        W41329  16.886   7.139   2.233 -0.1874  0.2552 -0.3833
24482W        W41330  12.169   5.773   4.071  0.0630  0.1634  0.1226
24483W        W41331   8.334   1.991  12.704 -0.0800  0.3630  0.3521
24484W        W41332   1.977   7.704  12.441 -0.0593 -0.0748  0.0117
24485W        W41333   2.809   6.062  11.837 -0.0539 -0.1666  0.0774
24486W        W41334   9.637   1.615  15.221 -0.3292 -0.1249  0.1315
24487W        W41335  15.838   5.129  14.241  0.1388 -0.1189 -0.2802
24488W        W41336   9.364  16.932   5.246  0.0139  0.1573 -0.0361
24489W        W41337  12.766  10.362   2.901  0.0165  0.3343 -0.1128
24490W        W41338   2.504  12.250  12.470 -0.0021 -0.0870 -0.2279
24491W        W41339  15.586   2.703   4.342 -0.1259  0.0920  0.0967
24492W        W41340   8.207  14.546  13.274 -0.0777 -0.1652  0.0077
24493W        W41341  16.201   1.682   0.765  0.1487 -0.1375  0.0232
24494W        W41342  15.957   1.785  16.619  0.3356  0.0470  0.0780
24495W        W41343   8.205   3.760   2.479  0.1885  0.0711  0.0576
24496W        W41344   4.194  12.860   2.883 -0.0399 -0.0937  0.2321
24497W        W41345   3.517   2.350   2.941  0.0927  0.0192 -0.1096
24498W        W41346   2.550   8.682  11.430 -0.0403  0.1160 -0.0011
24499W        W41347  14.505   2.717  12.531 -0.0257  0.1769 -0.2993
24500W        W41348   2.918   9.222   5.685 -0.0336 -0.1883  0.0275
24501W        W41349   7.238   7.693   0.485 -0.0202 -0.0491  0.1232
24502W        W41350   1.723  12.692   4.519 -0.0777  0.2487  0.1306
24503W        W41351  16.826  12.186   1.525 -0.3409  0.0201  0.3085
24504W        W41352  10.411  15.346  13.535 -0.2645  0.1029  0.0521
24505W        W41353   3.861   5.369  15.362 -0.1041 -0.0252  0.2548
24506W        W41354  11.753  10.134  16.331 -0.1241 -0.0117  0.5186
24507W        W41355   3.408  14.195  14.478  0.3395 -0.0739 -0.0435
24508W        W41356   3.481  10.010   0.483 -0.2395 -0.0652 -0.2611
24509W        W41357   1.648   2.316   5.189  0.0638  0.0016  0.2385
24510W        W41358   5.656  12.293   0.960  0.3572 -0.2133  0.0284
24511W        W41359  15.365   0.573  12.172 -0.1247  0.1441 -0.0050
24512W        W41360  11.623  17.573  15.572  0.0183  0.1797 -0.1903
24513W        W41361  10.664  17.263  14.637  0.3059  0.1741  0.1611
24514W        W41362  10.719   1.022   4.051 -0.0118 -0.0088  0.3028
24515W        W41363   4.645  12.998  12.425 -0.1197  0.2952  0.0757
24516W        W41364   2.334  11.950  12.041 -0.1367  0.0726 -0.0479
24517W        W41365   4.400  16.401   3.714 -0.0300 -0.1682  0.1503
24518W        W41366  13.003   4.111   1.971  0.1273  0.2958 -0.3154
24519W        W41367   8.900  10.593   2.916  0.0932 -0.0592  0.1192
24520W        W41368  10.750  12.436  16.371  0.2959 -0.4029  0.1263
24521W        W41369   7.997  16.796  14.378  0.2636  0.4197  0.0134
24522W        W41370   6.197  17.438   0.527  0.0218  0.1741  0.0440
24523W        W41371  13.913  13.593   6.237  0.1179  0.0355  0.4045
24524W        W41372   6.914   3.035  11.793  0.3022  0.1182 -0.1613
24525W        W41373  16.828   3.248   4.755 -0.1483 -0.0038  0.0503
24526W        W41374   2.512   3.471   2.044 -0.1959  0.3305 -0.1242
24527W        W41375   9.831  15.424   3.652  0.3610 -0.2722  0.3368
24528W        W41376   0.949   3.620   0.878 -0.3353 -0.0655 -0.2483
24529W        W41377   4.404   0.506  14.768  0.1079 -0.0005  0.1573
24530W        W41378  13.526  12.938   3.936  0.0445  0.3382 -0.1012
24531W        W41379   3.909  17.052   3.544  0.4514 -0.1220  0.1180
24532W        W41380   6.591   9.996   3.704  0.1064 -0.0035 -0.3344
24533W        W41381   2.154   5.965   0.673  0.0815  0.0087 -0.1602
24534W        W41382   4.103   5.218   4.167  0.1467  0.0756  0.2523
24535W        W41383  14.525   1.650  12.403  0.0485  0.0051 -0.1007
24536W        W41384  11.344   9.235   3.619 -0.1240 -0.0482  0.0234
24537W        W41385  13.346  12.011  12.973 -0.0035 -0.1271 -0.0541
24538W        W41386  17.241   6.832   5.285  0.1569  0.1303 -0.0061
24539W        W41387  16.018  10.161   2.020  0.1342  0.0010 -0.2254
24540W        W41388   2.018   7.918   5.141 -0.1580 -0.0067 -0.4444
24541W        W41389  17.028  17.550   5.294 -0.2130 -0.1950  0.2442
24542W        W41390  15.781  14.272   1.988  0.1167  0.0862 -0.1728
24543W        W41391   4.425   4.761  16.546  0.2333  0.1135  0.0513
24544W        W41392   7.199   8.922  16.028 -0.0142 -0.1460 -0.0316
24545W        W41393   2.772  17.386  16.441  0.0343 -0.0960  0.0956
24546W        W41394   3.328  15.774  16.365 -0.1077  0.0063 -0.1576
24547W        W41395  12.570   5.153   2.721 -0.2313  0.0852  0.2776
24548W        W41396  12.588   4.296  15.153 -0.0112  0.0054  0.2646
24549W        W41397   8.853  12.983   0.617 -0.1649  0.2752 -0.0082
24550W        W41398   8.297  15.771   2.379  0.0258  0.0254  0.0724
24551W        W41399   1.527  11.344  12.251 -0.1479  0.0147 -0.4049
24552W        W41400  17.216   4.506   4.343 -0.1575 -0.0738 -0.3501
24553W        W41401   3.864   3.470  15.250 -0.3295  0.0493 -0.2507
24554W        W41402   2.776   1.776   0.554 -0.1989 -0.2844 -0.0199
24555W        W41403  15.637  16.718   5.029 -0.2611  0.3517  0.1878
24556W        W41404   1.747   3.214   5.142  0.1491  0.1424  0.0281
24557W        W41405   5.382   6.003   0.172 -0.0802 -0.1953 -0.3271
24558W        W41406  11.178   8.763  16.581 -0.0516 -0.2044 -0.2736
24559W        W41407   9.833  13.664   4.507 -0.0585  0.2722  0.1136
24560W        W41408   7.321  15.822   4.822  0.1506  0.3555  0.2242
24561W        W41409  10.448   9.221   1.313 -0.3493 -0.0993 -0.0218
24562W        W41410   6.321   6.985   3.992  0.0557 -0.1509  0.0489
24563W        W41411   2.503  12.584  14.529 -0.0898  0.2694  0.1174
24564W        W41412  13.215  12.030  14.624 -0.0993  0.1534  0.2289
24565W        W41413  17.406   2.748   3.598  0.2838  0.2704 -0.0472
24566W        W41414   2.775   9.945  10.327  0.3041  0.2601 -0.2150
24567W        W41415  14.912   5.355  13.769  0.0403  0.1469  0.1255
24568W        W41416   9.215  14.814  11.137 -0.0746 -0.1756 -0.1278
24569W        W41417  14.939   1.282  15.121 -0.1019 -0.2604  0.0470
24570W        W41418   4.995   3.491  12.827  0.2699 -0.0599  0.1588
24571W        W41419  11.589   7.915   1.837 -0.0560  0.0263  0.2464
24572W        W41420   9.360   5.628   2.738  0.0506 -0.1453 -0.3669
24573W        W41421   4.113   4.835  15.651  0.1298  0.1047  0.0318
24574W        W41422  12.070  17.190   4.268 -0.3596 -0.2748  0.0340
24575W        W41423  16.956  15.889  15.764  0.1533  0.0208  0.1559
24576W        W41424   7.576  15.491   6.257  0.2574  0.0400 -0.0179
24577W        W41425  10.628   7.594  13.258 -0.1256 -0.2958 -0.0110
24578W        W41426  11.598  13.817  15.873 -0.0917 -0.2218 -0.1584
24579W        W41427   4.755   0.181  15.479 -0.3821  0.1655  0.0159
24580W        W41428   0.978  10.270   1.180 -0.0755  0.2515 -0.1625
24581W        W41429  15.657  13.061  14.209 -0.0817  0.1847 -0.0014
24582W        W41430   5.096  12.157  16.503 -0.1789 -0.0051  0.0077
24583W        W41431   2.552  13.976  13.071 -0.0017 -0.0130  0.0705
24584W        W41432   4.466   5.188   3.831  0.0357  0.2120 -0.1752
24585W        W41433  11.392   6.021   0.029 -0.0143  0.0269  0.2081
24586W        W41434  13.889  16.369  14.447 -0.2393 -0.0429 -0.0731
24587W        W41435  15.372  10.967  12.619  0.1206 -0.0748  0.0958
24588W        W41436   3.408  13.546   4.384  0.3268 -0.2200  0.1224
24589W        W41437   9.821   5.162  11.308 -0.2490 -0.0552  0.1847
24590W        W41438  17.650   5.321   0.702 -0.2755  0.1540  0.1749
24591W        W41439   8.694  15.237   3.366  0.1604  0.0769 -0.1112
24592W        W41440   6.889  12.317  15.149 -0.0623  0.2531  0.1502
24593W        W41441   5.392   6.665   4.233  0.0828 -0.1156  0.0545
24594W        W41442   8.338  11.899   4.772 -0.2228 -0.1059  0.1492
24595W        W41443   5.874   8.644  14.933 -0.1259 -0.0839  0.1844
24596W        W41444   6.044   7.610   2.827  0.0622 -0.1925  0.1252
24597W        W41445   1.620   6.466   4.384  0.0990  0.3112 -0.0319
24598W        W41446   5.672  17.417  16.466  0.0975 -0.2912  0.3210
24599W        W41447  13.608  12.666  12.201  0.1311 -0.1335  0.1728
24600W        W41448   2.422   1.584   3.734 -0.0467  0.0757 -0.2117
24601W        W41449   5.502  12.768   0.645 -0.0602 -0.0076  0.0776
24602W        W41450   9.307  13.219   5.414 -0.0457  0.0567  0.3241
24603W        W41451   1.194  12.229  13.692 -0.2538  0.0881 -0.3360
24604W        W41452   3.326  10.475  12.505  0.0403 -0.1199  0.0441
24605W        W41453  14.202   7.962   3.179 -0.2569 -0.3283 -0.0274
24606W        W41454  15.994   3.604  13.970 -0.0671  0.0122  0.1533
24607W        W41455  12.840   9.622  11.862 -0.2481 -0.3334 -0.0394
24608W        W41456  14.472  16.766   3.898  0.1380 -0.2366  0.0392
24609W        W41457  15.790   7.899  13.256 -0.0378  0.0433 -0.1356
24610W        W41458   4.299   6.754   1.525 -0.5199  0.2275 -0.0632
24611W        W41459   8.247   8.998   5.554  0.2665  0.0971 -0.1046
24612W        W41460  10.411  16.983  15.561 -0.0205  0.3708  0.1476
24613W        W41461   4.730  10.736  14.300 -0.2638  0.2898  0.1001
24614W        W41462   9.847   9.675   0.628  0.0135 -0.0683  0.1421
24615W        W41463   3.317   7.176   3.448 -0.2403  0.0238 -0.1208
24616W        W41464   4.531   1.369  14.962 -0.0524  0.1178 -0.2067
24617W        W41465   7.823   5.573   0.270 -0.0755 -0.1004  0.1847
24618W        W41466  13.117  10.098  11.860 -0.0152 -0.1918 -0.2847
24619W        W41467   8.695  14.975   2.371  0.1246  0.4656 -0.1617
24620W        W41468   8.380   3.087  15.559  0.1305 -0.2054  0.1335
24621W        W41469  17.332   4.809  15.133 -0.1153  0.0518 -0.0191
24622W        W41470  14.472  12.783  15.712 -0.0484  0.1220 -0.0865
24623W        W41471  14.151   4.245   3.376 -0.2450  0.0984  0.2719
24624W        W41472  11.367   7.797   2.231 -0.0421 -0.4332 -0.0017
24625W        W41473  13.936  11.240  16.289 -0.0114  0.1904 -0.2079
24626W        W41474  17.155  12.261   3.330 -0.0752  0.0425 -0.3039
24627W        W41475   1.253   5.034   4.327 -0.0879 -0.0539  0.0979
24628W        W41476   2.993  10.177  16.317  0.1824 -0.1680  0.0868
24629W        W41477  13.839   8.617   0.340 -0.2827 -0.0201  0.0393
24630W        W41478   7.067  13.121   5.099 -0.1229  0.1285  0.0552
24631W        W41479  14.457  14.908   3.873  0.1973  0.0915  0.2225
24632W        W41480  10.386   6.772  12.947  0.0123 -0.0484  0.2095
24633W        W41481  14.095  14.443   2.324 -0.0545 -0.1151 -0.2878
24634W        W41482  10.531  15.930   0.190 -0.4024 -0.0798  0.1101
24635W        W41483  16.192   0.713  11.974  0.3571  0.0017  0.2821
24636W        W41484  12.610   1.743   3.668  0.1887  0.1709 -0.2467
24637W        W41485   9.803   0.526  14.251  0.0437  0.3019  0.0816
24638W        W41486  11.964   0.492  16.231 -0.0482  0.0196 -0.1530
24639W        W41487   8.364  14.261   3.659 -0.1175  0.0083 -0.0552
24640W        W41488  12.542   8.008   4.113 -0.4940 -0.3847 -0.0453
24641W        W41489  10.014  11.892  11.565 -0.1178  0.0848  0.0761
24642W        W41490  12.158   3.339   2.758 -0.1992  0.0149 -0.1918
24643W        W41491  10.918   5.984   1.825 -0.1658  0.2244  0.2815
24644W        W41492   0.133   8.106  12.540 -0.1968  0.0973  0.1899
24645W        W41493   4.089   5.832   0.179 -0.0007  0.0536 -0.1502
24646W        W41494  15.260   1.369  11.643 -0.0268  0.2494 -0.0358
24647W        W41495   6.114   7.158   2.498 -0.2541  0.0688 -0.4566
24648W        W41496  16.538   9.476   2.217 -0.3031 -0.0159  0.2994
24649W        W41497   9.710  11.094   4.620 -0.1988 -0.0641 -0.0523
24650W        W41498   2.820  11.137  15.378 -0.0525 -0.0824  0.1732
24651W        W41499   6.884   5.838  11.278  0.1321 -0.0734  0.1897
24652W        W41500   5.545  17.533   2.735  0.0158 -0.0050  0.1956
24653W        W41501   2.824   7.196   0.608 -0.0884 -0.0112 -0.2525
24654W        W41502   9.841  12.869  16.354 -0.4150  0.2861  0.1939
24655W        W41503   3.556   5.465   5.817 -0.1832  0.3100  0.0060
24656W        W41504   2.063  11.303   2.367 -0.0967  0.2811  0.0767
24657W        W41505   0.876  13.628   1.847  0.1832  0.1369 -0.0617
24658W        W41506   6.825  10.073   0.045  0.1399 -0.0006  0.0476
24659W        W41507  14.776   3.793  12.136 -0.0724 -0.2462 -0.4341
24660W        W41508   6.362   6.292   5.492 -0.2274 -0.0061 -0.0967
24661W        W41509  12.411  16.510  11.293  0.0049 -0.0996 -0.2122
24662W        W41510   8.980   3.028   2.635  0.0545 -0.0272  0.0151
24663W        W41511   3.042  12.838  14.438 -0.0912 -0.0760  0.4668
24664W        W41512  10.299  14.948   5.124  0.1035  0.0107  0.1065
24665W        W41513  10.705  13.571  11.189  0.2866  0.0714 -0.1033
24666W        W41514   3.541  15.878  14.677  0.1052 -0.3712 -0.2100
24667W        W41515   1.747   7.147  14.123 -0.0070  0.2293 -0.0013
24668W        W41516  16.550   0.784   5.525 -0.2139 -0.1578  0.3771
24669W        W41517  14.362   8.583  11.558 -0.0038 -0.1933  0.1418
24670W        W41518  14.632   1.591  14.582 -0.0943 -0.2382  0.1565
24671W        W41519  16.453   5.680  14.275  0.2173  0.0700 -0.0492
24672W        W41520   5.351   3.972  11.153  0.0312 -0.2722 -0.1584
24673W        W41521   1.258   8.049  16.114 -0.0626 -0.2380 -0.2627
24674W        W41522  10.386  16.253  16.396 -0.0153 -0.2373 -0.0119
24675W        W41523  15.264   2.777   1.060  0.1609  0.0130 -0.2953
24676W        W41524  14.287   2.044   2.677  0.1213  0.0669  0.0259
24677W        W41525  10.306  12.968   5.096 -0.1081 -0.0372  0.0568
24678W        W41526  13.359  16.814   3.816  0.2171  0.2214 -0.1143
24679W        W41527   9.273   3.547   1.366 -0.1619  0.2470  0.0829
24680W        W41528  15.775   4.299   4.829 -0.0673 -0.0756  0.2568
24681W        W41529  11.353   7.264  15.477 -0.3561 -0.1419 -0.0639
24682W        W41530   6.699   5.145   4.247 -0.1801 -0.2226 -0.0994
24683W        W41531   8.185   3.185   6.263  0.0212  0.0994  0.0103
24684W        W41532   2.554   8.461  12.365  0.0709 -0.1838  0.3878
24685W        W41533  14.494   0.010   0.084 -0.0697 -0.4377  0.1690
24686W        W41534   3.670  14.200   5.125  0.0011 -0.1687 -0.3106
24687W        W41535  13.597  13.632   1.324 -0.0736 -0.1699  0.1223
24688W        W41536  13.972  12.763  12.654 -0.1733  0.2487 -0.0022
24689W        W41537   5.842  17.547   1.851  0.2795 -0.0706 -0.0113
24690W        W41538   5.240  15.844   4.580 -0.0820  0.0514 -0.1254
24691W        W41539   4.198   5.371  14.311  0.1964 -0.0024  0.1470
24692W        W41540   3.367  14.342   1.048  0.1599 -0.0617  0.1877
24693W        W41541  14.296   2.962  16.324 -0.0198  0.0212 -0.2346
24694W        W41542  10.776   5.515  13.382 -0.0199  0.3366  0.1066
24695W        W41543  15.614  12.315   2.104  0.1019  0.3159 -0.1593
24696W        W41544  11.455   4.158   3.123  0.1516 -0.0673  0.1855
24697W        W41545   0.631   0.412   4.331  0.0337  0.0023  0.2061
24698W        W41546  17.488   2.305  15.086  0.2017 -0.2196  0.1906
24699W        W41547  10.301   0.564  12.401 -0.0952  0.0153 -0.0700
24700W        W41548  15.022  10.164   5.444 -0.2234 -0.0688 -0.3621
24701W        W41549  14.654  11.395   0.395  0.0625  0.1813 -0.2462
24702W        W41550   7.942  14.819   1.438 -0.3290  0.0751 -0.1154
24703W        W41551  10.203  10.981  14.642  0.2873 -0.0709  0.0909
24704W        W41552   0.382  16.957   1.262  0.2527  0.0213  0.1233
24705W        W41553  10.650  12.961  16.257  0.4058 -0.0343  0.1941
24706W        W41554  10.190  12.892  13.740 -0.0388 -0.2327 -0.0795
24707W        W41555  13.720  10.078   2.840  0.2527  0.0995  0.1805
24708W        W41556   1.100  16.267   2.618 -0.1120  0.1469 -0.0476
24709W        W41557  11.420  16.980   0.939  0.1435 -0.1011  0.0400
24710W        W41558  15.701   0.895  14.698  0.1011 -0.2002  0.1544
24711W        W41559   0.622   7.380  12.089 -0.0561 -0.2445  0.1069
24712W        W41560  17.014  15.776  13.902 -0.4466  0.0874  0.2951
24713W        W41561   7.109  10.049   3.911 -0.0149  0.1990  0.6861
24714W        W41562  13.639   0.247   1.563 -0.2241 -0.0003 -0.0344
24715W        W41563   0.406   4.689  12.270  0.1043  0.3094  0.0583
24716W        W41564   5.706   2.183   0.302  0.0439  0.1960  0.0991
24717W        W41565   3.885  15.311   3.715  0.1168 -0.4641  0.0557
24718W        W41566  11.063   7.579  15.250 -0.0334 -0.0743 -0.0945
24719W        W41567   9.691   7.340   4.168 -0.3085  0.1514  0.2580
24720W        W41568   6.119  11.567   3.784 -0.2519 -0.1456  0.0968
24721W        W41569  14.678  12.112   3.972 -0.0396 -0.0059  0.2477
24722W        W41570  13.728   8.853  12.409 -0.0791  0.5119  0.0357
24723W        W41571   9.073  15.007   0.398  0.1910  0.0542 -0.1455
24724W        W41572  17.650   0.457   5.311 -0.0210 -0.1273 -0.1046
24725W        W41573  17.459   2.296   1.482  0.2620 -0.1387 -0.1224
24726W        W41574   3.506   3.711   0.662  0.1226 -0.1358  0.1046
24727W        W41575  17.294  15.207   2.663 -0.2092  0.2713 -0.0241
24728W        W41576   8.416   1.024  14.693 -0.2994 -0.0908 -0.0719
24729W        W41577   0.452   4.986   4.722 -0.4390 -0.4360  0.1879
24730W        W41578   6.696   3.517   0.453  0.0369  0.0582  0.0059
24731W        W41579   2.882   6.934  12.514 -0.4634  0.1655  0.1255
24732W        W41580   1.449   8.831  11.426  0.0013  0.1327 -0.0635
24733W        W41581   8.481   1.465   2.677  0.2282 -0.2113  0.3834
24734W        W41582  14.180   4.707   4.823 -0.1413 -0.0684  0.2589
24735W        W41583  13.885  16.516  12.259 -0.1359  0.0969 -0.1978
24736W        W41584   2.721   5.286   0.573 -0.0100 -0.1677 -0.0316
24737W        W41585   3.254   1.589  13.424  0.0082 -0.2110 -0.2346
24738W        W41586  16.809   2.165  16.420 -0.0908 -0.0292 -0.2207
24739W        W41587   2.784   2.709  15.427 -0.0893 -0.1128 -0.1211
24740W        W41588   9.962  11.634   2.492 -0.0528 -0.0599  0.0365
24741W        W41589  12.101  11.607   0.815 -0.2451 -0.2693 -0.0288
24742W        W41590   7.617  11.270   0.556 -0.1817  0.2811 -0.1287
24743W        W41591   7.319  11.992   4.876 -0.0674 -0.3778 -0.0433
24744W        W41592   0.974  16.379   1.303 -0.0962  0.2493 -0.0343
24745W        W41593  13.851   5.618  13.375 -0.0744  0.0466 -0.0179
24746W        W41594  13.143  12.644  12.932 -0.0622  0.0866  0.0001
24747W        W41595   1.083  12.675  13.615 -0.0055 -0.0476 -0.0719
24748W        W41596  15.380   0.895  12.547  0.0391 -0.0073 -0.0086
24749W        W41597   0.536   3.407  16.597  0.2628  0.1920 -0.1607
24750W        W41598  12.448   6.688   0.643  0.1293 -0.2314  0.0456
24751W        W41599   5.895   6.309  14.313 -0.1222 -0.2825  0.0086
24752W        W41600   8.933   6.321  15.012  0.0545 -0.0995  0.0396
24753W        W41601   3.306   4.696   1.419 -0.0682  0.2787  0.0804
24754W        W41602   2.631   8.355  13.790 -0.0420  0.4026  0.2184
24755W        W41603  15.737  17.429  15.219  0.2681 -0.1200  0.1599
24756W        W41604   8.517   7.064   4.005 -0.1568  0.0784  0.0484
24757W        W41605   0.670   6.345   2.270  0.0301  0.2458 -0.0169
24758W        W41606   8.563   1.452   0.635  0.2986  0.0198  0.2986
24759W        W41607  11.852  16.200  15.077 -0.1718 -0.1449 -0.3593
24760W        W41608  15.742   1.465  13.534  0.0611 -0.1528 -0.3093
24761W        W41609  16.195   3.685  12.220 -0.1043 -0.2934  0.1710
24762W        W41610   9.982   9.963  13.117  0.1165  0.1548 -0.2349
24763W        W41611   4.107  17.023  14.493  0.0695 -0.0156  0.2960
24764W        W41612   8.520  11.517  11.430 -0.1941  0.2554 -0.0876
24765W        W41613   5.926  14.422   5.297  0.0196  0.0854  0.0841
24766W        W41614  13.040  16.328  13.463 -0.2366  0.2469 -0.3322
24767W        W41615  10.933   5.625  12.008  0.0465  0.1218 -0.1045
24768W        W41616   7.995   3.032  12.394 -0.2295 -0.1371 -0.0263
24769W        W41617  14.194  12.729   0.750 -0.1239 -0.2089  0.2309
24770W        W41618  14.455  10.249  11.458  0.2863  0.3215 -0.3232
24771W        W41619  15.585   5.153  14.978 -0.1224 -0.1214  0.2222
24772W        W41620  12.383   5.804   1.698  0.3778 -0.1229 -0.1216
24773W        W41621  15.633  11.775   3.046  0.1119 -0.1860 -0.1162
24774W        W41622   9.865  16.438   2.426 -0.3802  0.2096 -0.0305
24775W        W41623  13.995  13.068  14.552  0.0818  0.0904 -0.2108
24776W        W41624   1.334  15.045  13.870  0.1653  0.0226  0.1646
24777W        W41625   3.119  17.206  14.547  0.1668 -0.0215 -0.0180
24778W        W41626  13.443  13.035  11.647 -0.1052  0.0894  0.0701
24779W        W41627   7.501  15.350  15.332 -0.0989  0.3469 -0.1182
24780W        W41628  15.657   8.482  16.594  0.0453 -0.1553  0.0411
24781W        W41629  17.189  10.868   2.637 -0.0837  0.1485  0.1465
24782W        W41630   0.164   6.052  13.328  0.1547  0.2610  0.1324
24783W        W41631  11.504  14.847  16.107 -0.4073  0.2523 -0.1399
24784W        W41632   6.783  12.663   3.083 -0.0545 -0.1628  0.0467
24785W        W41633   5.491  17.338  11.505 -0.1067  0.1037 -0.0047
24786W        W41634   0.677   2.493   1.773 -0.1475 -0.0725  0.2284
24787W        W41635  13.799  15.674  13.520  0.2856 -0.0852 -0.1188
24788W        W41636   8.680  16.524   3.202  0.1682 -0.0384 -0.1240
24789W        W41637   7.019  13.076  14.799  0.3816 -0.0356 -0.0626
24790W        W41638  13.809  13.960   3.025 -0.2004  0.0574 -0.0543
24791W        W41639  16.541  10.155   3.565 -0.1405 -0.1250 -0.0795
24792W        W41640  14.164   0.497  13.194 -0.2096  0.1224  0.2138
24793W        W41641   0.394  16.908  13.720  0.0352 -0.2879 -0.0528
24794W        W41642   6.865   5.383   2.202  0.0391  0.0609  0.2110
24795W        W41643   9.188  14.722   5.055 -0.2640 -0.2879  0.0552
24796W        W41644   2.203   8.423   0.070  0.1206 -0.1509 -0.0828
24797W        W41645  17.504   1.047   2.188 -0.1212  0.0282  0.1480
24798W        W41646  11.149   2.136   3.874  0.3401 -0.5781 -0.2489
24799W        W41647   0.061   2.168  12.317  0.1403 -0.0243 -0.3016
24800W        W41648  10.357   6.956   2.969 -0.2900  0.3501 -0.0270
24801W        W41649  12.390  13.029   3.611 -0.1416  0.0389 -0.1747
24802W        W41650  10.261   5.092   4.643  0.1631 -0.0637  0.1900
24803W        W41651   7.773   2.649  11.643 -0.3489  0.0557  0.1527
24804W        W41652  10.150   3.936   0.081  0.2775  0.2697  0.0423
24805W        W41653   8.948   1.899  13.990 -0.2270 -0.1147  0.2242
24806W        W41654   0.103   8.818   1.149 -0.0572 -0.2525 -0.1667
24807W        W41655   6.653   7.972  11.682 -0.0085 -0.0949  0.0317
24808W        W41656   8.573  10.313  11.933  0.1517  0.0021 -0.1939
24809W        W41657   6.265  11.608  10.763 -0.0040  0.0999  0.1650
24810W        W41658  11.035  16.885   3.412  0.1531  0.2236  0.1095
24811W        W41659  15.960   7.286   4.027 -0.0235 -0.0055 -0.2284
24812W        W41660   2.415  11.869  15.067 -0.1106  0.1033 -0.2920
24813W        W41661  10.732  14.926  10.854  0.0034  0.0662 -0.3052
24814W        W41662   9.517   9.769  15.173  0.0498 -0.0727  0.1455
24815W        W41663  14.662   1.915  14.210 -0.0929 -0.2513  0.0405
24816W        W41664   5.895  13.327   2.578 -0.2103 -0.0671 -0.0560
24817W        W41665   9.755  17.416   0.083  0.0363 -0.1621  0.0564
24818W        W41666  13.750  14.009  15.939 -0.1832 -0.2737 -0.0928
24819W        W41667  11.142   0.493   4.723  0.0956 -0.1669 -0.0549
24820W        W41668  11.412  12.294  16.260  0.3017 -0.1091 -0.1680
24821W        W41669   2.632   3.017  11.725 -0.0785 -0.3135  0.1649
24822W        W41670  14.620  17.213   2.566 -0.2160 -0.2329  0.1442
24823W        W41671  14.628  11.330  14.553 -0.0981  0.2605  0.1001
24824W        W41672  13.944  11.219   1.342  0.0028 -0.0850  0.1343
24825W        W41673  17.691   2.775  15.795  0.0283  0.0841  0.4712
24826W        W41674   4.281   0.867  15.174 -0.0196 -0.0612 -0.0934
24827W        W41675  11.264  11.406   5.848 -0.0725 -0.2229  0.0464
24828W        W41676   0.660  15.047   4.967 -0.0019 -0.1262 -0.2392
24829W        W41677  14.078  15.300  15.741  0.1124 -0.1060  0.0471
24830W        W41678   8.127   6.728  13.326 -0.2962 -0.1563 -0.0606
24831W        W41679   1.421   5.016   3.817 -0.0468 -0.1347 -0.2356
24832W        W41680   7.635   9.341   4.988 -0.1841  0.1359 -0.0395
24833W        W41681  13.252   7.100  10.458  0.1247  0.1106 -0.1604
24834W        W41682  15.707   0.779  12.980 -0.1616 -0.0694 -0.2414
24835W        W41683   9.031  15.688  13.965 -0.1283 -0.2863 -0.0014
24836W        W41684   1.681  10.539   1.651  0.0431 -0.1044 -0.0080
24837W        W41685  12.612   3.138  14.370  0.1715 -0.2779  0.2140
24838W        W41686   1.005  10.527  10.752 -0.2300 -0.1291  0.0709
24839W        W41687  10.555   3.660   4.439  0.0632 -0.1840  0.2766
24840W        W41688   0.125  12.761  11.482 -0.0395  0.1272 -0.0945
24841W        W41689  14.705   3.595   3.253  0.1832  0.1288  0.4231
24842W        W41690   2.553   3.302   3.191  0.0631 -0.3187 -0.0618
24843W        W41691  15.768   0.407  16.301 -0.4287 -0.0998  0.0388
24844W        W41692   5.253   8.355  10.573  0.2276 -0.1844 -0.1224
24845W        W41693  14.467   2.640   5.287  0.5242 -0.0326  0.4308
24846W        W41694   4.797  13.158   3.541 -0.0796 -0.0700  0.1792
24847W        W41695   8.545   4.265   3.642 -0.3142  0.3471 -0.0413
24848W        W41696  11.477   0.210   1.230 -0.2384  0.0933  0.2667
24849W        W41697   1.475   4.155   4.083  0.0351 -0.2618 -0.0127
24850W        W41698   5.338   5.538   4.861 -0.0236 -0.0197 -0.0361
24851W        W41699   6.301   0.971   1.046 -0.2431 -0.0234 -0.3001
24852W        W41700  14.426  10.374  12.966  0.0737  0.1831 -0.2430
24853W        W41701   3.811   3.712   5.511 -0.0828 -0.0038  0.0045
24854W        W41702  11.077  12.907  12.371  0.0907  0.0472 -0.3422
24855W        W41703   5.478  14.400   0.725 -0.1886 -0.0955  0.0902
24856W        W41704   0.426   7.015   0.745 -0.0711 -0.0309  0.0653
24857W        W41705   8.001  15.385  14.527  0.2362 -0.3520 -0.0199
24858W        W41706  16.795   5.254  14.011  0.2122  0.1128 -0.1223
24859W        W41707  11.160  15.898   2.277 -0.1207  0.0344  0.1711
24860W        W41708   5.297  12.896   5.236 -0.6243 -0.2288  0.2086
24861W        W41709   9.163   6.970   4.934 -0.3525 -0.1433  0.2016
24862W        W41710   9.058  12.377   4.372 -0.1522  0.2575  0.1663
24863W        W41711   8.738  12.624  12.662 -0.2973 -0.1753 -0.2228
24864W        W41712  14.372   0.938   5.307 -0.2197 -0.0758 -0.4290
24865W        W41713   5.908  16.201   4.052 -0.4407  0.0668  0.1456
24866W        W41714  16.089  13.419  11.977  0.1737 -0.0418 -0.3176
24867W        W41715   1.546   3.236  11.921 -0.0418  0.0623 -0.0518
24868W        W41716  16.181   8.293   6.120  0.1656 -0.1667  0.3191
24869W        W41717   9.019   3.387   5.314 -0.2952 -0.0435  0.1112
24870W        W41718   8.252  17.043   4.177 -0.3238 -0.1437  0.1105
24871W        W41719   8.815   5.025  14.552  0.5250  0.3299  0.0826
24872W        W41720   5.876   0.298  13.311  0.2624  0.2367  0.0128
24873W        W41721   1.816  15.014  11.509  0.1896 -0.0546  0.3729
24874W        W41722  10.909   3.247   4.981  0.0694  0.1616 -0.0819
24875W        W41723   9.093  17.392  13.227  0.0433 -0.2672 -0.2501
24876W        W41724   1.578  11.309   2.599 -0.0367  0.0564 -0.2762
24877W        W41725   6.902   0.336  12.213 -0.2866 -0.1789 -0.3534
24878W        W41726  14.378  10.427   1.429  0.0606  0.2929  0.0029
24879W        W41727   7.837   2.175  11.876  0.1173 -0.0261 -0.0975
24880W        W41728   9.435   7.661   0.572 -0.0126 -0.1713  0.1214
24881W        W41729   2.756   1.284  16.101  0.0649  0.0557  0.0780
24882W        W41730  13.323   1.868  16.625  0.1132  0.0183  0.2735
24883W        W41731  12.220  16.380   3.352  0.3501 -0.0385 -0.0103
24884W        W41732   2.157   7.422   2.935 -0.2085 -0.0681 -0.2070
24885W        W41733   2.287   7.325   2.105  0.1666 -0.0371  0.1962
24886W        W41734  15.004  11.611   2.454 -0.0058 -0.0687  0.1275
24887W        W41735   1.032   2.852  15.649  0.0662 -0.0222  0.1356
24888W        W41736  17.606  16.549  11.377  0.1736  0.1714  0.2555
24889W        W41737   4.892   5.210   0.646  0.1779  0.3757  0.0379
24890W        W41738  16.225   5.649   3.091 -0.1115  0.0690  0.2806
24891W        W41739  13.823  12.968   2.034 -0.1623 -0.4195 -0.3652
24892W        W41740  14.022  14.243   1.803 -0.1152  0.1238  0.0184
24893W        W41741   2.695   7.977   0.981 -0.1396  0.1586 -0.0544
24894W        W41742  16.697   4.418   4.431 -0.3401  0.2607 -0.1874
24895W        W41743  15.317  16.093   4.671 -0.2044 -0.2678  0.0388
24896W        W41744  16.330  14.373   0.393 -0.2491 -0.0860 -0.0296
24897W        W41745   0.845   4.985  14.058  0.1712 -0.0054 -0.0273
24898W        W41746  15.372   8.152  14.922 -0.0708 -0.0174  0.0024
24899W        W41747   6.361  11.184  11.064  0.0602  0.0831  0.0742
24900W        W41748   7.481  13.541   6.374  0.0015 -0.1534 -0.2024
24901W        W41749   8.794   3.740   5.020  0.1518 -0.2046 -0.1174
24902W        W41750  14.311  14.527  14.898  0.0443  0.0062  0.1712
24903W        W41751   7.109   5.568   4.686 -0.0682 -0.0490 -0.1838
24904W        W41752  12.717  11.991   1.452 -0.1374 -0.1678 -0.0942
24905W        W41753  10.503  15.517  14.870 -0.0219 -0.1404 -0.0118
24906W        W41754  11.662  14.252   3.650 -0.1120  0.1571  0.1224
24907W        W41755  15.508   7.120   0.626 -0.0057 -0.0599  0.2186
24908W        W41756   0.918   8.558   6.206  0.0788  0.0055 -0.0205
24909W        W41757   9.547   6.260  13.651  0.1211  0.1159  0.2590
24910W        W41758  12.718   5.363  16.537 -0.0690  0.3288 -0.1402
24911W        W41759  13.183  15.940   0.049 -0.0284  0.0533 -0.0366
24912W        W41760  17.120   7.620  10.719  0.0179 -0.4716  0.1699
24913W        W41761  11.223   1.762  16.492  0.2807  0.1283 -0.3450
24914W        W41762   6.593   7.818  15.723 -0.1110 -0.0557 -0.0453
24915W        W41763  13.943  14.910   4.851 -0.1540 -0.2958  0.0384
24916W        W41764   5.432  15.554   1.920 -0.1626 -0.0252 -0.1509
24917W        W41765  14.101   9.526   1.367  0.1962  0.1716  0.0462
24918W        W41766   8.296  14.405   1.529 -0.2295 -0.2460  0.1500
24919W        W41767   0.600  13.038   3.314 -0.4967  0.0571  0.1197
24920W        W41768   5.155  16.346   2.231 -0.4519 -0.3533 -0.0117
24921W        W41769  17.227  14.321   0.525  0.1314  0.0655  0.1224
24922W        W41770  13.132   4.088  14.483 -0.0915  0.0825  0.1046
24923W        W41771  16.416   0.081   2.056 -0.1439  0.0443 -0.4033
24924W        W41772  15.980   3.455   0.352 -0.2182 -0.3123  0.3764
24925W        W41773  10.790   7.405   3.592 -0.1616 -0.1258  0.0526
24926W        W41774  11.320  17.486   4.380 -0.1572  0.1442  0.0477
24927W        W41775  12.814   9.564  16.167  0.4796 -0.1001  0.0968
24928W        W41776   5.436   2.818  16.594  0.0320 -0.1456 -0.1157
24929W        W41777   3.909   6.832   3.027 -0.1231 -0.0010  0.1967
24930W        W41778  10.444   9.043  13.152  0.4597  0.0458  0.0299
24931W        W41779   5.047  13.020   0.726  0.3994  0.1228  0.0137
24932W        W41780  14.104   3.779  11.514 -0.3457 -0.2346  0.3090
24933W        W41781  16.929   7.023   5.833  0.2892 -0.1643 -0.0419
24934W        W41782   6.463   8.353  16.143  0.0159  0.0235 -0.1016
24935W        W41783   8.445   6.238  13.514 -0.0740 -0.0744 -0.2270
24936W        W41784   2.413  12.015  11.489 -0.2572  0.0628  0.1307
24937W        W41785  17.208  12.079   1.218  0.0787 -0.0341 -0.1273
24938W        W41786   0.076  11.634  13.118  0.0463 -0.1020 -0.1261
24939W        W41787   8.262   3.620  12.688  0.0243 -0.0559  0.1483
24940W        W41788   8.405   6.005   1.891 -0.0197  0.0812 -0.2021
24941W        W41789   2.136   3.307   3.921 -0.4757 -0.0543 -0.1924
24942W        W41790  14.504   7.868  16.289  0.2477  0.2986  0.1447
24943W        W41791  13.478   0.776  13.446 -0.3735 -0.0052 -0.0713
24944W        W41792   5.217  12.999  12.453 -0.0011  0.2416  0.0931
24945W        W41793  13.023   2.396  16.467  0.1637 -0.2972 -0.0223
24946W        W41794   3.891  11.638   0.869  0.1002  0.1894  0.2781
24947W        W41795  17.472  15.774  14.914 -0.0141 -0.1128 -0.1119
24948W        W41796  15.813   1.254  12.917 -0.0013 -0.1330 -0.1964
24949W        W41797   0.299  17.012  12.528 -0.1624 -0.3514 -0.0961
24950W        W41798   9.451   3.203  11.190  0.2203  0.0078  0.1848
24951W        W41799   6.818  11.670  15.421 -0.2037  0.0536  0.0372
24952W        W41800  11.878   8.311  14.813  0.3146 -0.2276  0.0562
24953W        W41801   0.499   5.416  11.638  0.0981  0.0101  0.0353
24954W        W41802   3.089  10.604   2.754  0.0473 -0.0488  0.0899
24955W        W41803   3.961  16.921  12.327  0.1113  0.0775  0.1602
24956W        W41804   9.737   9.522  12.110 -0.0162  0.2218  0.1994
24957W        W41805  16.372  17.275  13.057 -0.2100  0.0930  0.3482
24958W        W41806  10.820   2.037   4.201  0.2260 -0.0347  0.2932
24959W        W41807   0.513   7.954  15.138  0.5195  0.2562  0.2265
24960W        W41808   3.681   2.284   0.598 -0.2996  0.0012 -0.0740
24961W        W41809   6.479   7.364  15.589 -0.0930  0.2742  0.3654
24962W        W41810   1.327  13.933   0.286  0.2124  0.2839 -0.0707
24963W        W41811   1.947  17.588  15.224 -0.0254 -0.0312 -0.1895
24964W        W41812   6.724   1.161   3.543  0.1019  0.1867 -0.0128
24965W        W41813   8.472  11.245   1.224 -0.3397  0.4390 -0.2406
24966W        W41814  12.137   3.301  12.265 -0.1396  0.0091 -0.0351
24967W        W41815  16.701  15.911  15.251  0.1393 -0.0174 -0.1898
24968W        W41816  14.161   7.512   2.382  0.3166 -0.2807 -0.2938
24969W        W41817  11.083   8.153   2.972 -0.1348  0.2476  0.3064
24970W        W41818  10.805   1.345  15.375  0.0950  0.0044 -0.0583
24971W        W41819  17.211   5.561   2.878  0.3078  0.0064 -0.2692
24972W        W41820   1.343   3.359  14.833 -0.0271  0.2230  0.1185
24973W        W41821  16.359   3.886   1.045 -0.2025  0.0673 -0.1574
24974W        W41822   2.452   2.035  15.967  0.0099 -0.3460  0.1604
24975W        W41823   4.318   8.621  14.146  0.0263 -0.3560 -0.4297
24976W        W41824   9.539  15.172  14.535  0.0972 -0.0242  0.0251
24977W        W41825   4.250   0.982   1.057 -0.1988  0.2444  0.2418
24978W        W41826  14.167  12.681  15.303 -0.2207  0.4196 -0.1954
24979W        W41827  15.364   3.774   4.090  0.1157  0.0287 -0.0203
24980W        W41828  10.268   5.466   1.117  0.2081 -0.0922  0.1235
24981W        W41829  15.251  13.091   2.646 -0.0360  0.3125 -0.4511
24982W        W41830  16.518  10.283   4.540  0.2094  0.1719  0.2693
24983W        W41831   5.843   0.602   0.772 -0.0642  0.2028  0.1502
24984W        W41832  10.204   4.621  12.455  0.1134  0.3108 -0.0218
24985W        W41833   8.128   8.444  16.234  0.4389 -0.4094  0.0568
24986W        W41834   5.563   5.799  13.093 -0.0512  0.0101 -0.0488
24987W        W41835  16.268  14.079   4.937 -0.0487  0.0307 -0.1803
24988W        W41836   2.611  16.951  16.119 -0.2717 -0.7381  0.2065
24989W        W41837   6.331   3.477  12.845  0.1631  0.0457 -0.0600
24990W        W41838   7.638  15.728  16.162 -0.0217  0.2952 -0.2311
24991W        W41839  14.842  10.594   1.377 -0.1108 -0.1055  0.0768
24992W        W41840  12.954  11.398   4.686 -0.1608  0.0622  0.2686
24993W        W41841  11.700   2.919  12.212  0.1692  0.2189  0.0382
24994W        W41842  16.005   0.180  15.037 -0.0466  0.1562  0.1361
24995W        W41843  15.194   6.391   0.970  0.1259  0.2703  0.0941
24996W        W41844  14.507  17.070  13.881 -0.0702  0.0360 -0.2098
24997W        W41845  14.291   3.166   3.168 -0.3295 -0.0733  0.2363
24998W        W41846  17.121  12.051   0.362  0.2872  0.1242 -0.2239
24999W        W41847  16.103  13.553  10.494 -0.1173  0.2614 -0.1644
25000W        W41848  10.502   2.906  15.937  0.2937  0.1186  0.1222
25001W        W41849   0.782  17.160  13.812 -0.0004  0.0131  0.2057
25002W        W41850   5.887  14.131   1.416  0.0338  0.1299  0.0463
25003W        W41851  12.698   7.912  13.231  0.0059 -0.0719 -0.3900
25004W        W41852   3.094   6.190  11.432  0.0916 -0.1044  0.0743
25005W        W41853   8.844   5.221   2.440 -0.0519  0.2415 -0.3366
25006W        W41854  15.351   0.487   6.332  0.0687 -0.3191 -0.1260
25007W        W41855   3.411  12.435   1.130 -0.1381  0.1498 -0.3732
25008W        W41856  10.427  13.236  14.090 -0.2393  0.0816 -0.0575
25009W        W41857  13.800   2.446   0.921 -0.2532 -0.0705  0.0786
25010W        W41858  17.095  10.567   3.031 -0.0318  0.1260  0.1435
25011W        W41859  11.838  13.405  16.458 -0.1499  0.0284 -0.1345
25012W        W41860   5.697  12.809  10.932 -0.0064  0.0582  0.2689
25013W        W41861   6.407  16.896  15.843  0.0902  0.2234 -0.0998
25014W        W41862   9.563  11.748  16.348  0.3072  0.1107 -0.2198
25015W        W41863  10.857   5.406   1.868 -0.0735  0.0126 -0.4283
25016W        W41864   5.246  12.385  14.110 -0.0177 -0.1408 -0.1661
25017W        W41865   4.938  14.383  15.202  0.0938 -0.2802 -0.1335
25018W        W41866   3.809   7.890  13.866 -0.0964  0.0933 -0.2878
25019W        W41867  14.759   5.696   1.336 -0.0047  0.0515 -0.2514
25020W        W41868  11.117  13.997  14.887 -0.2067  0.2043  0.3509
25021W        W41869  10.148   2.784  16.384  0.2586  0.1502  0.1979
25022W        W41870   5.506  15.320  12.891  0.0009  0.2261  0.1519
25023W        W41871   7.982   0.761   2.933  0.0521  0.0549 -0.3429
25024W        W41872  10.164  14.438   4.910 -0.2072 -0.3622  0.1668
25025W        W41873   7.056   3.946   1.539  0.1407 -0.1966  0.0968
25026W        W41874  14.346  10.314  12.476  0.0260  0.3029 -0.0916
25027W        W41875   6.498  14.895   6.691  0.1958 -0.0543  0.0724
25028W        W41876   6.460   6.916  12.323  0.0897  0.1026  0.1986
25029W        W41877   9.989  11.926  16.028  0.0157  0.2510  0.1822
25030W        W41878   8.488   9.225  14.616 -0.2589  0.2208 -0.0412
25031W        W41879   4.706  14.290  15.967  0.0702  0.1323 -0.2534
25032W        W41880   5.908  14.282   3.946 -0.1044  0.0148  0.1430
25033W        W41881   9.408   2.911   1.732 -0.1947 -0.1506  0.1723
25034W        W41882   7.579  14.341   0.140  0.3466  0.1241 -0.0952
25035W        W41883  15.864   3.988  16.098  0.0761 -0.1666  0.2108
25036W        W41884   5.901  14.498  10.569 -0.1670  0.2022  0.2088
25037W        W41885   6.675   4.872  11.356  0.2196 -0.0136 -0.2155
25038W        W41886  14.825   9.731  16.605 -0.0284 -0.0292  0.0205
25039W        W41887   6.586   7.038  11.470 -0.1701  0.2007 -0.0024
25040W        W41888   1.820   6.972  14.591 -0.0672  0.0604 -0.0665
25041W        W41889  10.717   2.528  11.056 -0.1417 -0.0931 -0.0637
25042W        W41890  11.873  15.182   2.974 -0.3767 -0.0272 -0.3325
25043W        W41891  14.245  12.999   2.376  0.1535 -0.1209  0.0356
25044W        W41892   6.826  16.713  11.492  0.0017  0.2489 -0.2621
25045W        W41893  11.615  11.509  13.982  0.2951 -0.1887  0.1523
25046W        W41894   7.997  16.062   0.690 -0.1186 -0.0893 -0.2110
25047W        W41895  10.646   3.674  13.787  0.1267  0.0134  0.1074
25048W        W41896   5.364   3.638  14.331 -0.1197 -0.0764  0.3870
25049W        W41897  12.466   1.816  13.459  0.1019 -0.0995 -0.1513
25050W        W41898   9.216   0.532  15.791  0.2259 -0.2785 -0.0462
25051W        W41899   1.901  15.258  16.438  0.0379 -0.1561  0.2572
25052W        W41900   6.143   7.919  13.402  0.1015  0.0757  0.1842
25053W        W41901   7.399   4.351  16.275 -0.0058  0.1297 -0.0742
25054W        W41902   4.923  13.850   0.139  0.2182 -0.0187  0.2718
25055W        W41903   5.457   7.319   1.534 -0.0964 -0.1345 -0.0742
25056W        W41904  13.402   9.656   2.780 -0.0429 -0.0482 -0.1054
25057W        W41905  10.871  15.781   0.647 -0.1000  0.2681  0.0974
25058W        W41906   4.644  14.689  12.246  0.1085 -0.1005  0.0224
25059W        W41907   5.705   3.709  15.272 -0.1325 -0.0045  0.1700
25060W        W41908  12.218  12.931  15.147 -0.0016  0.2057 -0.0730
25061W        W41909   3.631  16.295   3.747  0.1025  0.2335 -0.0171
25062W        W41910   7.931  10.265  16.086  0.0527  0.0126 -0.0492
25063W        W41911  16.935   5.406   4.768 -0.1629 -0.0946 -0.0891
25064W        W41912  12.450   4.973   0.454  0.0314 -0.1974  0.1698
25065W        W41913  14.152   2.836   4.279  0.0241  0.0618 -0.0259
25066W        W41914  10.916   1.915  12.358 -0.1802 -0.1283  0.0473
25067W        W41915  12.028   5.135  13.000  0.3331  0.1056  0.2762
25068W        W41916   9.496   3.026  11.789 -0.1326 -0.4325 -0.1220
25069W        W41917   1.782   2.350  13.882 -0.2139  0.2195 -0.1782
25070W        W41918   7.672  14.173  12.091  0.0306  0.0299 -0.0812
25071W        W41919   7.011  16.369   2.916  0.1404  0.3979 -0.0481
25072W        W41920  17.463  10.657   4.273 -0.0008  0.0090 -0.0020
25073W        W41921  16.401   4.316  14.125 -0.2113 -0.1759  0.1705
25074W        W41922   2.769  15.315  15.851 -0.3816 -0.1504 -0.3290
25075W        W41923   4.134   8.630   1.255 -0.0640  0.1669  0.1370
25076W        W41924  14.143   5.040   2.182  0.0101  0.0430  0.1137
25077W        W41925   6.441   8.818   0.810 -0.0129  0.3618 -0.0455
25078W        W41926   2.707   8.231  15.137  0.3478  0.2525 -0.0160
25079W        W41927   8.599  15.528  12.224  0.0574 -0.2220  0.1049
25080W        W41928   6.142  17.015   4.001 -0.0477  0.1293 -0.1353
25081W        W41929   9.102   5.505   4.059 -0.2306  0.0056  0.0387
25082W        W41930   8.048  12.997  13.525 -0.1630  0.1695 -0.1421
25083W        W41931   1.500   7.599  13.738  0.0665 -0.0180 -0.2352
25084W        W41932  14.054   6.948   4.427  0.0993  0.1719  0.0496
25085W        W41933  13.127  17.695   2.674 -0.2539 -0.5689  0.2488
25086W        W41934   5.861   6.151  13.362  0.0262  0.0226  0.1855
25087W        W41935  17.409  13.938   1.373 -0.2726  0.3464  0.1818
25088W        W41936   7.843   4.186   3.562 -0.1013 -0.0358  0.0094
25089W        W41937   8.784   4.852   2.844  0.5008 -0.2253  0.2379
25090W        W41938   1.387   9.692  13.324  0.1068  0.1513 -0.1584
25091W        W41939  16.881   9.563  16.425  0.1283 -0.0991 -0.1821
25092W        W41940  14.558  11.808   1.645 -0.3412  0.3924  0.0611
25093W        W41941   6.830   3.474   2.455  0.0290  0.0793 -0.2010
25094W        W41942  13.194   8.897  13.031  0.1306 -0.3542  0.0049
25095W        W41943   5.822  12.958   1.406 -0.2925 -0.1151  0.0145
25096W        W41944  13.509  16.660  14.340 -0.3640  0.1339 -0.0484
25097W        W41945   9.793  10.660  13.445  0.2129  0.1037  0.0013
25098W        W41946  15.024  11.129  14.731  0.1225 -0.0648 -0.0656
25099W        W41947   0.701  11.487  11.373 -0.1743 -0.0603 -0.0087
25100W        W41948   9.697  14.715   4.325 -0.0077 -0.0732 -0.2341
25101W        W41949   0.674   7.460   1.073  0.2225  0.0987  0.2041
25102W        W41950  11.363  10.185  15.055 -0.1499 -0.1061  0.2652
25103W        W41951  12.017   6.817  12.224  0.0124 -0.0669  0.2044
25104W        W41952  16.596   1.494  13.968  0.1639  0.2396  0.1879
25105W        W41953   8.498   9.213   2.101  0.1066 -0.0287 -0.1738
25106W        W41954   6.641   8.528   0.490  0.2392 -0.1634  0.1064
25107W        W41955   2.041   2.552   4.911  0.2048 -0.2850 -0.1450
25108W        W41956  15.480   6.067   6.370  0.4232  0.0174 -0.0066
25109W        W41957  12.470  17.162   3.464 -0.0520 -0.1418  0.1486
25110W        W41958   3.881   3.584  15.758 -0.2511  0.0528  0.3493
25111W        W41959  14.751  17.436  15.465  0.0409 -0.0970  0.0063
25112W        W41960  11.446  15.622   4.451 -0.0073 -0.0560  0.4655
25113W        W41961  10.572   4.042   4.803 -0.0100 -0.1360 -0.0177
25114W        W41962   8.845  10.501   1.849 -0.3292 -0.0666 -0.2677
25115W        W41963   2.918  16.402  12.008 -0.0288  0.0671 -0.1430
25116W        W41964   0.478  11.804   4.619 -0.4363  0.3340 -0.2183
25117W        W41965   3.191  11.636   0.584 -0.2316  0.0322  0.2493
25118W        W41966  15.200  12.193  12.538  0.1717  0.0150 -0.0154
25119W        W41967   6.889  13.034  14.108  0.1405  0.0449  0.2097
25120W        W41968  13.331  10.573   1.540  0.1192 -0.0081  0.2535
25121W        W41969   5.750   0.289  11.559  0.0832  0.1593 -0.0091
25122W        W41970  10.654  15.948  14.718  0.0223  0.0532 -0.2878
25123W        W41971   1.640  11.165   3.679 -0.2511  0.1440  0.2528
25124W        W41972   9.219   9.466  16.582  0.0763 -0.0456 -0.2810
25125W        W41973   7.177  16.287   3.442 -0.1119  0.1752  0.2297
25126W        W41974  17.309   1.407  11.835 -0.2275  0.0363 -0.2135
25127W        W41975   8.727  14.505  14.052  0.1354 -0.1289 -0.0804
25128W        W41976   8.302  10.152   2.808  0.0843 -0.3597  0.0068
25129W        W41977   5.066  16.826   0.764 -0.1186 -0.0573  0.0427
25130W        W41978  12.889  11.815  13.562  0.1007  0.0118 -0.3663
25131W        W41979   2.319   8.283   4.927 -0.2587  0.0578 -0.1253
25132W        W41980   1.051  12.980  11.876  0.1299  0.0519  0.2645
25133W        W41981   8.503   9.823   2.461  0.1227  0.1181  0.1911
25134W        W41982  11.640   9.665  10.386  0.3510 -0.0537  0.1272
25135W        W41983   5.044  12.906  15.735  0.0657 -0.0992 -0.0501
25136W        W41984  12.303   8.520  14.726  0.0795 -0.0556  0.1431
25137W        W41985   6.709   4.663  12.317 -0.2078  0.1559 -0.0581
25138W        W41986   5.811  15.718  15.313 -0.2384 -0.2360  0.0928
25139W        W41987   0.321   1.255  12.150 -0.2080 -0.1498 -0.2247
25140W        W41988  13.793   8.950   4.470 -0.3552 -0.0406  0.1204
25141W        W41989  13.379  10.647   4.703 -0.0265  0.2181  0.0445
25142W        W41990   8.004   0.623   2.303  0.0115 -0.1007  0.2223
25143W        W41991  16.867   1.970  12.370  0.0893  0.0711 -0.1735
25144W        W41992  17.340  13.089   3.314  0.1560  0.4366  0.3589
25145W        W41993  12.867  12.518   4.162  0.0627 -0.1040 -0.2719
25146W        W41994   7.629   9.704   3.515 -0.0649  0.0322  0.0001
25147W        W41995  13.547  14.775  14.491  0.1691  0.1109 -0.1288
25148W        W41996   4.912   2.294   1.574 -0.1975 -0.3739  0.2202
25149W        W41997  14.962  14.284   2.168  0.2688  0.1079  0.0015
25150W        W41998  13.809   8.518  16.159 -0.1889 -0.0483  0.5094
25151W        W41999  12.959   8.279  13.849 -0.2139  0.1121 -0.1333
25152W        W42000   4.785  17.423   1.006 -0.0064  0.2131 -0.5151
25153W        W42001  15.755   5.687  13.857  0.0296  0.2764  0.1318
25154W        W42002   1.306   3.042  12.338 -0.1549  0.3148  0.1234
25155W        W42003   8.495   0.574  12.141  0.2835 -0.2525 -0.1599
25156W        W42004   2.111   1.423  13.794  0.0729 -0.1765 -0.0451
25157W        W42005   9.064  10.768  12.332 -0.3720  0.3300 -0.3526
25158W        W42006  13.839   2.682   3.769  0.0100 -0.1878 -0.0420
25159W        W42007   2.718  16.283   0.842 -0.3588 -0.0887  0.0345
25160W        W42008  17.180  13.846   0.342 -0.1794  0.2212 -0.0746
25161W        W42009   7.222   2.802  14.600 -0.2383  0.0958  0.3318
25162W        W42010  15.826   1.791  12.687  0.1173 -0.1639  0.0805
25163W        W42011  14.547   0.293   0.501  0.0570  0.2232 -0.2875
25164W        W42012   8.355   4.073  12.840 -0.0737 -0.1217 -0.1251
25165W        W42013   5.944  17.584   1.390  0.0285 -0.1029 -0.1431
25166W        W42014  12.555  14.673   0.256  0.3217 -0.0291 -0.1193
25167W        W42015  10.642   2.454  15.431  0.0584 -0.0049 -0.2664
25168W        W42016   2.535  16.419  11.681  0.1018 -0.1691 -0.1207
25169W        W42017  11.042  14.752   4.604 -0.0384  0.2066 -0.4534
25170W        W42018   1.609   9.923   4.838  0.0864 -0.0547 -0.2475
25171W        W42019   0.735   3.262  15.979  0.2635 -0.0026 -0.1162
25172W        W42020  10.002   0.130  13.142  0.1034  0.2122  0.0298
25173W        W42021  11.237   6.416  11.665 -0.1432  0.2597  0.2091
25174W        W42022  12.158  11.984  12.169 -0.0838  0.3585  0.2156
25175W        W42023   0.057  15.581  14.380  0.2542  0.2885  0.0323
25176W        W42024   8.911  17.331  12.331 -0.0096  0.0856 -0.1192
25177W        W42025   6.064   9.656   3.203 -0.1125 -0.1927 -0.0980
25178W        W42026  13.240   6.496  14.310  0.4328 -0.1150  0.0336
25179W        W42027   4.199   0.160   3.799  0.1038  0.0571 -0.1555
25180W        W42028   8.692  16.283   3.683  0.1397  0.0825 -0.2018
25181W        W42029   9.427   1.719  15.756  0.0051 -0.1778 -0.0533
25182W        W42030   7.816   7.884  12.354 -0.3289 -0.0710  0.0582
25183W        W42031  11.569   8.728  11.413  0.0952  0.4280 -0.1405
25184W        W42032   2.731   2.929   3.496  0.1855 -0.3240  0.1722
25185W        W42033  14.109   9.518  10.859 -0.0557 -0.1164 -0.1283
25186W        W42034  10.065   8.009  16.659 -0.0279 -0.0894  0.3826
25187W        W42035   2.066  12.053  13.288  0.1925 -0.1001  0.1253
25188W        W42036  11.400  12.910   5.876 -0.1284 -0.1443 -0.0190
25189W        W42037   5.031   3.938  12.104 -0.3608  0.1514 -0.0588
25190W        W42038  12.386   9.194   6.151 -0.0841 -0.1934  0.2861
25191W        W42039   4.939  11.281  12.298  0.2591  0.0339 -0.0813
25192W        W42040   1.534   0.493   3.671  0.0631  0.2299 -0.1171
25193W        W42041  11.273   9.137  11.247 -0.3617  0.3040 -0.1889
25194W        W42042   8.958  17.656   4.216  0.0837  0.0545  0.0294
25195W        W42043  17.223   8.868   0.427 -0.2076 -0.2049 -0.1838
25196W        W42044   9.590  17.330  13.130 -0.0181 -0.0722  0.0322
25197W        W42045   8.967  13.446   3.353  0.1307  0.0935  0.0802
25198W        W42046   0.581  14.780  15.680  0.0535 -0.2814 -0.1325
25199W        W42047   3.269  11.370  14.989 -0.0157  0.0265  0.0797
25200W        W42048   5.660  17.041  16.061 -0.0075 -0.1206 -0.1510
25201W        W42049   7.548   7.629   0.898  0.1895 -0.1285 -0.0963
25202W        W42050   3.929   8.734  15.486 -0.0361 -0.0854 -0.1584
25203W        W42051   6.755  15.695   6.256  0.0970  0.0603  0.2379
25204W        W42052   6.574  14.985   2.238 -0.0309 -0.2074  0.2575
25205W        W42053   8.807   1.559   4.789  0.2424 -0.1468 -0.0209
25206W        W42054   3.204   7.788  13.922  0.1141 -0.1525 -0.0113
25207W        W42055  13.977  10.033  13.349 -0.1218 -0.1087  0.3952
25208W        W42056  15.943   9.204   1.509  0.0607 -0.0206 -0.3707
25209W        W42057   6.496  14.186   4.478 -0.1581 -0.0134 -0.1042
25210W        W42058   3.807   8.277  16.608  0.1913  0.2103  0.1394
25211W        W42059  16.715   4.352  15.143 -0.3602 -0.0669  0.0512
25212W        W42060  11.885  11.188   2.823 -0.0464  0.1363 -0.0383
25213W        W42061   0.398  13.859   2.068 -0.2795  0.1144  0.0440
25214W        W42062   7.047   1.657   3.617 -0.3129 -0.2164  0.0090
25215W        W42063   6.506   5.059  13.792 -0.2722 -0.2763  0.0944
25216W        W42064   5.215   6.059  11.514 -0.2055  0.0577  0.1535
25217W        W42065   1.086  15.938  16.441 -0.1604  0.1989 -0.1782
25218W        W42066   6.740   9.744   4.947  0.2623  0.0398 -0.0562
25219W        W42067  16.788  10.565  15.732  0.2848 -0.1773 -0.2269
25220W        W42068  12.323   8.229  15.149  0.2441 -0.2400  0.2617
25221W        W42069  15.031   4.505  12.825  0.1904 -0.0900 -0.1304
25222W        W42070   1.704  11.865  14.753 -0.0418  0.0074 -0.1052
25223W        W42071  14.813   4.916  12.794  0.3000 -0.2788 -0.4105
25224W        W42072   9.678   0.748  13.700  0.3041 -0.0759  0.0576
25225W        W42073  13.492  17.214  15.368 -0.1804 -0.3647  0.2736
25226W        W42074   5.926   8.664  16.662  0.1543  0.0076 -0.0841
25227W        W42075   6.519   8.769  12.309 -0.0170  0.1658  0.1104
25228W        W42076   6.524   7.013  14.622  0.2452  0.0306 -0.2057
25229W        W42077   3.659   5.168   1.355  0.3378  0.0813 -0.0709
25230W        W42078   4.576  10.144   4.108 -0.2642  0.0025 -0.1166
25231W        W42079  14.458  10.019   0.144  0.0503 -0.3840 -0.1011
25232W        W42080   8.960   2.129   3.040 -0.1519  0.0699  0.2147
25233W        W42081  12.083   4.763   4.264  0.1561  0.1320 -0.1095
25234W        W42082   5.162   2.106  11.388  0.2403 -0.0099  0.0675
25235W        W42083   9.900   5.019  16.478 -0.2345 -0.1222 -0.2080
25236W        W42084   3.354  17.376  15.628 -0.3128 -0.2976  0.0272
25237W        W42085   2.078  17.131   5.035  0.0655 -0.0980 -0.0014
25238W        W42086  12.186   6.762   2.428 -0.4992  0.3928 -0.1230
25239W        W42087   8.560   4.796  14.152 -0.2002 -0.0441  0.2984
25240W        W42088   6.779  11.706  10.626 -0.2959 -0.0704 -0.0111
25241W        W42089   3.962   1.501   3.000  0.0166  0.1866  0.1619
25242W        W42090   3.975  16.770  15.697  0.0018 -0.0357 -0.0029
25243W        W42091   7.200  13.190  15.280  0.1051  0.0307 -0.0305
25244W        W42092  11.082   3.031  14.693  0.0531  0.1024  0.0845
25245W        W42093   1.041   8.422  12.647  0.0190  0.0054 -0.2248
25246W        W42094   7.207   6.651   4.870  0.1088  0.3104  0.1285
25247W        W42095  17.235  16.755  11.986 -0.2622  0.0930  0.1967
25248W        W42096  14.680  14.998   3.392 -0.2487  0.2240 -0.1255
25249W        W42097  12.258  14.929   4.331  0.3188  0.0091  0.3035
25250W        W42098   9.566  14.037   0.807  0.4229  0.1270 -0.0833
25251W        W42099   1.041   0.684   3.417  0.0540  0.0292  0.0128
25252W        W42100  15.709   9.877  15.612 -0.1126 -0.0078 -0.3574
25253W        W42101   5.662  16.283   2.410  0.2211 -0.0624  0.1799
25254W        W42102   2.324   5.443   1.334 -0.1418  0.2119 -0.4290
25255W        W42103   2.914  13.312  15.242  0.2652 -0.1006 -0.0157
25256W        W42104  16.625   9.169  13.269 -0.0695 -0.0263  0.0114
25257W        W42105  15.687   3.842   1.086 -0.0384 -0.1773  0.1449
25258W        W42106  12.873  15.783  11.744  0.2215  0.1527  0.3745
25259W        W42107  12.778  14.003  15.619 -0.5245 -0.0741  0.3654
25260W        W42108   9.654   7.910  16.409 -0.2817 -0.1347 -0.2787
25261W        W42109   8.985  14.297  15.515  0.0907  0.0161  0.1135
25262W        W42110  14.214  12.099   4.114  0.2411  0.1988 -0.0762
25263W        W42111   8.458  12.411  15.550  0.0746 -0.0173  0.1310
25264W        W42112  15.839  15.390  14.465 -0.1509  0.0925 -0.0149
25265W        W42113  17.293   0.957  15.227  0.1853  0.1687 -0.0855
25266W        W42114   5.669   2.133  16.068  0.2222 -0.2039 -0.2759
25267W        W42115  10.247  15.443   4.774 -0.2677 -0.3142  0.0070
25268W        W42116   2.842  15.553   1.436 -0.0949  0.2051 -0.2002
25269W        W42117  16.067   6.756  11.636  0.2053  0.2684  0.1041
25270W        W42118   9.866   0.865  12.376 -0.1373 -0.3077 -0.0560
25271W        W42119   3.965   5.351   0.426  0.2022 -0.1231 -0.1060
25272W        W42120  12.054   9.625  15.447  0.1145 -0.0945  0.3238
25273W        W42121   3.388   4.680   2.314 -0.2781  0.0443 -0.1639
25274W        W42122  14.502  12.804   3.951 -0.1393 -0.1094  0.0162
25275W        W42123   2.508  11.249   2.121  0.2833 -0.2217 -0.2779
25276W        W42124   3.246  16.669   0.155 -0.3782 -0.3254  0.1888
25277W        W42125  10.487  16.539  15.320  0.1812 -0.0186 -0.1838
25278W        W42126   6.109   4.475  14.838  0.0380 -0.3936  0.2293
25279W        W42127  15.801   8.646  13.088  0.3135  0.0010  0.2048
25280W        W42128  13.272   3.071  13.419 -0.1884 -0.0252  0.1353
25281W        W42129   6.963   1.409   0.714  0.0711  0.0071 -0.0112
25282W        W42130   7.661  11.309  14.746 -0.1790 -0.1239 -0.1784
25283W        W42131  10.765   5.042   4.884 -0.1804  0.0422  0.0084
25284W        W42132  15.473   9.484   2.366 -0.0427  0.2203  0.0616
25285W        W42133   9.864  11.456   1.828 -0.2974 -0.5147 -0.1498
25286W        W42134   6.224   1.285   4.809  0.1345 -0.0354  0.1110
25287W        W42135   5.276   2.661   4.946 -0.1789 -0.1390  0.0084
25288W        W42136   4.653   0.643  12.920 -0.0249  0.1133 -0.0634
25289W        W42137   4.817   3.158   2.957 -0.1767 -0.0494  0.2555
25290W        W42138  14.858   0.535   6.146  0.0351  0.2524  0.0820
25291W        W42139   5.807  11.961   3.118 -0.0687  0.1129  0.2433
25292W        W42140  15.127   1.376   4.118  0.0310 -0.0758  0.0698
25293W        W42141   8.228  17.030  13.151  0.1317  0.1172  0.0531
25294W        W42142   5.407  16.253   4.279 -0.2726  0.0113  0.3583
25295W        W42143   0.510  10.447  16.080  0.0766  0.0065  0.3775
25296W        W42144   9.410   7.237   0.920 -0.2693  0.0301 -0.3088
25297W        W42145   7.647   0.131  12.213  0.0740  0.0949 -0.0255
25298W        W42146   4.973   2.365   5.687 -0.2962 -0.0817 -0.0005
25299W        W42147  17.112   9.394   5.355  0.2620  0.3434 -0.0931
25300W        W42148  13.429   2.847   2.597  0.0503  0.0296 -0.0281
25301W        W42149   8.106  12.822  16.425  0.3001  0.1381 -0.1259
25302W        W42150   6.458   5.931   0.462  0.1118 -0.0922 -0.1524
25303W        W42151   7.040  13.313   1.663 -0.3747 -0.0806  0.0043
25304W        W42152   8.111   7.450   2.382  0.2006  0.2056  0.0041
25305W        W42153   7.876  14.167  12.948 -0.0489 -0.0227 -0.0404
25306W        W42154   2.970  17.248   3.157  0.0297 -0.1529  0.1314
25307W        W42155  16.077  12.848   0.120  0.0614 -0.1658  0.1560
25308W        W42156   0.686   8.895  12.436 -0.1144  0.0229 -0.0634
25309W        W42157   2.519   9.370   4.032 -0.3553  0.4698  0.2299
25310W        W42158   2.723   3.332  13.808 -0.2377 -0.0940  0.1958
25311W        W42159  15.290   7.581  12.393 -0.3417 -0.1803  0.3216
25312W        W42160   5.100   3.157  13.294 -0.2570  0.0283  0.1729
25313W        W42161   2.806   8.759   5.787  0.0824 -0.0143 -0.0098
25314W        W42162  11.167   9.094   4.502  0.0115  0.1124 -0.0477
25315W        W42163   2.662  12.057  16.084  0.1319 -0.0627 -0.1607
25316W        W42164  14.812  17.065   2.091  0.4545  0.0691  0.1445
25317W        W42165  14.679  17.190   4.374 -0.1138 -0.2115  0.2980
25318W        W42166  17.503   6.019   2.593 -0.1486  0.2775  0.1212
25319W        W42167   2.407   5.656   6.211  0.0152 -0.2654 -0.0319
25320W        W42168   8.605   4.128  16.325 -0.2089 -0.1235 -0.1321
25321W        W42169  14.679   3.494  13.644 -0.1460 -0.0207  0.2026
25322W        W42170   3.473   6.621   3.458  0.0644  0.2622  0.2602
25323W        W42171  17.692   6.751   3.528  0.4975  0.0890 -0.1262
25324W        W42172   9.030   2.470   5.275 -0.0595  0.2056  0.3127
25325W        W42173   9.388   9.628   2.277  0.0521  0.0560 -0.1784
25326W        W42174  14.542   0.519   2.929  0.1192  0.1982  0.2701
25327W        W42175   7.165  17.026   2.095 -0.1566  0.1112 -0.1551
25328W        W42176   4.995   5.794   2.459 -0.1817  0.1167  0.0372
25329W        W42177   5.855  14.362  12.150  0.0037 -0.2850 -0.1481
25330W        W42178  16.253   6.929  15.867 -0.0504  0.2851 -0.1717
25331W        W42179  10.072  15.731  15.284  0.3075  0.0737 -0.1575
25332W        W42180  14.313   8.069  11.593 -0.1874 -0.1136 -0.1923
25333W        W42181   1.744   7.984  15.390  0.3936  0.1650  0.3838
25334W        W42182   1.370   5.207   3.065  0.0067 -0.2526  0.0034
25335W        W42183   6.101  11.330   4.216 -0.1428  0.0504  0.2141
25336W        W42184   9.298   6.173   4.709 -0.1402  0.0207  0.3887
25337W        W42185   6.706  13.966  12.185  0.1246  0.1100  0.2054
25338W        W42186  14.023   2.898   5.110  0.0519 -0.1082 -0.2843
25339W        W42187   1.385   9.758  14.123 -0.0553  0.0630 -0.0337
25340W        W42188  16.762   7.243   1.525  0.0598 -0.1617 -0.2372
25341W        W42189   6.023  14.735  15.352 -0.3237  0.0543  0.0239
25342W        W42190   7.945   9.321  15.737 -0.0044 -0.3274  0.0021
25343W        W42191  11.145  14.695   2.795  0.4247 -0.1166 -0.2792
25344W        W42192  15.533   0.104  12.054  0.1544 -0.2234  0.1943
25345W        W42193  14.703   2.396  15.102 -0.0251 -0.1164  0.1765
25346W        W42194  16.689   6.797   4.140 -0.0250  0.2732 -0.1256
25347W        W42195  17.008   8.160  16.668  0.1609  0.2123 -0.1067
25348W        W42196   6.768  12.173   3.006 -0.0027  0.0217  0.3180
25349W        W42197  12.438   2.672   1.240  0.3692 -0.2531  0.0237
25350W        W42198  15.942  16.444   3.062 -0.2808 -0.2696  0.2899
25351W        W42199  14.622  13.721   2.662 -0.3680  0.1851  0.0869
25352W        W42200   0.255   2.707   5.025 -0.0898 -0.0860  0.1262
25353W        W42201  10.100  16.528   4.835  0.2303  0.2806  0.0066
25354W        W42202   4.174   9.532  14.626 -0.0383  0.2387 -0.2352
25355W        W42203  17.132   4.444  15.434 -0.0758 -0.0792 -0.3239
25356W        W42204   3.976   4.183  15.807 -0.0766 -0.1778 -0.0247
25357W        W42205   6.661   3.808  12.991 -0.1000  0.4156  0.0646
25358W        W42206  12.797  12.380   1.113 -0.2260 -0.2876 -0.1105
25359W        W42207  13.936  10.920  11.780  0.2470 -0.0886 -0.1865
25360W        W42208   9.656  10.382   2.402 -0.2715 -0.1085  0.0683
25361W        W42209   5.000  15.418   1.239 -0.1268 -0.0211 -0.0234
25362W        W42210   6.045   9.572  15.723  0.0736 -0.0925 -0.1535
25363W        W42211  11.168  14.998  15.319  0.4022  0.1295 -0.0042
25364W        W42212   4.194   8.094  14.933 -0.2865  0.0509  0.0050
25365W        W42213  12.358   0.971   4.078 -0.0933  0.0917 -0.2026
25366W        W42214   4.499   3.778  11.899  0.3265 -0.0954 -0.0425
25367W        W42215  16.576  15.053  12.091 -0.0052  0.1791 -0.2187
25368W        W42216   2.190  10.007  16.111  0.2144 -0.0864 -0.3526
25369W        W42217  11.342  13.401  13.929 -0.2835  0.3323  0.2294
25370W        W42218   4.216   5.423  16.560 -0.1377  0.0446 -0.0113
25371W        W42219  13.484   1.475   0.366 -0.1072 -0.2248  0.0087
25372W        W42220  16.871   4.893  16.667  0.2013 -0.1287  0.2026
25373W        W42221  16.729  14.486   2.350  0.2047 -0.1694 -0.4218
25374W        W42222   6.041   9.719   0.643 -0.2853 -0.2533  0.3883
25375W        W42223  12.341   9.082  15.468  0.1926  0.0155  0.1711
25376W        W42224   2.425   9.012  15.174 -0.1216  0.1485  0.1681
25377W        W42225   3.080   2.991  13.621 -0.0087  0.0299  0.2172
25378W        W42226   0.453  10.904   0.336 -0.0277  0.0295 -0.1709
25379W        W42227   0.974   7.876  13.817 -0.1330 -0.1874  0.2638
25380W        W42228  14.394   0.525  16.092 -0.3441 -0.1880 -0.0422
25381W        W42229  10.447  13.738   3.442 -0.1725  0.0878 -0.2021
25382W        W42230  15.577  10.702   4.264 -0.1048  0.0921 -0.0614
25383W        W42231   3.384   5.072   5.554 -0.1924  0.1286  0.0213
25384W        W42232  10.073  10.283   0.621 -0.1594 -0.1196  0.2348
25385W        W42233  14.127  12.284  16.548 -0.0673  0.1261 -0.0365
25386W        W42234   6.614   4.595   1.102  0.0012 -0.0713  0.0860
25387W        W42235   8.082  17.697   5.348  0.1980 -0.0299 -0.1633
25388W        W42236   5.828  13.761  12.099 -0.0194 -0.2638 -0.0184
25389W        W42237   4.231  13.264  15.081  0.2893  0.1288 -0.1693
25390W        W42238   2.901   2.730  14.930  0.1105 -0.2363 -0.1653
25391W        W42239  10.357  10.080  15.686 -0.0652  0.3542  0.2245
25392W        W42240  12.807   4.462   4.999  0.1617 -0.1686  0.0245
25393W        W42241   6.095  10.227   0.513  0.0426 -0.1046  0.1184
25394W        W42242   2.054  14.784  14.968  0.1935  0.0660 -0.1723
25395W        W42243   7.085  15.457  10.522  0.2957  0.2841 -0.1951
25396W        W42244   2.255   1.281   2.068 -0.0821  0.1688  0.1670
25397W        W42245  10.881   8.075  11.418  0.0448 -0.0271 -0.1147
25398W        W42246  16.516   5.623   0.511  0.1137  0.0241 -0.3178
25399W        W42247  12.713  17.008  15.760 -0.1139 -0.0057  0.0886
25400W        W42248  12.080   7.367   3.046 -0.0704  0.0316  0.4559
25401W        W42249   7.807  16.974  15.738 -0.0249 -0.2180  0.2902
25402W        W42250   1.377   4.039   3.154 -0.0408 -0.3226  0.1640
25403W        W42251   6.303  14.837   3.512 -0.0015  0.1420 -0.2679
25404W        W42252  11.042   1.185   0.249 -0.4393 -0.0504  0.1906
25405W        W42253   8.712   6.717  14.721 -0.0777  0.1536  0.1289
25406W        W42254  17.437  13.352  10.430 -0.2021  0.1027  0.2511
25407W        W42255  15.841   8.995   4.075 -0.0404  0.0777 -0.1616
25408W        W42256   9.533   7.723   5.204 -0.0964  0.0280  0.2158
25409W        W42257   1.396  13.726  13.950 -0.0769 -0.3636 -0.1421
25410W        W42258  11.571   9.952   2.990 -0.0626  0.0895 -0.0141
25411W        W42259   1.618   4.846   3.218  0.1904 -0.0275 -0.1870
25412W        W42260  11.876   5.944  15.426 -0.0645 -0.2069 -0.0345
25413W        W42261   0.328   6.975   2.786  0.1438 -0.0984  0.0436
25414W        W42262  13.338   5.901  11.415  0.0150 -0.1360  0.0632
25415W        W42263   7.712   7.369  11.175 -0.1508 -0.0650 -0.0048
25416W        W42264  11.627  12.677  12.825  0.1889 -0.0372 -0.1014
25417W        W42265   5.049   6.102   0.891  0.2179  0.1086  0.3000
25418W        W42266   1.349   7.514  14.245  0.2061 -0.0861  0.1664
25419W        W42267   3.032   8.532  15.511  0.0009  0.0500 -0.0104
25420W        W42268   0.802   3.420  12.925  0.3621 -0.1107  0.1455
25421W        W42269   9.990   0.544   4.099  0.1863 -0.0594  0.0677
25422W        W42270   5.768   8.812   3.344 -0.3029 -0.2439  0.0532
25423W        W42271   9.167   8.603  12.371 -0.2209 -0.4066  0.2221
25424W        W42272  14.429   3.237  11.808  0.0053 -0.3864 -0.1331
25425W        W42273  17.045   6.888  15.344  0.1283 -0.1365  0.2280
25426W        W42274   4.739   9.820  13.376 -0.3078  0.0103  0.0286
25427W        W42275   0.983   5.052  11.491 -0.1749 -0.1710  0.0524
25428W        W42276   9.052   5.019   3.369  0.1793  0.0925 -0.1563
25429W        W42277   0.568   5.746  15.438 -0.0466  0.1646  0.0858
25430W        W42278   5.105   2.533  15.379  0.0787 -0.1971 -0.1303
25431W        W42279  15.537  13.763  15.018  0.0131 -0.1919  0.1471
25432W        W42280  17.190   9.582   4.929 -0.1956  0.2590 -0.3626
25433W        W42281   8.916  17.285  13.777  0.2415 -0.2021  0.2032
25434W        W42282   3.671  17.637   1.959  0.0039  0.1453 -0.1292
25435W        W42283  14.691  12.745  11.965 -0.1077 -0.0135  0.0795
25436W        W42284   1.747  10.375  11.955  0.0756  0.1425  0.2691
25437W        W42285  10.638   5.542  12.407 -0.0065 -0.0499 -0.0597
25438W        W42286  15.703   1.731   0.810 -0.0313 -0.1189  0.0762
25439W        W42287  15.979  12.882   2.180 -0.2421  0.1725  0.0285
25440W        W42288  13.103   6.927  14.087  0.0760  0.0651 -0.1578
25441W        W42289  12.794   0.399   2.123 -0.0044 -0.1845  0.2590
25442W        W42290  14.765   4.585  11.801 -0.3149 -0.0046  0.0946
25443W        W42291  14.607  11.867   4.395 -0.0234  0.2352  0.1037
25444W        W42292  15.573   8.912   2.373  0.2438 -0.0246 -0.0420
25445W        W42293   0.356   9.881   1.943 -0.0493  0.3002  0.2309
25446W        W42294   6.860   1.048  15.814  0.0449  0.1486 -0.4247
25447W        W42295  12.163   6.968   1.389 -0.1558  0.1147 -0.1175
25448W        W42296   3.192  17.554  13.683 -0.0832 -0.0465 -0.1174
25449W        W42297  12.143  15.773  15.970 -0.2656  0.1546  0.1839
25450W        W42298  12.874  12.446   1.642  0.1632 -0.0896  0.1264
25451W        W42299   7.825  15.766  15.689  0.0110 -0.1711 -0.1025
25452W        W42300   4.198  10.581   2.414 -0.2031  0.1619  0.1062
25453W        W42301  10.159  15.836  12.378 -0.0360 -0.4145 -0.0186
25454W        W42302  11.468   9.264  12.813  0.0420  0.1295  0.0862
25455W        W42303  16.187  13.526   4.500  0.1093 -0.1611  0.2146
25456W        W42304  13.315  14.095  16.402 -0.1685  0.0931 -0.2311
25457W        W42305   3.327   3.673  12.611 -0.1907  0.2213  0.0773
25458W        W42306  15.025  11.927  14.919 -0.0705  0.1014 -0.0913
25459W        W42307  14.888   0.938  12.114 -0.0121 -0.1265 -0.1736
25460W        W42308  13.722   5.730  11.820 -0.0812 -0.0802  0.1115
25461W        W42309  15.954   2.968  15.323  0.2391  0.0882  0.1948
25462W        W42310  16.819  13.737   1.605  0.0004 -0.0029  0.0873
25463W        W42311   7.158  17.482   4.389 -0.1024  0.1460  0.0687
25464W        W42312   8.169   7.084   4.383  0.1096  0.0194 -0.1152
25465W        W42313   4.652   8.052   4.324 -0.2683 -0.0068 -0.0758
25466W        W42314   8.337  10.688  14.470 -0.0712  0.2423 -0.1262
25467W        W42315  14.567   2.291  11.133 -0.0282  0.1070 -0.0716
25468W        W42316   8.920  14.029   3.394 -0.1901 -0.0984  0.0502
25469W        W42317   8.607   2.977  12.319  0.0657 -0.1016  0.1501
25470W        W42318   3.460   2.930   1.554 -0.2108 -0.0460 -0.1843
25471W        W42319  12.638   4.432  13.613  0.2938 -0.1561 -0.1731
25472W        W42320   9.093  13.889  15.811  0.1762  0.1777  0.0003
25473W        W42321  15.592   5.101   1.006 -0.1144 -0.0291 -0.0295
25474W        W42322   7.661  10.762  14.983  0.4209 -0.1910 -0.2433
25475W        W42323   3.491   4.763   3.705 -0.1703  0.2576 -0.0708
25476W        W42324  13.246  16.705   0.641 -0.3670  0.0896 -0.2544
25477W        W42325   4.690   0.919  14.825 -0.0013  0.2109 -0.2532
25478W        W42326   5.266  16.230  15.736  0.0692  0.1059  0.1075
25479W        W42327  16.212  14.344   2.198  0.5647  0.0597 -0.0465
25480W        W42328   5.141   2.955   3.379  0.1011 -0.0969  0.1947
25481W        W42329  15.698   2.248   2.930  0.0679  0.0202  0.1477
25482W        W42330   8.624   3.643   1.825 -0.2947  0.0326 -0.5460
25483W        W42331   7.952  13.980   3.590 -0.0629 -0.4323 -0.0515
25484W        W42332   3.939  10.489  16.150 -0.0532  0.0047 -0.0706
25485W        W42333  15.598  10.724   0.675  0.2492 -0.0100  0.0072
25486W        W42334  15.574  12.073  13.954  0.0005  0.0930 -0.3283
25487W        W42335  12.497  12.829  15.595  0.1990  0.0900 -0.2320
25488W        W42336   7.145  15.064   2.527  0.4007 -0.0944  0.0533
25489W        W42337   6.975  11.374  11.803  0.3311  0.1404 -0.3580
25490W        W42338  17.134  14.019  12.203  0.0226 -0.0133  0.1539
25491W        W42339   4.420   9.055   1.122 -0.0646  0.1872  0.0697
25492W        W42340  15.722   1.382  16.496  0.0228  0.3138 -0.0629
25493W        W42341  11.931   1.022  13.013 -0.0418 -0.3506 -0.3596
25494W        W42342   9.203   8.570  13.977  0.0598  0.3138  0.1348
25495W        W42343   1.372   7.177   2.277  0.0517 -0.3109  0.2641
25496W        W42344   5.110   9.433   1.099  0.2184  0.1897  0.3100
25497W        W42345  11.954  13.641   5.776 -0.3043 -0.1229 -0.0047
25498W        W42346   4.744   9.776   3.725 -0.0891 -0.1153 -0.0546
25499W        W42347  10.719   9.909  16.552  0.1214  0.1598  0.0558
25500W        W42348   4.838   9.888   1.029  0.4378  0.1012  0.1802
25501W        W42349   3.575   3.568  13.501  0.0333  0.1689  0.0806
25502W        W42350  15.839   0.454  12.309 -0.1052 -0.2067  0.4524
25503W        W42351   7.849   0.297  15.685  0.0412 -0.0020  0.2077
25504W        W42352   3.052   8.401  12.354 -0.1035 -0.1613 -0.0401
25505W        W42353   9.003  14.753   4.519 -0.0709 -0.2002  0.2858
25506W        W42354   9.195   3.900  15.597 -0.0436  0.4882 -0.1265
25507W        W42355   6.920  15.550   4.613 -0.0729 -0.0082  0.4015
25508W        W42356   8.749   4.690  16.210  0.0318  0.1191  0.0476
25509W        W42357   1.824   7.061   2.105  0.0518 -0.1211  0.0983
25510W        W42358  12.822  14.866   1.313 -0.1322  0.1280 -0.1996
25511W        W42359  15.199   0.838   4.176 -0.1469  0.0690  0.0426
25512W        W42360  11.318   8.595   1.371 -0.1653  0.0649 -0.0391
25513W        W42361   9.427  15.273  12.570  0.2802 -0.2465  0.1354
25514W        W42362   4.883   4.173  10.967  0.1041 -0.2040  0.1887
25515W        W42363  16.850   7.616  16.372  0.2097 -0.2208  0.0776
25516W        W42364   5.067  14.009   0.586  0.0873 -0.0128 -0.0809
25517W        W42365  11.719  12.577  15.839  0.1659 -0.1236 -0.0740
25518W        W42366   6.109   7.268  14.194 -0.1147  0.0948 -0.1395
25519W        W42367   5.121  11.326  11.807 -0.0053  0.0124  0.0413
25520W        W42368   6.249  17.650  13.490 -0.0903 -0.2310 -0.0115
25521W        W42369   1.470   7.210   2.737 -0.1065  0.0226  0.0355
25522W        W42370   2.388   3.313   0.332  0.1649  0.2168 -0.0887
25523W        W42371  10.813  16.098  16.023 -0.1276  0.0985  0.0611
25524W        W42372  12.806  14.089  13.731  0.3875  0.0945 -0.2149
25525W        W42373   1.331  13.086  13.631  0.0365 -0.2072  0.2530
25526W        W42374   1.690  11.052   1.370  0.1346  0.0929  0.0314
25527W        W42375  16.872  17.524   4.443  0.2353  0.0616 -0.2370
25528W        W42376  13.896   3.367   1.469 -0.1519  0.0572  0.2185
25529W        W42377   4.715   7.480  12.335 -0.1595 -0.2950 -0.3094
25530W        W42378   2.601  17.086  15.567  0.2124  0.2053  0.2280
25531W        W42379  16.702  17.330   0.081  0.0931  0.0215  0.1676
25532W        W42380  14.026  10.090  15.405  0.1541 -0.1613  0.0624
25533W        W42381  15.148  12.609   3.306  0.0391  0.1648  0.2754
25534W        W42382   2.514   1.720   5.604  0.0357  0.1697 -0.0752
25535W        W42383   8.956  15.930   0.605  0.1815 -0.0627  0.0831
25536W        W42384   4.038   2.839  16.227  0.0087  0.1539  0.0243
25537W        W42385   8.888   9.956  10.193  0.1525  0.0423  0.0940
25538W        W42386  12.922   2.896   1.971  0.0078  0.0653  0.0794
25539W        W42387   3.635   7.549  14.213  0.0008  0.1814  0.1155
25540W        W42388  17.167  16.788  12.490 -0.0671  0.1091  0.2582
25541W        W42389   9.295   3.040   2.224 -0.2160 -0.0465  0.0926
25542W        W42390   5.825   9.569  16.487  0.0495 -0.4881 -0.1400
25543W        W42391  17.157   4.306  15.957  0.1324  0.0261 -0.1374
25544W        W42392   3.042  13.960   0.980  0.0452  0.1786 -0.1486
25545W        W42393   6.446   6.777   5.496 -0.1505  0.0864  0.0512
25546W        W42394   6.252  10.879   2.191 -0.2789 -0.2657 -0.3674
25547W        W42395   5.085   9.453  13.428  0.2722  0.1871  0.0682
25548W        W42396   1.405   3.871   1.277  0.5017 -0.0471 -0.1277
25549W        W42397   1.767   6.385  11.882  0.0781  0.1652  0.0268
25550W        W42398   3.043   9.258   4.274  0.0458  0.0822  0.1561
25551W        W42399   6.462  10.427  12.587  0.0795 -0.2440  0.0321
25552W        W42400  15.236  13.391   2.125 -0.0234 -0.2985  0.2727
25553W        W42401  11.331  13.745   4.663  0.2235 -0.2361 -0.1335
25554W        W42402  12.406   7.041   4.161 -0.0530 -0.0127  0.1151
25555W        W42403   3.726  15.380   3.209  0.1940  0.1676  0.0385
25556W        W42404  14.255   8.067  12.098 -0.2001 -0.3332 -0.0600
25557W        W42405   3.530   5.468  14.603  0.1634 -0.2443 -0.2261
25558W        W42406   5.105   5.088   3.082 -0.2484 -0.1245 -0.1147
25559W        W42407   3.787   6.460  13.469  0.0581 -0.1804  0.4291
25560W        W42408   5.685  12.600   3.244  0.0326 -0.1571  0.0012
25561W        W42409   3.598   3.157  14.338 -0.2437 -0.4265  0.0878
25562W        W42410  12.609   1.865  15.336 -0.2121  0.2642  0.0784
25563W        W42411   1.149   4.551   4.196 -0.4256  0.1368 -0.4217
25564W        W42412   7.216   9.574   1.831  0.1449  0.0031 -0.3017
25565W        W42413   7.329   5.399   2.462  0.1807  0.0007 -0.0373
25566W        W42414  14.425   4.719  15.140 -0.0761  0.2234  0.2524
25567W        W42415   5.728   3.803   5.036 -0.1850  0.0414  0.0760
25568W        W42416  12.036  12.088   3.007  0.0196  0.0187 -0.0547
25569W        W42417  11.900  15.723  14.544 -0.1476  0.2308 -0.1005
25570W        W42418   9.536  14.485   5.487 -0.0800 -0.2433 -0.2728
25571W        W42419  15.334   7.497  14.438  0.0217 -0.0256  0.1067
25572W        W42420   4.727  14.750  13.080  0.0350  0.1639 -0.1231
25573W        W42421  13.445  12.472  14.699 -0.3566 -0.5336 -0.1372
25574W        W42422   7.907   8.684  12.190 -0.3453 -0.0513  0.0211
25575W        W42423  15.634   5.199  13.696 -0.1585 -0.1248  0.1011
25576W        W42424   0.005   7.653   4.960  0.0684 -0.1036  0.1482
25577W        W42425   3.007  17.576   2.787 -0.0225  0.0036 -0.2079
25578W        W42426  14.688  12.279  11.727 -0.0105 -0.0729  0.1481
25579W        W42427   2.955  13.583  13.124  0.1341 -0.0223  0.0314
25580W        W42428  14.345   5.579  11.896  0.1851  0.0318  0.0781
25581W        W42429   8.763   5.357  13.515  0.0372 -0.1185 -0.1305
25582W        W42430  13.214  10.446  12.719 -0.0056 -0.1708 -0.1627
25583W        W42431   1.045   8.220   0.235  0.0314 -0.3504  0.0070
25584W        W42432   1.355  11.791  12.315 -0.0325 -0.0306  0.0069
25585W        W42433   0.560   8.248   5.105 -0.1075 -0.2288  0.0958
25586W        W42434  13.688   9.582  11.138  0.0102 -0.1776 -0.3549
25587W        W42435  11.159   5.298  14.367  0.2391  0.0956 -0.5384
25588W        W42436  16.554  11.484   0.270  0.0912 -0.1236 -0.1033
25589W        W42437   8.804  17.132  14.853  0.3074  0.1230  0.1081
25590W        W42438  11.119  16.459  13.184  0.1999  0.2257  0.2185
25591W        W42439   7.539  11.888   3.110 -0.2976  0.1537  0.0915
25592W        W42440   9.456  11.960  15.202 -0.0383  0.3219  0.1839
25593W        W42441  12.670  15.968   0.898  0.0510 -0.1444  0.3292
25594W        W42442  12.938  14.719  15.071 -0.2553  0.3643  0.0696
25595W        W42443   3.903   7.815   4.836 -0.0122  0.1713  0.3204
25596W        W42444   7.540  17.320  12.045 -0.0246 -0.0450  0.0797
25597W        W42445  14.192  14.664  13.214  0.3993 -0.0409 -0.5294
25598W        W42446   5.134   6.820   0.408  0.0880 -0.0229 -0.0037
25599W        W42447  12.556   4.289  16.535 -0.3781  0.0140  0.0194
25600W        W42448  11.045   1.586   3.694 -0.1748 -0.3189 -0.0279
25601W        W42449   3.835   2.244  16.633  0.2249  0.2143 -0.1598
25602W        W42450   2.439   4.642  14.473 -0.0670  0.1348  0.1267
25603W        W42451  11.002   6.845  15.520 -0.0810 -0.0845  0.1297
25604W        W42452   0.883   9.928   5.166 -0.0584 -0.2848  0.2256
25605W        W42453   1.340  13.329  13.146  0.0415  0.1011  0.1144
25606W        W42454   2.582   7.106   0.195 -0.1467  0.1481 -0.0254
25607W        W42455  12.047  16.969   5.706  0.0114 -0.1375 -0.1352
25608W        W42456  11.935  11.990  13.589  0.0053 -0.1350 -0.1750
25609W        W42457  15.370   0.610   1.514  0.2536 -0.1313  0.0249
25610W        W42458   1.148   4.610   3.264 -0.0236  0.3361 -0.1685
25611W        W42459   4.580   9.046  11.145 -0.0556 -0.0625  0.1441
25612W        W42460   5.228   3.567   2.192  0.0705  0.0031  0.0800
25613W        W42461   3.061   0.122   2.169  0.1447 -0.0102 -0.0701
25614W        W42462   2.561   7.665   6.025  0.1527  0.0859 -0.0264
25615W        W42463   3.672  11.904  11.818  0.0669 -0.1318 -0.0221
25616W        W42464  15.903   5.204  12.453  0.0388  0.1708  0.0858
25617W        W42465   6.422   9.254   0.654 -0.1522 -0.0760  0.3439
25618W        W42466   8.871   3.122  14.463  0.1986 -0.0094  0.2548
25619W        W42467   3.464  15.366   5.217  0.1137  0.2264  0.1341
25620W        W42468   9.888   4.441  16.625  0.1137  0.1235  0.1414
25621W        W42469   0.086  15.553   0.866 -0.0889 -0.0900 -0.0770
25622W        W42470   5.808  10.091  15.774  0.0680 -0.2682  0.1723
25623W        W42471   3.247  11.318   4.010 -0.1559 -0.0017  0.1465
25624W        W42472  14.218   0.990   4.201 -0.0112  0.1387  0.1428
25625W        W42473   5.383  16.003  13.553 -0.1472 -0.0256 -0.0075
25626W        W42474  10.135  11.055   3.270  0.0640  0.2280 -0.0622
25627W        W42475   3.762   0.382   3.803  0.0517 -0.1365 -0.0183
25628W        W42476  13.675   4.796  15.490 -0.1065 -0.0915 -0.0944
25629W        W42477  17.432   1.714   5.241  0.2233  0.2694 -0.2036
25630W        W42478  13.580   5.986  14.449  0.0701 -0.0765 -0.0148
25631W        W42479  16.333   3.918  15.741 -0.0189  0.0006 -0.1484
25632W        W42480   2.460  16.109  16.528  0.0734 -0.0548 -0.0781
25633W        W42481   4.894   1.735   4.980 -0.0612 -0.2776  0.0108
25634W        W42482   5.796   2.363  13.338  0.4222 -0.0684 -0.2048
25635W        W42483  10.073  14.954   4.602 -0.2202 -0.0371  0.1287
25636W        W42484   4.220  10.927  13.436  0.1429  0.4069  0.0210
25637W        W42485  15.129  10.495  14.370 -0.0317  0.0941  0.0597
25638W        W42486  10.744  17.399   2.104  0.2519  0.2453  0.1807
25639W        W42487  15.664  15.058  11.499  0.0544 -0.0427  0.0579
25640W        W42488   6.648   1.610  16.611  0.0202  0.0772  0.0160
25641W        W42489   9.827   6.732   3.912 -0.0964  0.0671 -0.1275
25642W        W42490   3.660  16.198  13.565 -0.1817  0.3591  0.0426
25643W        W42491   4.320   8.940  15.964 -0.0145  0.3412  0.0577
25644W        W42492   1.321  10.050  10.353 -0.0798  0.1577 -0.2442
25645W        W42493   3.335  14.362  15.362 -0.4049  0.1353  0.3591
25646W        W42494  16.688  16.129   1.559 -0.1789  0.2892 -0.0159
25647W        W42495  16.789   3.486   1.521 -0.0228  0.3249  0.3533
25648W        W42496   8.860  10.771  11.124  0.1821  0.4042  0.0262
25649W        W42497  10.796   0.862  15.745 -0.0681  0.1280 -0.1197
25650W        W42498   2.804  17.357  10.598 -0.0629 -0.1356  0.0537
25651W        W42499  17.517  15.531  15.684  0.3712  0.0754  0.0782
25652W        W42500  16.454   0.316  14.290  0.0382 -0.1703  0.0390
25653W        W42501   2.551  12.538   1.520 -0.3065  0.1042 -0.2486
25654W        W42502  13.424   2.339   2.451  0.0002  0.1843 -0.0485
25655W        W42503   7.619  15.479  13.194  0.2572  0.1489 -0.2247
25656W        W42504  17.185   4.340  13.450  0.4252 -0.0578 -0.1261
25657W        W42505  17.535   7.355  10.552  0.0518  0.0750  0.2809
25658W        W42506  10.635   4.721  11.433 -0.0609  0.1359  0.2746
25659W        W42507   0.265   1.591  15.667 -0.0785 -0.1288 -0.2305
25660W        W42508  13.583  13.936   0.153 -0.0911 -0.0033 -0.2780
25661W        W42509  15.785   1.695   4.223  0.2216 -0.2951 -0.2143
25662W        W42510   0.021   1.101   4.025  0.2085  0.2178 -0.1595
25663W        W42511   5.980  13.568  13.489 -0.2224 -0.1150  0.1667
25664W        W42512   5.497   9.089  13.646 -0.3193 -0.3292 -0.0739
25665W        W42513  13.083  12.307  15.084 -0.0523  0.0351  0.1974
25666W        W42514  16.582   0.468   4.738 -0.1904  0.0274  0.0728
25667W        W42515   2.637  17.383  13.289  0.2380 -0.1115  0.0685
25668W        W42516  16.190   1.003  15.804  0.1323  0.1300  0.0912
25669W        W42517  15.539  10.066  13.477 -0.1826  0.0266  0.1393
25670W        W42518   9.883   3.274  11.948  0.0656 -0.0379  0.1899
25671W        W42519   2.182  13.363   3.471 -0.0103  0.0704  0.0458
25672W        W42520  15.707   3.291   5.091 -0.1470 -0.0041 -0.0463
25673W        W42521  14.570   0.851  16.435 -0.0527  0.0521  0.1167
25674W        W42522  12.690  12.545   4.674  0.0438  0.0983 -0.0594
25675W        W42523   4.442  16.663   4.144  0.0460 -0.1424 -0.1839
25676W        W42524   9.390   3.251  14.521  0.2728 -0.0206 -0.0917
25677W        W42525   0.952  13.401  14.130 -0.1431 -0.2409  0.0026
25678W        W42526  10.059   4.857  14.969  0.1207  0.0261 -0.0774
25679W        W42527   4.952  16.192   3.121 -0.1779  0.0886  0.1438
25680W        W42528   5.372   1.871   0.097  0.0745  0.3659 -0.0933
25681W        W42529  12.305   2.676  14.243  0.1870 -0.0035 -0.0020
25682W        W42530   3.738   8.282  14.702 -0.0018  0.0446 -0.1245
25683W        W42531   3.655   9.528  11.910 -0.1131  0.2388 -0.1654
25684W        W42532  15.339   4.803   3.127  0.1070 -0.1348 -0.3812
25685W        W42533   7.857   1.116  12.698  0.2870  0.2354  0.2266
25686W        W42534   5.062   3.963  13.882 -0.0655  0.0081 -0.0538
25687W        W42535   4.950   6.782   4.515 -0.2466 -0.1911 -0.0946
25688W        W42536   4.836   8.591   3.206 -0.0883 -0.2882  0.1496
25689W        W42537   3.081  13.886  15.322 -0.2876  0.3638  0.0061
25690W        W42538   1.649  14.172  12.909 -0.1853  0.1045 -0.0038
25691W        W42539  16.315  15.034   3.459 -0.1253 -0.0671  0.2297
25692W        W42540   2.916   4.273  16.275  0.2655 -0.3775  0.3830
25693W        W42541   9.497  16.521  14.712  0.2115 -0.0104 -0.0669
25694W        W42542   4.533   0.322  14.289  0.0017  0.0540  0.0754
25695W        W42543  12.105   2.861   2.971  0.0672  0.0499 -0.2034
25696W        W42544   0.459  10.273   5.194 -0.0964 -0.0111  0.1535
25697W        W42545  16.004  13.205  16.423 -0.1309 -0.3067 -0.1092
25698W        W42546   6.490  13.079  14.658 -0.1282 -0.0791 -0.0201
25699W        W42547   0.234   8.023   5.940  0.0015 -0.1215  0.0780
25700W        W42548   6.643  12.565  15.489  0.0277 -0.2473  0.0382
25701W        W42549   8.011   3.532  12.111 -0.1770 -0.1338 -0.0556
25702W        W42550   2.711   4.186   4.870 -0.1085  0.3625 -0.0951
25703W        W42551   6.472   5.792   5.299 -0.0953 -0.2082 -0.2228
25704W        W42552   6.876   0.781   6.387  0.1076  0.1343 -0.0339
25705W        W42553   0.618  12.067   4.237 -0.0991 -0.1546 -0.1052
25706W        W42554  13.274  16.283  15.665  0.1245  0.1403  0.1175
25707W        W42555  17.448   8.461  13.917  0.2629  0.3547 -0.2987
25708W        W42556  15.536   9.598   0.801 -0.0081  0.1747 -0.0014
25709W        W42557   9.720  14.269   3.365 -0.2365  0.0771 -0.2157
25710W        W42558  11.227  11.967   1.895  0.3793  0.0675 -0.0244
25711W        W42559   6.018   5.620   3.826  0.3930 -0.0332 -0.1527
25712W        W42560  12.045  12.177   0.714  0.0012  0.1258 -0.1001
25713W        W42561  14.319   7.346  16.631 -0.0201  0.1199 -0.0553
25714W        W42562  16.846   5.969   0.713 -0.0307 -0.1078  0.0062
25715W        W42563   8.122   9.564  12.265 -0.0056  0.3037  0.1913
25716W        W42564   4.947  14.342  12.534 -0.2114  0.0908  0.1801
25717W        W42565   2.977  10.660  16.101 -0.2026 -0.0325 -0.0045
25718W        W42566  13.832  13.047   4.921  0.0416 -0.4817 -0.0456
25719W        W42567   7.382  15.541  12.336 -0.0444  0.1265  0.0435
25720W        W42568  11.092  17.563  12.202  0.0693 -0.0007 -0.1895
25721W        W42569  11.347   4.168  15.369  0.3266  0.0341 -0.2882
25722W        W42570  11.231   1.829   4.666  0.3117 -0.2157  0.0219
25723W        W42571   9.703   0.506   5.966  0.2034  0.2386 -0.2148
25724W        W42572  15.734   1.463   3.130 -0.2975 -0.2347  0.1901
25725W        W42573   7.114  10.108   2.016 -0.1794 -0.0949 -0.0020
25726W        W42574   6.205  15.317   0.575  0.1255  0.0506  0.1030
25727W        W42575  17.461  13.669   0.885  0.0332 -0.2340 -0.1107
25728W        W42576  13.832   5.804   3.217  0.1582 -0.1601 -0.2465
25729W        W42577  15.731  14.837   4.808 -0.0651 -0.0805 -0.2729
25730W        W42578   9.765  17.434   4.524  0.0682  0.0300 -0.1266
25731W        W42579  10.061   7.202   3.868  0.0167 -0.0276  0.0307
25732W        W42580  17.278  14.529  13.747 -0.1159 -0.1200 -0.0417
25733W        W42581   7.739   1.670  11.615 -0.0141  0.2949 -0.4116
25734W        W42582  12.550  16.871   1.896 -0.0187  0.0634  0.2473
25735W        W42583   1.172   6.498  12.800 -0.0423  0.0287 -0.0083
25736W        W42584   9.751   8.886   4.962 -0.2730  0.0153 -0.0007
25737W        W42585   2.545   0.923   3.454 -0.0241  0.1182  0.1200
25738W        W42586   8.876  13.987  15.079  0.3241 -0.0265  0.1239
25739W        W42587   7.712   7.677  14.894 -0.0226 -0.3353 -0.0526
25740W        W42588   0.532  14.439   3.725  0.0196  0.2131  0.0680
25741W        W42589   3.881  16.496  16.116 -0.1071 -0.1683 -0.0625
25742W        W42590   4.744   7.671  12.843  0.1141 -0.1061  0.3230
25743W        W42591  15.614   8.118   3.672  0.0481  0.1836  0.0342
25744W        W42592   7.389  10.810   1.453  0.0020  0.0991  0.2739
25745W        W42593  12.320  15.006   0.587 -0.1406  0.0638 -0.4631
25746W        W42594  10.404  15.699  12.005 -0.0891 -0.0893  0.2662
25747W        W42595   7.799  13.503  14.495 -0.1175 -0.3533 -0.2613
25748W        W42596  10.442   0.202  12.953 -0.0115  0.0534  0.3828
25749W        W42597   1.809   9.206  11.339 -0.1064  0.2794 -0.0635
25750W        W42598  12.410   1.540  15.706 -0.0264  0.0167  0.1397
25751W        W42599   4.177  12.609   0.677  0.1560  0.2327 -0.2125
25752W        W42600   2.608  11.362  11.917  0.1026  0.0079  0.1246
25753W        W42601  11.496  11.003  11.398 -0.0562  0.2713 -0.0194
25754W        W42602   9.680   4.411   1.686  0.2126  0.1051 -0.0317
25755W        W42603  13.335  15.148   1.236  0.0080  0.0110 -0.1225
25756W        W42604   8.332   0.670  12.625 -0.1204  0.0939 -0.3585
25757W        W42605   6.286  12.437   4.425  0.1116 -0.1064  0.0464
25758W        W42606   9.072  12.077  12.939  0.2066 -0.0635 -0.1568
25759W        W42607  17.189   3.905  15.598  0.0933  0.0179  0.0070
25760W        W42608   3.178   9.553   3.879 -0.0341  0.1079  0.0648
25761W        W42609   4.075   4.531   0.158 -0.1241  0.0492 -0.1069
25762W        W42610   2.725  10.224   3.803 -0.2108  0.2806 -0.1273
25763W        W42611   9.597  15.730  12.477  0.0707  0.2529 -0.2584
25764W        W42612  13.086   1.195   2.527 -0.0604  0.0792 -0.1286
25765W        W42613   4.863   4.193   0.623 -0.0182 -0.1480 -0.3209
25766W        W42614   3.621  15.709   0.887  0.1480 -0.4101 -0.1343
25767W        W42615   6.282   6.331  15.384 -0.3387  0.0341  0.0128
25768W        W42616   8.113   4.864  13.956  0.2896  0.0533 -0.0699
25769W        W42617   5.467  12.533   4.183  0.0914  0.0617 -0.1298
25770W        W42618  17.215   4.674   1.987 -0.1606 -0.0479 -0.0351
25771W        W42619  12.648  14.119   1.818 -0.1186 -0.1787  0.1120
25772W        W42620   6.999  12.404   0.250 -0.0036 -0.1472  0.0885
25773W        W42621   6.407  16.616   2.955 -0.0524 -0.0944 -0.1309
25774W        W42622  13.287   7.303   3.955 -0.2641 -0.4561 -0.4354
25775W        W42623   0.677   2.367  13.884  0.0895 -0.0703  0.1639
25776W        W42624   9.062   9.304   1.538 -0.1237  0.0499  0.2069
25777W        W42625   4.828   3.581  12.346  0.0430 -0.0116 -0.0670
25778W        W42626   3.234   1.078   6.010  0.2273  0.0905 -0.2428
25779W        W42627   3.367  11.067   5.569  0.1668  0.0576 -0.3253
25780W        W42628  10.329  13.165  15.616  0.0339  0.0005  0.3737
25781W        W42629   2.219   4.926   4.559  0.0017  0.1300 -0.1117
25782W        W42630  11.156   6.281  10.640 -0.2603 -0.0258  0.0253
25783W        W42631   8.364   1.694  13.096  0.2165  0.1752  0.1243
25784W        W42632   6.379   5.986  12.664 -0.3940  0.1805 -0.2833
25785W        W42633  17.248   8.698  12.778 -0.3986  0.0561 -0.1817
25786W        W42634   4.850   6.412  14.209  0.1500 -0.2857 -0.1203
25787W        W42635   6.234  10.293   4.374 -0.1328 -0.0582  0.1651
25788W        W42636  14.256   8.948   4.190  0.1946  0.0998  0.2685
25789W        W42637   9.096   2.412  12.532 -0.1511 -0.0342 -0.1256
25790W        W42638   6.201   0.471  15.466 -0.3415  0.1170  0.0661
25791W        W42639   6.464   5.309  16.647  0.0651 -0.0157  0.0386
25792W        W42640   6.848   7.637   1.398  0.4315 -0.0778 -0.0958
25793W        W42641  15.492   7.103   3.984 -0.1031  0.1424 -0.0549
25794W        W42642   1.187   2.318  16.286 -0.2535 -0.1300  0.1417
25795W        W42643   1.025   8.102   5.129 -0.1539 -0.2940  0.0448
25796W        W42644  14.379   5.540  13.498  0.3855 -0.1212  0.1274
25797W        W42645   5.435  13.397   2.765  0.0447  0.0336  0.3218
25798W        W42646  11.296  15.978   3.135 -0.0058  0.1664 -0.0538
25799W        W42647   5.489   3.087  13.585 -0.0475 -0.0218  0.0118
25800W        W42648  10.888  13.427   1.499 -0.0739 -0.1817 -0.4129
25801W        W42649  13.533  11.613  16.368 -0.1222 -0.2690  0.2460
25802W        W42650   2.136  10.020   4.945  0.0334 -0.0241  0.0137
25803W        W42651   4.180   4.572  16.133 -0.1145  0.1638 -0.0170
25804W        W42652   6.960   1.553  15.786 -0.0892 -0.1445  0.2190
25805W        W42653   6.784   5.080  15.351 -0.0958 -0.1560  0.1522
25806W        W42654   8.479   9.649  13.606  0.1112 -0.1690  0.0332
25807W        W42655  14.320   9.005  15.190  0.0434 -0.2837 -0.2487
25808W        W42656   5.613   8.542   2.529 -0.0966  0.0973 -0.0866
25809W        W42657   9.796  15.065   0.106  0.0878 -0.0178 -0.0031
25810W        W42658   8.079  14.537  15.485 -0.0359  0.2296 -0.3717
25811W        W42659   8.723   0.245  12.607  0.0533  0.1091  0.0753
25812W        W42660   2.276  15.607  11.933  0.2353 -0.1700 -0.3400
25813W        W42661  13.760   5.978  13.952 -0.0973  0.0232  0.1008
25814W        W42662  15.846   0.535   1.396 -0.2126  0.0302  0.1788
25815W        W42663   0.128   7.823  14.690  0.0337 -0.2453  0.0361
25816W        W42664  14.017   0.696  16.484  0.0097  0.1720  0.0550
25817W        W42665  17.384   7.229   5.008 -0.2376 -0.2060  0.1856
25818W        W42666   5.757  10.150   3.112 -0.1490 -0.0916  0.0247
25819W        W42667   7.791   3.674   2.243  0.0487  0.2760 -0.1081
25820W        W42668  10.569  16.659   0.746 -0.2585  0.1715 -0.1751
25821W        W42669   9.348  10.882   4.112  0.1364  0.0419 -0.2120
25822W        W42670  17.127  13.437  11.606 -0.1621 -0.3588  0.0531
25823W        W42671  10.182  14.911  16.512 -0.0789 -0.1257 -0.0344
25824W        W42672   5.800   7.805  16.523 -0.0723 -0.2048  0.1186
25825W        W42673  13.989  17.321   5.972 -0.1538  0.1090 -0.2498
25826W        W42674   4.834  14.771  16.193  0.2411 -0.3227  0.0492
25827W        W42675  14.466   1.021   2.957 -0.2426 -0.0509 -0.1008
25828W        W42676   7.937  16.686   5.227  0.1012  0.0275 -0.1008
25829W        W42677   8.789   2.054   4.880  0.2915 -0.1572  0.2133
25830W        W42678   9.627  10.944   6.350 -0.2165 -0.0909  0.1874
25831W        W42679   9.708   7.246  14.929 -0.0231  0.0051 -0.2643
25832W        W42680  16.344  14.876   2.355  0.2012  0.2820 -0.0734
25833W        W42681   6.009   3.252  13.103  0.3796  0.0713  0.1710
25834W        W42682   6.422  17.047   3.362 -0.0867  0.0419  0.2030
25835W        W42683  11.090  12.700   1.205  0.1033  0.0871 -0.0434
25836W        W42684   9.225   7.096  12.286 -0.1644 -0.0250 -0.1587
25837W        W42685  11.295   2.524   0.478 -0.1541  0.1354 -0.0574
25838W        W42686  13.083   9.495   2.433 -0.0153  0.2260 -0.1658
25839W        W42687  13.177  17.118   1.020 -0.1182 -0.0396 -0.0572
25840W        W42688  17.265  16.080   1.893  0.1100  0.0143  0.0952
25841W        W42689   9.948   3.541   5.076  0.4797 -0.1904 -0.0755
25842W        W42690   3.287  12.073  14.023 -0.1594  0.1522  0.0816
25843W        W42691   1.749  17.679   2.314 -0.3343 -0.4403  0.1561
25844W        W42692  15.756  13.082   2.665  0.1904  0.1111 -0.2017
25845W        W42693   3.935  11.356  14.141  0.1188  0.0240  0.1414
25846W        W42694   6.169  15.277  14.398  0.0882 -0.3768  0.3863
25847W        W42695  16.505   6.185  14.136  0.0123 -0.1614  0.0296
25848W        W42696  15.653  16.797  16.459  0.1336 -0.0162  0.3021
25849W        W42697  16.190  11.858   2.250 -0.1260 -0.0424 -0.1285
25850W        W42698   4.110  12.566   3.589 -0.0413  0.3158  0.0043
25851W        W42699   6.310  12.761  15.030 -0.3241 -0.0465 -0.2128
25852W        W42700  14.711   0.806   0.341 -0.2984 -0.0855 -0.0858
25853W        W42701  17.178  15.611  14.357 -0.0685 -0.0340  0.0535
25854W        W42702   5.432   0.958   0.749  0.0956 -0.0352 -0.1203
25855W        W42703   7.507   0.381   5.124 -0.1365 -0.0360  0.2492
25856W        W42704  14.066  11.741   0.918  0.0517 -0.0437  0.4470
25857W        W42705   9.424   4.236  16.467 -0.0889  0.1177 -0.2514
25858W        W42706   9.045   8.903   3.871 -0.1679 -0.0577 -0.0793
25859W        W42707   6.681   3.099   0.181  0.0460  0.0863  0.0410
25860W        W42708   4.483  16.773   0.227  0.0157 -0.1916 -0.0186
25861W        W42709  10.661  10.286  12.929  0.0852  0.0477 -0.1685
25862W        W42710  12.007  14.625  14.219 -0.1262  0.3437  0.0935
25863W        W42711   8.597   0.805  15.556 -0.0290 -0.0197  0.1213
25864W        W42712  13.756  10.778  13.672 -0.2483  0.0127  0.1970
25865W        W42713   4.734   5.968   6.076  0.2309 -0.0945 -0.1076
25866W        W42714   4.490   3.703   3.536  0.1531 -0.0882 -0.1159
25867W        W42715  14.045   1.263  14.442 -0.2202 -0.0474  0.2507
25868W        W42716   6.374   6.448  12.743 -0.1706 -0.1584  0.1813
25869W        W42717  16.904   6.647  10.647 -0.0866  0.3714  0.0549
25870W        W42718   7.494  10.371   1.206 -0.2591  0.0152 -0.0376
25871W        W42719   2.840   0.296   4.524  0.1004 -0.0170  0.1703
25872W        W42720  10.761  11.977   1.751 -0.1203  0.2437  0.2326
25873W        W42721   7.451   2.022   2.687  0.0162  0.1836 -0.2106
25874W        W42722   4.173   8.577   4.809 -0.0984  0.0320 -0.3216
25875W        W42723   7.541  11.996  13.360 -0.1478  0.2529 -0.0145
25876W        W42724  10.425  15.796  10.575  0.1004  0.3886  0.1935
25877W        W42725  16.487   0.726  10.989  0.4223  0.1892 -0.2456
25878W        W42726  15.301   4.430  14.799 -0.3017  0.1137 -0.4074
25879W        W42727   5.797  17.558  11.838  0.0190 -0.0701 -0.1163
25880W        W42728   3.797   4.044  11.572  0.0784 -0.1966 -0.1621
25881W        W42729   6.972   6.847   5.325 -0.0242  0.0657  0.0322
25882W        W42730   4.859  10.063  11.256  0.1117  0.3489  0.0961
25883W        W42731   4.206   3.020   6.010  0.2991 -0.0221  0.0548
25884W        W42732  14.268  11.813  14.258  0.0871 -0.0203  0.3794
25885W        W42733  15.844   6.186   5.714  0.0645  0.2100 -0.0403
25886W        W42734   2.528   7.640   0.376  0.4397 -0.2097  0.5246
25887W        W42735  11.477  12.807   4.064 -0.1469 -0.0851 -0.2560
25888W        W42736   2.378  16.614   0.048 -0.4049 -0.0031  0.3331
25889W        W42737  11.148  15.053  12.005 -0.2226  0.0919 -0.0180
25890W        W42738   1.789  13.129  14.099  0.2428  0.1068 -0.0055
25891W        W42739   7.236   3.041   1.320  0.0147  0.1275 -0.1761
25892W        W42740  13.777  12.610   3.655  0.0826  0.0386  0.0164
25893W        W42741  16.412  16.603   1.826  0.0964 -0.0281 -0.1467
25894W        W42742   1.265  11.995  14.482 -0.0711 -0.4843 -0.1278
25895W        W42743  11.360   4.280   4.120 -0.1520 -0.2727  0.4647
25896W        W42744   3.306   7.305   2.563  0.3951 -0.2075  0.0355
25897W        W42745  11.974  15.067   1.010  0.4398 -0.0166 -0.2471
25898W        W42746  16.821   1.864   3.648  0.3136 -0.0703 -0.1739
25899W        W42747   3.311   2.216  16.654 -0.0655  0.0821 -0.0542
25900W        W42748   3.164   9.091   0.342 -0.1624  0.1195 -0.0194
25901W        W42749   3.065   1.008   1.694  0.0291  0.0178 -0.1155
25902W        W42750  16.004  13.440   2.203  0.0297 -0.0797  0.0279
25903W        W42751  13.274  15.316   0.614 -0.3974  0.0089 -0.1396
25904W        W42752  11.445  13.685  16.355 -0.5439  0.0884 -0.0787
25905W        W42753   1.052   3.706  15.981 -0.1097 -0.2515 -0.3556
25906W        W42754  11.662  12.333   3.192 -0.0369  0.0362 -0.0741
25907W        W42755  12.211  15.179  11.570 -0.0753 -0.2041 -0.0897
25908W        W42756   8.826   2.606  16.324 -0.1871 -0.1551  0.0036
25909W        W42757   3.238   9.977  14.592 -0.1028 -0.0224  0.2995
25910W        W42758  13.093   0.741  15.188  0.0201 -0.0823 -0.1967
25911W        W42759  16.105   6.878  13.283 -0.0357 -0.2043 -0.2560
25912W        W42760  10.751  11.186   2.302  0.2049  0.1088  0.0579
25913W        W42761  14.035   1.980   1.195 -0.0094 -0.0163 -0.1747
25914W        W42762  12.742   5.436   1.597 -0.1151  0.0855 -0.0796
25915W        W42763   8.713  15.053  14.971  0.1300 -0.0526 -0.1773
25916W        W42764   5.483  14.457  11.828 -0.0139  0.0167  0.4855
25917W        W42765  13.102  14.547  16.272 -0.0367 -0.1664  0.0295
25918W        W42766   1.881   3.645   1.159 -0.0184  0.1278  0.0405
25919W        W42767  17.666   3.644  13.784  0.0986  0.2093  0.0040
25920W        W42768   9.813  16.001  11.144  0.1030  0.2413  0.0649
25921W        W42769  13.427  14.276  12.629 -0.2640  0.3047  0.0639
25922W        W42770  12.164   6.561  14.704  0.0098  0.3783 -0.2798
25923W        W42771   8.953   5.365   0.964 -0.1125  0.3061 -0.2240
25924W        W42772   7.617  13.282  13.710  0.0166 -0.1668  0.0289
25925W        W42773   5.696   1.730  15.693 -0.1193 -0.0467  0.1490
25926W        W42774   4.041   0.789   5.353 -0.0396 -0.0198  0.0753
25927W        W42775   5.152   5.870   3.616 -0.0472  0.2124  0.2844
25928W        W42776  13.382   9.618   2.087  0.4350  0.1208  0.1911
25929W        W42777  12.266  10.548   0.132  0.1173 -0.2452  0.2986
25930W        W42778   7.972  13.483  14.005  0.0773  0.0347 -0.2826
25931W        W42779   6.483   3.473   4.675 -0.2401 -0.1479  0.0277
25932W        W42780   3.169  11.568   6.296 -0.0509 -0.1695 -0.3823
25933W        W42781   8.356   7.166   5.822 -0.0324  0.2076  0.2392
25934W        W42782   3.496  11.243  16.414 -0.1232  0.0784  0.1492
25935W        W42783  17.186  12.095  16.579 -0.0831  0.1247 -0.2660
25936W        W42784  11.197  14.931  13.864  0.1804 -0.1269  0.0263
25937W        W42785  13.693   5.410   3.880 -0.0485  0.2243  0.0019
25938W        W42786  13.939   8.507  14.140  0.1758 -0.5214  0.1872
25939W        W42787   7.009  10.217  16.096 -0.1340 -0.0632 -0.3210
25940W        W42788   0.491  17.596  13.242 -0.1411  0.2153 -0.0634
25941W        W42789   8.710  11.801   1.761 -0.0221 -0.0616  0.0272
25942W        W42790   1.300  11.266   4.950  0.4291  0.0177 -0.1499
25943W        W42791   0.470   9.206   1.906  0.2549  0.1616  0.0770
25944W        W42792  12.034  16.151   2.856  0.3809 -0.0141  0.0543
25945W        W42793  10.900   3.713   4.856 -0.1370  0.0992  0.1286
25946W        W42794   9.447   1.581   5.435 -0.1116 -0.0309 -0.2261
25947W        W42795   9.330   4.318   5.541 -0.0151 -0.2792  0.1909
25948W        W42796   8.941  10.858  15.367  0.1594  0.2184  0.2679
25949W        W42797   5.293   2.138  11.892 -0.0064 -0.0693  0.0662
25950W        W42798   4.070   2.531  15.786 -0.1885  0.2358 -0.0160
25951W        W42799  15.133  10.129   3.093  0.1170  0.1181  0.2091
25952W        W42800  11.375   6.726   1.464  0.1250 -0.0766  0.1652
25953W        W42801  10.008  10.611  16.250 -0.1935 -0.0059 -0.1302
25954W        W42802   5.431   9.185   2.976  0.0365 -0.0798  0.1980
25955W        W42803  15.839  14.172  15.038  0.1753  0.0983 -0.0208
25956W        W42804   5.511  15.616  12.384  0.0558 -0.1092  0.1175
25957W        W42805   2.619   5.946   3.495  0.0072 -0.1171 -0.0187
25958W        W42806   8.580   1.102   5.935  0.0823 -0.2479  0.4595
25959W        W42807   4.392   1.496   4.946 -0.1286 -0.0639  0.0960
25960W        W42808  15.818  13.851  14.614  0.0881 -0.1103 -0.1395
25961W        W42809  13.948   4.904   1.728 -0.1699  0.1125 -0.1090
25962W        W42810   6.348   2.620   2.718 -0.0662 -0.0415 -0.0939
25963W        W42811  16.935   5.537   5.270  0.4168  0.1261  0.1001
25964W        W42812   9.569  12.411   0.989 -0.0061 -0.1615 -0.2912
25965W        W42813   9.271   1.346  11.481  0.2384 -0.0897 -0.1208
25966W        W42814   7.748   8.795  14.562 -0.1187  0.1931 -0.0038
25967W        W42815   9.449  13.790  11.759  0.2197  0.0160 -0.3452
25968W        W42816  14.493   5.102  15.522 -0.2519  0.0186  0.0190
25969W        W42817  12.531   7.295   1.306  0.0245  0.0474 -0.0494
25970W        W42818  15.165   2.140  11.918 -0.3237  0.2992 -0.2432
25971W        W42819   5.545  17.308   4.322 -0.1851  0.0131 -0.1532
25972W        W42820  11.031  16.789   2.897 -0.0439  0.0810  0.1608
25973W        W42821  10.347  12.035   3.842  0.2261 -0.0491  0.0141
25974W        W42822   5.817  15.772   3.774 -0.0935  0.1793 -0.1013
25975W        W42823   0.805   4.072  14.160  0.5113  0.0699 -0.0407
25976W        W42824   0.314   9.399  15.723 -0.0823 -0.2716 -0.0087
25977W        W42825   2.242  16.655   4.959 -0.1255  0.3658 -0.0177
25978W        W42826  17.155  14.822  15.328 -0.0237 -0.0488 -0.0460
25979W        W42827   9.684  14.167   4.358  0.0792  0.0570  0.1416
25980W        W42828  12.677  13.681  12.132 -0.0695  0.2324  0.2511
25981W        W42829  16.655   9.744  11.796  0.0776  0.1543  0.1810
25982W        W42830   8.386   4.253   2.498  0.0425 -0.2583 -0.3060
25983W        W42831  16.078   3.196  13.366  0.0812 -0.0325  0.0498
25984W        W42832  12.087   9.279  15.902 -0.1963 -0.2693  0.0482
25985W        W42833   5.451  15.792  14.459  0.1969 -0.3052  0.0703
25986W        W42834  14.037  10.445   5.483  0.0952  0.5423 -0.3551
25987W        W42835  11.401   8.222  11.213 -0.1303 -0.0165 -0.0980
25988W        W42836  10.188  17.011   3.747 -0.2282  0.1554 -0.0819
25989W        W42837   8.637   8.392   4.570 -0.2893  0.1241  0.2450
25990W        W42838   7.422  11.108   0.972  0.0068 -0.0092  0.0826
25991W        W42839   2.763  13.809   1.353  0.1490 -0.3436 -0.1179
25992W        W42840  12.921  17.065   2.216 -0.0404 -0.0424 -0.3026
25993W        W42841  11.236  11.919  12.566  0.0177  0.1008  0.2317
25994W        W42842  11.891  14.253  12.689 -0.0414 -0.2648 -0.2264
25995W        W42843   8.863  11.546   4.713 -0.0906  0.0102  0.0994
25996W        W42844   4.483  16.244   0.420 -0.3565 -0.0803 -0.1903
25997W        W42845  14.827   4.192  16.337 -0.4126  0.1380 -0.0510
25998W        W42846   8.069  10.164   1.847  0.0808  0.0074 -0.0735
25999W        W42847  10.754  15.746   3.183  0.1312  0.1255 -0.0454
26000W        W42848   2.352  15.134   4.036  0.1063 -0.2011  0.1363
26001W        W42849  12.308  10.170  13.934  0.2400 -0.0517 -0.1632
26002W        W42850  10.621   9.528  13.636 -0.1102 -0.1940 -0.2060
26003W        W42851  12.974  11.191  11.726  0.0458 -0.1843  0.3390
26004W        W42852  17.561   4.800  12.879 -0.0288  0.0940  0.2542
26005W        W42853   6.353   1.007  15.911  0.2416 -0.1339  0.1658
26006W        W42854   6.389   8.827   2.893  0.0851 -0.1772  0.1444
26007W        W42855  16.700   1.294  11.848 -0.1356  0.2124  0.0472
26008W        W42856  14.777   2.767  15.595  0.2197 -0.3525 -0.3243
26009W        W42857  16.918   7.577  11.827  0.1247 -0.2461  0.3708
26010W        W42858   1.055   0.802  15.818  0.2607  0.0093  0.1006
26011W        W42859  17.544   9.989   1.867  0.1683  0.1130  0.1073
26012W        W42860   9.986  11.553  14.620 -0.5923 -0.0651 -0.1397
26013W        W42861   1.255   7.141  13.856  0.2285 -0.1068 -0.0574
26014W        W42862  16.050   6.363   3.598 -0.1176 -0.0532  0.1026
26015W        W42863   2.975  13.613   2.937  0.0450  0.2707  0.1521
26016W        W42864  15.168   5.694   1.612 -0.0415  0.0897  0.0202
26017W        W42865   6.597  13.464   3.648  0.2409  0.0577 -0.1953
26018W        W42866  14.538   7.427   5.133 -0.1112 -0.2552 -0.2273
26019W        W42867  17.005  17.175   3.755  0.0717  0.1620  0.2034
26020W        W42868   5.404  11.041   0.642 -0.2047  0.2135 -0.2275
26021W        W42869  14.808  14.609  11.588 -0.2204  0.3459  0.1416
26022W        W42870   4.682   6.886  14.413 -0.0715  0.1739  0.0471
26023W        W42871   9.803   1.785   2.822  0.0471  0.0566  0.1792
26024W        W42872   4.730  15.500   4.387  0.3236  0.0918  0.2113
26025W        W42873   2.258  16.611  15.313 -0.0961 -0.0602  0.0598
26026W        W42874   8.784   2.135  12.909  0.0351  0.2146 -0.0697
26027W        W42875  14.384  14.552   1.511  0.1014  0.2717 -0.1645
26028W        W42876  15.039   7.188  13.656 -0.1687  0.0343 -0.3538
26029W        W42877   4.834  11.886   3.997  0.3818 -0.2348 -0.2796
26030W        W42878   1.448  15.488  16.391 -0.1592  0.0612  0.3046
26031W        W42879   0.738   4.310  13.171  0.1613  0.1238  0.0365
26032W        W42880   8.402   6.048   4.479  0.0276  0.1485  0.0900
26033W        W42881  15.432  15.390  16.181 -0.0786 -0.3322 -0.0248
26034W        W42882  13.447  10.467  11.108 -0.2017 -0.0715  0.0035
26035W        W42883  16.373   3.136   4.102 -0.0613 -0.1333  0.1223
26036W        W42884  14.692   9.703  14.042  0.0387 -0.2861 -0.4075
26037W        W42885   0.963   7.252   2.584  0.3092  0.1100  0.1280
26038W        W42886  16.089  17.675  15.581  0.1012 -0.0073  0.2302
26039W        W42887   9.596   3.726   2.183 -0.1309 -0.1147  0.2049
26040W        W42888  17.098  13.967  14.855 -0.1736 -0.0219 -0.0901
26041W        W42889  13.405  13.451   0.448 -0.1927 -0.1567  0.2185
26042W        W42890  14.496  11.736  12.928 -0.3827  0.0588 -0.2210
26043W        W42891  10.449   2.593  14.054 -0.0766  0.3707 -0.0220
26044W        W42892   9.684   6.829   4.381  0.2185 -0.0531 -0.2406
26045W        W42893  16.229  16.114   1.809 -0.0254  0.0130 -0.2152
26046W        W42894   9.364  17.701  12.956  0.3024 -0.2403 -0.0076
26047W        W42895  13.184   1.854  15.810 -0.0912 -0.3851  0.1637
26048W        W42896   8.159  12.416  15.064 -0.2474  0.0437  0.1781
26049W        W42897   4.474  10.645   4.002  0.1953  0.2401 -0.5165
26050W        W42898   2.227  11.691   1.989 -0.2079  0.2277 -0.0154
26051W        W42899   7.459   7.661  13.953  0.0655  0.0099  0.3027
26052W        W42900  13.179   8.640  13.528 -0.1663  0.0920  0.2280
26053W        W42901   0.058   6.760  14.040  0.2245  0.0012 -0.0021
26054W        W42902   9.506   3.271   1.003 -0.3207  0.2226  0.1762
26055W        W42903   5.996   3.244  13.674 -0.0984 -0.2039 -0.3311
26056W        W42904  12.455   5.138   1.271  0.0094  0.0635 -0.0101
26057W        W42905   9.618  11.883   1.523  0.1790 -0.0516 -0.0117
26058W        W42906  16.747  13.161  15.116  0.0690 -0.0667  0.1054
26059W        W42907  13.647   7.690  16.535  0.0940  0.0542 -0.1889
26060W        W42908   5.935  17.022   4.532  0.1423  0.2265 -0.0226
26061W        W42909   1.966  14.315   3.455  0.2994  0.0059 -0.1681
26062W        W42910   5.443   0.690   2.363  0.0718 -0.1438 -0.2684
26063W        W42911   5.784  14.813  11.998 -0.0145 -0.2256 -0.2326
26064W        W42912  10.157  14.398  16.151  0.2028 -0.1590 -0.0719
26065W        W42913  14.505   0.547  12.207 -0.0276  0.0587 -0.1837
26066W        W42914   4.745  17.006  15.097 -0.1760 -0.0285 -0.1228
26067W        W42915  15.550   9.426   4.175  0.1758  0.1637  0.2005
26068W        W42916   0.260   9.105   5.868 -0.3356 -0.0302 -0.0243
26069W        W42917  12.242  12.607   5.641 -0.2295  0.2996 -0.0733
26070W        W42918   3.284   2.278  15.630  0.1097  0.0529  0.1514
26071W        W42919  11.860   8.077  15.237  0.2763  0.1742 -0.2158
26072W        W42920   5.977  17.425   2.557  0.0457  0.1613 -0.0821
26073W        W42921   3.452   7.046   4.390  0.1782  0.5301  0.0795
26074W        W42922   4.564  11.816  11.378  0.1214 -0.2751  0.1156
26075W        W42923  11.884   6.847   4.256  0.2364 -0.0269 -0.0550
26076W        W42924  10.681  12.771   3.712  0.0640 -0.1986  0.1000
26077W        W42925   3.954   0.294  12.268  0.1727 -0.0279 -0.4126
26078W        W42926   2.729  15.131  12.991 -0.2169  0.3625 -0.0964
26079W        W42927  11.207   8.291   3.829  0.1845  0.1994 -0.1154
26080W        W42928   7.390  10.461  16.401 -0.1523 -0.2040  0.0393
26081W        W42929  17.328  17.337  15.170 -0.0344  0.0225  0.2001
26082W        W42930   8.794  10.199  16.140  0.5173 -0.1835 -0.0424
26083W        W42931   4.977   0.392  13.423 -0.1933 -0.0478  0.3699
26084W        W42932  10.771  11.222  16.079 -0.0345  0.0950  0.0234
26085W        W42933   6.543   5.536  16.214 -0.0065 -0.1381  0.0049
26086W        W42934   9.407  12.883   3.058  0.2739 -0.0726 -0.1636
26087W        W42935   4.106   7.515  14.069 -0.1023  0.0593 -0.1944
26088W        W42936   4.568  10.409  16.104  0.1447  0.0561  0.0067
26089W        W42937   5.296   3.003  15.588  0.2456 -0.0980 -0.2672
26090W        W42938  11.300  12.466   1.717 -0.2038  0.0361  0.1190
26091W        W42939  16.592   7.466  14.670 -0.2422  0.1849  0.2391
26092W        W42940   4.623  17.418  15.759 -0.0693 -0.0850  0.3785
26093W        W42941  14.327  13.976  15.697  0.1574 -0.0619 -0.2654
26094W        W42942  14.891   3.271  11.728 -0.2389 -0.2845  0.0979
26095W        W42943   2.921   6.105  14.604 -0.0654 -0.1346  0.2580
26096W        W42944  17.124  15.589  13.041 -0.2457 -0.5018 -0.0382
26097W        W42945   3.972  16.286  12.516 -0.1233 -0.0750  0.1574
26098W        W42946   9.633   1.260  16.567 -0.0246 -0.1627 -0.2586
26099W        W42947  13.846  14.656  15.258  0.4499 -0.0183 -0.0975
26100W        W42948  15.695   8.693   4.424  0.2586 -0.2238  0.0972
26101W        W42949   7.272   5.402   5.150  0.0294  0.1585  0.1944
26102W        W42950  13.455  11.979  13.490  0.0871 -0.1653  0.0006
26103W        W42951  12.444   8.748   1.284  0.0112 -0.0602  0.0547
26104W        W42952  16.022  14.227   1.518 -0.0269  0.2830  0.0059
26105W        W42953  16.903  16.794  11.575  0.0185  0.3004 -0.1097
26106W        W42954  14.031  14.589  14.445 -0.0182  0.0152 -0.3039
26107W        W42955   4.960   1.865   4.110  0.1796  0.2488 -0.4304
26108W        W42956  12.262   0.422  13.830 -0.1575 -0.1043 -0.2879
26109W        W42957   4.085   3.704   1.217 -0.0640  0.0775 -0.2648
26110W        W42958  15.230  12.281  16.455 -0.2582 -0.1080 -0.1260
26111W        W42959  14.444   7.003   4.771 -0.2222  0.2193  0.1801
26112W        W42960  16.665  12.975  14.106 -0.3399  0.3044  0.1076
26113W        W42961  15.744  17.146   4.958 -0.1678 -0.0661 -0.1594
26114W        W42962  15.139   4.011   0.292 -0.0483 -0.0961 -0.0755
26115W        W42963  14.284   2.014  16.241 -0.0870  0.2920 -0.0706
26116W        W42964  13.968  14.300   0.409 -0.3274  0.0533  0.2765
26117W        W42965   0.549   2.475  10.730  0.0522  0.0574  0.0717
26118W        W42966  12.745  16.701  11.626 -0.2867  0.1228  0.0379
26119W        W42967   2.160  10.234  13.215  0.1305  0.2688  0.0257
26120W        W42968   3.045   6.783   4.306  0.3065 -0.2708 -0.0836
26121W        W42969   1.223  14.830   4.887  0.1506 -0.2105 -0.2293
26122W        W42970   5.886   6.125   1.647 -0.0015 -0.1360  0.0450
26123W        W42971   5.477   5.238  12.874  0.1793  0.1191  0.0298
26124W        W42972  13.769   3.280   0.371  0.0384  0.0800  0.0623
26125W        W42973  16.190   8.481  11.933  0.2969  0.0364 -0.1283
26126W        W42974  15.192  17.653  12.362  0.2857  0.0080  0.0991
26127W        W42975  10.535   9.589   5.428 -0.1305 -0.0970  0.0637
26128W        W42976  17.230  13.794  13.924 -0.1188 -0.0013  0.1569
26129W        W42977   6.899  12.627   0.802  0.1024  0.2112  0.0189
26130W        W42978   9.801   5.760  14.412  0.0544 -0.3492 -0.0228
26131W        W42979  17.640  15.903  15.373  0.2430  0.0026  0.0229
26132W        W42980   5.371  16.818  12.920 -0.1372 -0.1757 -0.0833
26133W        W42981   7.606  13.979  11.624 -0.1196 -0.0210 -0.2020
26134W        W42982   4.752   1.275  11.186  0.0803  0.1377 -0.0784
26135W        W42983  13.381   8.965  16.310 -0.0534  0.1598 -0.0416
26136W        W42984  12.109   6.453  12.702  0.1596 -0.1187 -0.0847
26137W        W42985   0.332  10.582   2.145 -0.1209 -0.1127  0.1660
26138W        W42986  13.997   2.048   3.216  0.4646 -0.1216 -0.0409
26139W        W42987   3.735   9.876   3.900 -0.2376  0.2378 -0.1983
26140W        W42988   2.147  11.576  11.789 -0.2998  0.0720  0.0950
26141W        W42989  15.113  11.347  13.771 -0.0963 -0.2486 -0.0880
26142W        W42990  13.767   3.498   1.973  0.0483  0.0371 -0.3381
26143W        W42991  12.025  14.422   0.381 -0.1430 -0.0373  0.1220
26144W        W42992  16.362  12.022  16.201 -0.0946 -0.1056 -0.0440
26145W        W42993   1.695   2.127  12.047  0.2220  0.1298  0.3708
26146W        W42994  13.659   2.936   1.537 -0.0913 -0.0319 -0.0974
26147W        W42995  13.804   0.764  14.483  0.1436 -0.1994 -0.1159
26148W        W42996  17.608   0.401  12.879 -0.2720 -0.0921 -0.0027
26149W        W42997   7.672   4.834  12.060 -0.1520 -0.0283  0.0947
26150W        W42998   9.245   6.006   4.142  0.1841  0.1250  0.1201
26151W        W42999  10.418  16.253   4.111  0.3621  0.1484 -0.2462
26152W        W43000   9.613   7.306   1.980  0.0586 -0.0197 -0.0087
26153W        W43001   7.650   3.045  14.734 -0.2702 -0.1247  0.0541
26154W        W43002   1.768   8.026   1.750 -0.1778  0.0490 -0.2898
26155W        W43003  12.827   2.178  11.987 -0.3004 -0.0680  0.4736
26156W        W43004  11.197   6.681  12.760 -0.1065  0.0453 -0.1264
26157W        W43005  13.390  11.019  11.983 -0.0368  0.2224 -0.0879
26158W        W43006  16.398   6.284   5.507  0.4311 -0.0056 -0.2071
26159W        W43007  13.746   4.489   1.624  0.2286 -0.0039  0.2644
26160W        W43008   1.908  13.411   4.354 -0.1400 -0.0349 -0.0781
26161W        W43009   4.253  15.782   0.395  0.2083  0.1172 -0.3148
26162W        W43010   7.702   1.509   3.182  0.0123  0.1741 -0.0809
26163W        W43011   3.552   6.446  16.359  0.2305  0.1855  0.1208
26164W        W43012  11.613  13.760   5.452 -0.1221 -0.3453 -0.0952
26165W        W43013  10.215   9.300  14.962  0.0755 -0.0368  0.0109
26166W        W43014  14.716   0.186  16.329  0.1612  0.0556 -0.1633
26167W        W43015  10.560   1.517  11.593 -0.2061  0.0842  0.2158
26168W        W43016   0.652  10.715  15.592 -0.1637 -0.0005  0.0883
26169W        W43017   6.125  13.570  12.450 -0.0720  0.2701 -0.0654
26170W        W43018   5.494  11.262   4.621 -0.1608 -0.1507  0.2406
26171W        W43019  10.586   3.947   0.278  0.0201 -0.0010 -0.0280
26172W        W43020  12.195   7.637   4.868  0.0601  0.6123  0.1147
26173W        W43021  13.756   5.394   0.739 -0.0065  0.1036 -0.0904
26174W        W43022   1.123  14.999  13.383  0.0408  0.2419 -0.0501
26175W        W43023   3.788   2.090   4.000  0.1563  0.0918  0.2394
26176W        W43024   2.803   6.115   3.024  0.1018  0.0250 -0.2256
26177W        W43025   9.408  17.184   2.171  0.0485 -0.2095  0.0389
26178W        W43026  11.990   9.228  11.543 -0.0193  0.2597  0.2661
26179W        W43027   4.437   0.173  13.129  0.1490 -0.1863  0.0941
26180W        W43028   1.138   2.734   1.866 -0.0654  0.3680  0.3189
26181W        W43029   4.002   9.583  11.528  0.1470 -0.2429 -0.0046
26182W        W43030  11.214   0.103   3.306  0.1470  0.0048  0.1700
26183W        W43031   0.613  14.998  13.481 -0.0312  0.1387  0.0840
26184W        W43032   4.417  17.661   4.246 -0.1496  0.0273 -0.0904
26185W        W43033   5.886  11.569   5.419 -0.0502  0.2540  0.0890
26186W        W43034   0.510   5.786  11.986  0.1118 -0.1892  0.2890
26187W        W43035  10.581   9.925  11.915 -0.1871  0.1762  0.3807
26188W        W43036  13.025   5.243   5.260  0.2954 -0.1621 -0.1011
26189W        W43037   9.630   2.917   4.808 -0.0439 -0.0265 -0.0395
26190W        W43038   1.820   1.030   4.166 -0.0749  0.3196 -0.5537
26191W        W43039   2.765   9.623   6.119 -0.1737  0.0979  0.0168
26192W        W43040   1.164  13.879  11.707 -0.2016 -0.0027 -0.3714
26193W        W43041   6.411   3.948  12.585 -0.1344 -0.1092 -0.2153
26194W        W43042   9.452   0.984  15.993 -0.0154  0.0606  0.1716
26195W        W43043   9.028   9.469   0.537 -0.0270 -0.1020  0.1753
26196W        W43044   8.219   6.284  12.538  0.2246 -0.1486 -0.0779
26197W        W43045  12.058   0.466  12.098 -0.0800  0.3129 -0.0040
26198W        W43046  12.677   0.438   1.542 -0.2633  0.1937  0.0447
26199W        W43047   4.630   6.716  16.154  0.2950 -0.2471 -0.0382
26200W        W43048   4.579  13.487  12.002  0.3203 -0.1835  0.0741
26201W        W43049   6.469  13.624  13.249 -0.1180 -0.0141 -0.1081
26202W        W43050  10.916   0.439  14.142  0.0739  0.2839 -0.1782
26203W        W43051   7.256   3.563  11.579  0.1021  0.1628 -0.1779
26204W        W43052   4.945   4.069  12.585 -0.0720 -0.3231 -0.2693
26205W        W43053   6.405  15.386   6.502  0.1599 -0.0044 -0.2253
26206W        W43054   5.778  13.363   5.315 -0.0407 -0.1900  0.1194
26207W        W43055   8.774  14.471   1.863 -0.1025  0.0860 -0.1802
26208W        W43056   0.168   5.236   3.344 -0.1546  0.2536  0.0893
26209W        W43057  11.493  13.998   0.934  0.2101 -0.0920 -0.1084
26210W        W43058  11.582  10.069   0.864  0.3482 -0.0599 -0.0233
26211W        W43059   1.002   2.127  12.681 -0.2303  0.1151  0.0344
26212W        W43060   7.559  13.961  14.616  0.1043  0.0433 -0.1309
26213W        W43061   3.448  15.184   2.645  0.3030 -0.0250 -0.1058
26214W        W43062  10.732  10.174  11.555  0.2612 -0.0329  0.2119
26215W        W43063  11.613  12.774   1.335 -0.0394  0.3764  0.1543
26216W        W43064   2.835   9.663  12.100  0.0165 -0.0376  0.0301
26217W        W43065   3.432  17.475  16.373  0.1108  0.0886 -0.3568
26218W        W43066   5.328  15.598   3.693 -0.0153 -0.0630 -0.1879
26219W        W43067  11.882   7.797  14.367  0.0929 -0.2338 -0.1042
26220W        W43068   9.070   7.650   4.500  0.2227 -0.0058  0.4739
26221W        W43069  10.538  13.498   4.807  0.0640  0.0873  0.1879
26222W        W43070  16.392  14.583  10.499 -0.0187 -0.0815 -0.0002
26223W        W43071   4.135  10.378  13.766  0.0029 -0.1075 -0.0075
26224W        W43072  16.400  13.622   6.316  0.1341  0.0354 -0.0176
26225W        W43073  14.318   0.246   2.509  0.2203  0.0966  0.2936
26226W        W43074   1.158   7.551   5.876 -0.0993 -0.0547  0.0167
26227W        W43075  16.985  10.013   3.127 -0.0807  0.1835 -0.1793
26228W        W43076   3.669   2.173   1.380  0.0476  0.2985  0.2439
26229W        W43077  10.621  13.753  12.734  0.2413  0.2201 -0.0543
26230W        W43078  16.509   7.968  16.458  0.0415  0.0178  0.0249
26231W        W43079   5.169   4.966   2.062  0.2735 -0.1641  0.0740
26232W        W43080  12.841  13.584   3.225  0.0354  0.0968  0.1202
26233W        W43081   1.074  12.183   1.519  0.0092 -0.0295  0.1274
26234W        W43082   2.844   1.270   0.494 -0.0175  0.4054 -0.0069
26235W        W43083   2.103   9.389  14.497 -0.2299  0.5656 -0.1617
26236W        W43084  13.438   3.746  12.395 -0.1290  0.1704 -0.0807
26237W        W43085   9.634  11.913   5.492 -0.0243 -0.2637 -0.0318
26238W        W43086   7.547   0.545   4.559  0.0351  0.1086  0.1770
26239W        W43087  15.722  13.270   4.366 -0.0476  0.1255 -0.1772
26240W        W43088  13.156  10.343   0.013 -0.0319 -0.0760  0.1207
26241W        W43089   3.761   3.332  12.603  0.0754  0.1817  0.0689
26242W        W43090   3.634  13.168  14.626 -0.0365  0.0691  0.0395
26243W        W43091  15.313   1.424   0.205  0.0378  0.3830  0.2576
26244W        W43092  10.585  14.734   1.031  0.2800 -0.0031  0.3330
26245W        W43093  10.189  10.416  13.195 -0.2821 -0.0654  0.4038
26246W        W43094  10.427   5.187  15.219 -0.1229  0.2726 -0.0844
26247W        W43095  15.112  13.135   5.107 -0.2815 -0.0005 -0.1500
26248W        W43096   9.699  14.589   4.993 -0.1003  0.2517  0.5686
26249W        W43097  14.761   4.957  14.026 -0.1937  0.2020  0.0390
26250W        W43098   9.374   2.412  14.999 -0.0409 -0.3009 -0.0367
26251W        W43099   8.114  12.010  12.411 -0.1807 -0.0498 -0.1936
26252W        W43100   8.832  11.677   6.050  0.2444 -0.0740 -0.2866
26253W        W43101  15.730  17.416  15.763  0.0659  0.0027  0.0546
26254W        W43102  16.294  13.895   0.063 -0.0985  0.2418  0.1544
26255W        W43103  11.169   3.336   0.699 -0.3715 -0.3199  0.1121
26256W        W43104  16.277   6.550  13.849 -0.1579 -0.4043  0.1956
26257W        W43105   7.821   1.462   5.278  0.1361  0.0271 -0.0751
26258W        W43106   7.491   5.650   4.343 -0.1534  0.0681  0.0548
26259W        W43107   9.160  16.165  12.549 -0.0210  0.2723  0.1581
26260W        W43108  13.310   0.807  12.948  0.2362  0.0641  0.1148
26261W        W43109   1.654   7.943  11.638 -0.1492 -0.2607 -0.2723
26262W        W43110  13.308   8.550  11.513  0.0417 -0.2052 -0.0563
26263W        W43111   4.913   0.615   2.719 -0.0515  0.0965 -0.2383
26264W        W43112   2.774   0.839   2.363 -0.0508  0.3624  0.3704
26265W        W43113   4.630   6.362  15.502  0.0107 -0.0200 -0.1540
26266W        W43114   3.544   8.472  15.645 -0.0727 -0.0385 -0.1596
26267W        W43115   4.321  12.207  13.642  0.0715  0.1434 -0.0324
26268W        W43116   4.268   9.018   0.128 -0.0487 -0.1548 -0.1344
26269W        W43117   6.254  16.113   3.684 -0.1665  0.1862 -0.2330
26270W        W43118  12.843  11.833   3.241  0.2061  0.2057  0.2224
26271W        W43119   6.228   6.498  12.248  0.0682  0.0914 -0.1583
26272W        W43120  11.506   0.954  14.251  0.0720 -0.0765  0.0268
26273W        W43121  12.701   8.743  13.865 -0.0526 -0.4355 -0.0867
26274W        W43122  14.185   5.275   0.413 -0.1879 -0.2299 -0.2642
26275W        W43123   1.723   9.603  13.680  0.0922 -0.0186  0.2524
26276W        W43124  10.971  16.779  12.582  0.0498  0.1259  0.0321
26277W        W43125  11.341  12.042  15.148  0.2485  0.0658 -0.1605
26278W        W43126   7.594   0.884  11.865 -0.0568  0.1823 -0.0490
26279W        W43127  11.331  11.171   5.400 -0.2652 -0.2809  0.0003
26280W        W43128   2.676   7.837   3.572 -0.6411  0.1662  0.0053
26281W        W43129  10.641  13.364   1.014 -0.1393 -0.1839  0.2181
26282W        W43130   3.258  10.472  13.355 -0.1594  0.2024 -0.0020
26283W        W43131  14.001   4.178  11.796 -0.0644  0.3429 -0.0592
26284W        W43132  14.931   0.913   1.312  0.1286 -0.4517 -0.0842
26285W        W43133  11.564   6.209  15.050  0.0926 -0.1350  0.0898
26286W        W43134   9.946  17.140   5.029 -0.1861  0.2014  0.0096
26287W        W43135  10.696  16.182   4.724  0.0033 -0.2319  0.0819
26288W        W43136  11.482   0.764   1.066 -0.0866 -0.3191  0.3644
26289W        W43137   7.969  12.678  11.759 -0.1308 -0.2346 -0.1989
26290W        W43138   6.647   7.600  16.170  0.1782 -0.0288 -0.1081
26291W        W43139  13.730   1.001   0.062 -0.0991 -0.1900  0.2300
26292W        W43140  12.091   8.833   4.517 -0.1795 -0.0748  0.1587
26293W        W43141   6.788  15.980   4.906  0.1363  0.0665  0.0584
26294W        W43142  14.721  14.818  15.103 -0.0504 -0.1691  0.3477
26295W        W43143  12.046  14.701   2.840 -0.0379  0.3279 -0.1682
26296W        W43144   9.489  10.737  12.587 -0.4819 -0.0727  0.1448
26297W        W43145  14.909   9.654   6.139 -0.2390  0.1037  0.0139
26298W        W43146  16.745  10.337  13.545  0.1589 -0.0339  0.0863
26299W        W43147   8.400  17.035  14.186 -0.3308 -0.2017  0.0776
26300W        W43148  17.190   6.965  14.509  0.0820 -0.1435  0.1090
26301W        W43149  15.349   6.155   1.771  0.1469 -0.0784  0.3418
26302W        W43150  15.920   2.101  13.478  0.0549  0.1287  0.0006
26303W        W43151  14.561  13.892   1.764 -0.1290 -0.2981 -0.2753
26304W        W43152  13.758  16.165  13.958 -0.3530 -0.4278 -0.0076
26305W        W43153   1.013  11.864   5.131 -0.0147  0.1416  0.0551
26306W        W43154   5.386   4.378   3.294 -0.2463  0.0505 -0.0574
26307W        W43155  10.176  15.690   5.604  0.0263  0.1266 -0.1151
26308W        W43156   8.846   9.177  15.347 -0.3169  0.0931  0.1391
26309W        W43157  17.198   7.433   2.827 -0.2689  0.0416 -0.1245
26310W        W43158   8.809  11.543   2.653  0.3570 -0.1676 -0.5710
26311W        W43159   3.522  16.346   5.553  0.2922 -0.0386  0.0582
26312W        W43160  15.103  15.683  12.949 -0.1278  0.2176 -0.1056
26313W        W43161   0.569  13.011   1.043  0.0163  0.0041 -0.2130
26314W        W43162  13.790   0.620  15.023  0.1991 -0.2085  0.1624
26315W        W43163   4.417  16.841  13.085 -0.0652 -0.1973 -0.1659
26316W        W43164   5.680   6.312   4.508 -0.3790  0.0026  0.3366
26317W        W43165   7.809   6.637   2.371 -0.1815 -0.0670 -0.3599
26318W        W43166   8.075   3.540  13.262 -0.1894 -0.2624  0.0305
26319W        W43167   2.979   3.618   3.143 -0.1921 -0.0026  0.0250
26320W        W43168   4.387   9.847  15.410  0.1852 -0.0036 -0.0467
26321W        W43169   2.355  15.511   2.482 -0.2668  0.0336 -0.0295
26322W        W43170  14.021  10.841  14.183  0.0876  0.0065 -0.0230
26323W        W43171   6.295   8.569  14.641 -0.3694 -0.1084 -0.0248
26324W        W43172  12.357   4.880   1.686  0.4675 -0.0066 -0.2795
26325W        W43173   5.279  12.043   0.742 -0.1553 -0.0261 -0.0292
26326W        W43174   3.078  10.756   1.013 -0.1037  0.0823 -0.1893
26327W        W43175   8.489   3.377   5.052 -0.2373 -0.1272  0.0519
26328W        W43176  13.660  17.639   2.833 -0.0162  0.0959  0.1078
26329W        W43177   7.744   0.297  14.513 -0.1494  0.1568 -0.2067
26330W        W43178  13.299  10.854  15.595  0.3420  0.0506  0.0972
26331W        W43179  16.126  15.334  13.511  0.0970 -0.2013 -0.0891
26332W        W43180  10.562  14.696  12.742 -0.1131 -0.2282  0.2219
26333W        W43181  13.180  13.575  13.323 -0.1345 -0.1966  0.2158
26334W        W43182   2.570  10.350  14.327 -0.0421 -0.1185 -0.0915
26335W        W43183   6.045   0.507  15.974  0.1051  0.2427 -0.1137
26336W        W43184  12.724  12.810   5.687  0.1739 -0.1394 -0.0475
26337W        W43185   9.656   2.635  13.879  0.0641 -0.2820 -0.1293
26338W        W43186  15.007   4.044   2.289 -0.0229  0.0484  0.0626
26339W        W43187   5.434   9.486  12.868 -0.0935  0.0945 -0.3022
26340W        W43188   0.494  16.997   3.663 -0.0976 -0.1873 -0.1419
26341W        W43189  13.615   8.135   2.530 -0.2992 -0.1287 -0.2366
26342W        W43190   2.494  13.191  12.571 -0.1816  0.0758 -0.2130
26343W        W43191  16.083   1.396  12.489 -0.0861 -0.2169  0.4233
26344W        W43192   1.869   7.795   4.550  0.0328 -0.0316  0.0561
26345W        W43193  11.750   9.245   2.812  0.3235  0.2448  0.2309
26346W        W43194   2.985   9.303   2.197  0.0050  0.0537  0.4279
26347W        W43195   7.746  16.877  11.705 -0.0173 -0.0405 -0.2207
26348W        W43196  12.139  11.286  15.924  0.1917 -0.2737  0.0713
26349W        W43197   5.439  14.409   1.248 -0.2166  0.0199  0.0686
26350W        W43198   8.276   7.188  13.250  0.2157  0.1857  0.2554
26351W        W43199  14.377   3.493  15.172  0.1664 -0.0795  0.0122
26352W        W43200   4.303   1.246  12.306 -0.1450  0.2677 -0.1064
26353W        W43201  13.743  17.477   4.992 -0.0855  0.1005  0.0224
26354W        W43202   8.268   6.706   5.720  0.0933 -0.2443  0.1107
26355W        W43203  16.599  11.550   0.843 -0.0633 -0.1463 -0.0358
26356W        W43204   8.483  15.531  15.803 -0.1036  0.0257  0.0876
26357W        W43205   6.593  10.157   4.684 -0.0404  0.7129  0.0795
26358W        W43206   3.012   9.217  13.551 -0.1278 -0.3494 -0.0249
26359W        W43207  17.369   6.412   3.261  0.1554 -0.0543 -0.3602
26360W        W43208  12.523   0.406  13.386  0.2650  0.1744  0.1563
26361W        W43209   1.239   6.277  14.548 -0.2070  0.3965 -0.1101
26362W        W43210   6.169   9.351  12.518  0.1176 -0.2836  0.0736
26363W        W43211  14.601  15.895  12.244 -0.0781  0.0331  0.1013
26364W        W43212  11.693   0.841  15.297  0.0915 -0.1972  0.2332
26365W        W43213   0.071  15.327  14.819  0.1860  0.0049 -0.0333
26366W        W43214   5.196   9.721  14.348 -0.0259 -0.0319  0.2348
26367W        W43215   3.681  17.571  12.105  0.1360 -0.2597 -0.1782
26368W        W43216   8.384   1.562  12.126 -0.2623  0.2722  0.3108
26369W        W43217  14.228   6.824   0.710 -0.3144  0.0756 -0.1610
26370W        W43218   5.727   6.919   1.690 -0.0620  0.0435 -0.0275
26371W        W43219   5.740   4.826   1.488  0.0079  0.1031  0.1361
26372W        W43220   6.342   2.291   4.397  0.1392  0.0381 -0.0509
26373W        W43221   4.771  12.000   1.342 -0.1784  0.2459 -0.0875
26374W        W43222   7.977   6.814  12.529  0.0534  0.1558  0.0217
26375W        W43223  10.106   2.267  16.548 -0.3555  0.1555  0.3679
26376W        W43224   6.906   8.660   2.793 -0.0189  0.1032 -0.0984
26377W        W43225   0.798   4.266   4.420 -0.0928 -0.1227 -0.1800
26378W        W43226   4.086  17.210   0.347  0.2623  0.0752  0.1116
26379W        W43227   8.644   5.424  11.680 -0.1681  0.0100 -0.0892
26380W        W43228  11.643   0.578   1.546 -0.0601  0.1529 -0.0610
26381W        W43229   2.891  15.975  16.216  0.1895 -0.2494  0.1065
26382W        W43230   7.003   9.374   3.148 -0.1223 -0.1335  0.1583
26383W        W43231   1.748   6.398   3.796  0.1858 -0.1507 -0.0648
26384W        W43232   2.860   5.727   1.954 -0.0995 -0.0324  0.2664
26385W        W43233   0.828  16.812   1.918  0.1406  0.0618 -0.1509
26386W        W43234  11.068   6.827  11.814  0.0387  0.0240  0.2977
26387W        W43235  15.312   3.656   4.883 -0.0469  0.2318 -0.0621
26388W        W43236  10.616   0.445  16.161 -0.0963 -0.0262  0.3456
26389W        W43237  16.212  16.776   3.420  0.4012  0.1106  0.0103
26390W        W43238   9.102   3.380   3.392  0.1091  0.0651 -0.1639
26391W        W43239   3.073   0.363   5.349  0.1394  0.2292 -0.0210
26392W        W43240   6.929   5.205  16.619  0.2510  0.0549 -0.3289
26393W        W43241   2.556   8.449   1.307 -0.0989  0.0515  0.0522
26394W        W43242   4.895  14.915  12.628 -0.0751 -0.0697  0.0976
26395W        W43243  15.952   9.075   4.599  0.0767  0.0503  0.0512
26396W        W43244   4.558  12.835  12.939 -0.1012  0.0002  0.2986
26397W        W43245   1.210  16.363  16.301 -0.1032  0.3655 -0.1151
26398W        W43246  11.539  17.090   4.085  0.2096  0.1821  0.1640
26399W        W43247   5.077   6.818   2.197 -0.1407 -0.0618  0.0880
26400W        W43248  11.461  15.065   4.579  0.2096 -0.1916  0.1053
26401W        W43249   5.640  17.629  15.987 -0.0105  0.3178 -0.4302
26402W        W43250  10.374  14.034   5.187 -0.1428  0.1161  0.3818
26403W        W43251   1.143   9.795   1.334  0.0562 -0.1285 -0.4992
26404W        W43252  10.857  16.348  11.976  0.0719  0.4287  0.3994
26405W        W43253   3.877  12.328  13.404 -0.3005  0.1324 -0.2021
26406W        W43254  12.599  11.109  12.086  0.0932 -0.3866 -0.3050
26407W        W43255   3.178   6.151  15.586 -0.1744  0.2392  0.2440
26408W        W43256   8.233   3.780   3.581  0.0775  0.2077 -0.1146
26409W        W43257   9.221   9.796   3.548 -0.0727 -0.2364 -0.2270
26410W        W43258   1.283   4.151   4.590  0.2619  0.2738  0.2138
26411W        W43259  15.192   3.339  14.229 -0.0396  0.2895 -0.2155
26412W        W43260   6.205   0.957   0.542  0.2786  0.3200  0.0689
26413W        W43261   6.813  12.156   3.999 -0.1071  0.1808 -0.2175
26414W        W43262  12.859   1.599   2.362  0.1334  0.0205  0.4101
26415W        W43263  17.375  10.142   4.209  0.2481  0.2325  0.0131
26416W        W43264  11.466  13.653   3.531  0.2951 -0.1265 -0.2024
26417W        W43265   4.625  15.690   0.759  0.1927  0.1583 -0.0042
26418W        W43266   3.308   5.197  16.548 -0.0599  0.2013 -0.0789
26419W        W43267   9.241  16.452   4.043  0.1342  0.0187  0.0661
26420W        W43268   4.798   3.680   0.537 -0.0485  0.1523 -0.1077
26421W        W43269   8.701   2.610  10.643 -0.0199  0.1523 -0.3244
26422W        W43270  15.899   4.041  15.426 -0.0505  0.3396 -0.1674
26423W        W43271   0.673  16.728   2.860 -0.0612  0.2515 -0.2375
26424W        W43272   6.200   4.529   1.460 -0.0225  0.0739 -0.1480
26425W        W43273   0.655  12.552  11.326  0.0159 -0.1584  0.1674
26426W        W43274  15.734  12.698  15.799  0.0122  0.0626 -0.2162
26427W        W43275   8.068   9.477   1.393  0.0733  0.0616 -0.3157
26428W        W43276   3.037   4.966  16.113  0.1990 -0.3772 -0.2333
26429W        W43277  17.174  15.879   5.300  0.0081  0.0633  0.3631
26430W        W43278  14.969   1.708  15.357 -0.0507  0.1888 -0.0316
26431W        W43279   9.435   9.719   4.403 -0.2847  0.0856 -0.0600
26432W        W43280   5.621   8.261   4.370  0.1914  0.0513 -0.1181
26433W        W43281   6.279  12.145  16.431  0.0794 -0.1515 -0.3716
26434W        W43282   8.808   1.575  14.319 -0.1463 -0.3032  0.1536
26435W        W43283  14.028   4.743   0.482  0.1416  0.1895  0.2487
26436W        W43284   5.501   6.344  13.033  0.1845  0.2506 -0.1380
26437W        W43285   3.142  16.434  12.532 -0.0716  0.2706 -0.3722
26438W        W43286   3.918  11.902   2.405  0.0334 -0.0153  0.0075
26439W        W43287   9.694  10.741   3.191 -0.0261  0.1385  0.1972
26440W        W43288  12.733   6.203   4.584 -0.2227 -0.1265 -0.0416
26441W        W43289   8.802   6.317   3.957  0.0790 -0.0053  0.2147
26442W        W43290  10.864  13.305  13.053  0.0329  0.1319 -0.2378
26443W        W43291   1.051   5.921   0.625 -0.2821  0.1263  0.1987
26444W        W43292  16.691   4.868   2.574 -0.1372  0.2664 -0.2316
26445W        W43293  10.065  13.989   0.887  0.0558 -0.0951  0.1289
26446W        W43294  16.662   7.248   3.662  0.3620 -0.0929 -0.0407
26447W        W43295   4.368  12.369  13.124 -0.1528  0.2252  0.0184
26448W        W43296  17.567  13.907   0.036 -0.2360  0.1728 -0.2729
26449W        W43297   5.865   4.520   1.980 -0.0342 -0.2425  0.1103
26450W        W43298  12.685   7.614  12.498 -0.3035 -0.0683 -0.0823
26451W        W43299   6.963  11.488   4.388 -0.1435  0.0051  0.1711
26452W        W43300  11.441  10.761   1.668 -0.0745 -0.0082 -0.0785
26453W        W43301   7.554  12.629   2.009 -0.1597 -0.0065 -0.0379
26454W        W43302   6.130   0.247  14.356  0.3299 -0.0357  0.2040
26455W        W43303   4.306  16.321  12.994  0.2365  0.1218  0.1791
26456W        W43304   6.101   3.516   4.223  0.0106 -0.1101 -0.1023
26457W        W43305  13.233  11.350  14.328 -0.2048 -0.1990  0.0356
26458W        W43306   2.640   5.885  15.007  0.2171 -0.0767  0.1494
26459W        W43307  12.248  11.699   2.152  0.0784 -0.1317  0.2854
26460W        W43308   5.893   1.991  14.384 -0.0089 -0.0722 -0.0943
26461W        W43309  15.539   2.167   2.360  0.0023  0.2230  0.2295
26462W        W43310   6.549  17.009  16.333  0.0039  0.3652 -0.2058
26463W        W43311   0.596   9.037   1.421 -0.2854 -0.3904 -0.3243
26464W        W43312   4.923   0.756   0.043 -0.1074  0.0776 -0.0202
26465W        W43313  14.128  16.466   1.737  0.0710  0.2712 -0.0191
26466W        W43314   1.503   3.055   1.917  0.1094  0.2884 -0.3187
26467W        W43315   8.341  16.209   3.324 -0.3640 -0.3007  0.1998
26468W        W43316   8.920   5.116   5.320 -0.0035 -0.0813 -0.0678
26469W        W43317   2.390   5.494   2.641  0.0411  0.2497 -0.2365
26470W        W43318   6.433  15.786   0.806 -0.0361 -0.0067  0.0135
26471W        W43319   8.088  17.667  13.850 -0.1175 -0.0992  0.4081
26472W        W43320   3.537   0.528   5.359 -0.0202 -0.4240 -0.1884
26473W        W43321   7.969  17.252   6.185  0.0534 -0.1581 -0.1203
26474W        W43322   0.018  10.063   5.038  0.0318 -0.0035  0.1271
26475W        W43323   8.162   2.289   4.700  0.1206  0.2809  0.1130
26476W        W43324  11.016  15.263   4.374 -0.0882  0.1884 -0.0952
26477W        W43325   7.518   1.243  14.184 -0.0536 -0.1233 -0.0374
26478W        W43326   7.070  16.256  15.938  0.2859 -0.2037  0.0456
26479W        W43327   2.584  10.725   3.970  0.2010 -0.1200  0.0491
26480W        W43328  11.967   1.694   2.341  0.0923  0.0422  0.1159
26481W        W43329   2.734  16.099  13.730  0.0463 -0.0072 -0.0985
26482W        W43330   9.686   6.033  11.311  0.0957  0.0168 -0.1993
26483W        W43331  10.003   4.266  13.489 -0.1982  0.0882 -0.0540
26484W        W43332   7.370  15.245   3.405 -0.0779 -0.0300 -0.0068
26485W        W43333   0.605   2.714  14.594  0.1980  0.1894 -0.3028
26486W        W43334  10.450   8.352  15.404  0.1640  0.0550 -0.0846
26487W        W43335  10.057   7.667  16.137  0.0517  0.0926  0.2222
26488W        W43336  11.965   0.228  15.670 -0.1102 -0.1583  0.3227
26489W        W43337   6.759  14.718   2.819  0.2278  0.0717  0.0308
26490W        W43338   3.887   1.567   4.953  0.3068  0.0317  0.1496
26491W        W43339   2.755   6.043   4.780 -0.0599  0.1873  0.0596
26492W        W43340   3.929   6.052   3.651  0.1531  0.1947 -0.1216
26493W        W43341  17.149  16.323  12.259  0.1367  0.3333 -0.1584
26494W        W43342  13.439   3.192  10.465 -0.0688 -0.1365 -0.1434
26495W        W43343  17.680  13.444  11.225  0.0323  0.3543  0.0989
26496W        W43344   3.258   5.492   4.315 -0.0828  0.1700  0.0266
26497W        W43345  10.595   5.742   2.525 -0.1278 -0.2111 -0.1255
26498W        W43346   6.292   6.597  11.406  0.1743  0.1058  0.1334
26499W        W43347  12.778   8.469  11.721  0.2128  0.4076  0.2010
26500W        W43348   8.123  11.217  13.360  0.1827 -0.2789 -0.0556
26501W        W43349  12.079   8.595   1.869 -0.1752  0.0886 -0.0730
26502W        W43350   5.414  12.580  16.445 -0.3980 -0.1344 -0.0449
26503W        W43351   9.075   6.987  14.986  0.1840  0.0218 -0.0857
26504W        W43352  10.375  13.425  13.159 -0.1760 -0.1066  0.1701
26505W        W43353   4.345   2.894   5.006  0.0749 -0.0701 -0.1812
26506W        W43354   2.391  15.060   2.749  0.2603  0.4754  0.2156
26507W        W43355  12.692  11.692  12.498  0.1399  0.0546  0.1012
26508W        W43356   8.717   7.238  12.989 -0.2072 -0.0838  0.2233
26509W        W43357  11.633  15.018   2.127  0.0858  0.1417  0.1805
26510W        W43358   7.735   6.901   4.217 -0.0266 -0.1435 -0.0122
26511W        W43359   1.140   8.751   0.455  0.4601 -0.3092 -0.1895
26512W        W43360   7.647  12.080  11.650 -0.0693 -0.2495  0.0706
26513W        W43361   0.248  10.584   4.217 -0.2248  0.0301  0.2354
26514W        W43362   6.626  11.523   5.175 -0.3093 -0.1113  0.0158
26515W        W43363   4.758  17.308   2.423 -0.1719 -0.0946  0.0108
26516W        W43364   0.921   0.755  11.794  0.1130  0.0211 -0.3555
26517W        W43365   4.561   6.883  13.375 -0.1298  0.0297 -0.0971
26518W        W43366   1.163   1.317   3.518 -0.1543 -0.0298 -0.0123
26519W        W43367   4.102  14.889   1.402 -0.2856  0.2094  0.2766
26520W        W43368   9.294   2.293  13.883  0.0320  0.1492 -0.0407
26521W        W43369  12.947   7.876   1.999 -0.0090  0.0232 -0.2074
26522W        W43370   0.775   5.846  14.362  0.1328 -0.2787 -0.0426
26523W        W43371   0.032   3.139   1.691 -0.1127 -0.0815  0.0836
26524W        W43372   7.218  17.606  16.266 -0.0674  0.2136 -0.0531
26525W        W43373   3.182  15.435  12.094 -0.1227  0.1459  0.0942
26526W        W43374  12.791  11.784  12.996  0.1985 -0.1067 -0.0050
26527W        W43375   8.144  16.249  11.063 -0.0567 -0.0091 -0.0274
26528W        W43376  15.850  10.594   3.754  0.1692 -0.0640  0.2386
26529W        W43377  12.612  15.459   2.079  0.1613 -0.3307  0.1301
26530W        W43378  10.859   4.896  14.541 -0.1142 -0.0245  0.0664
26531W        W43379  15.128  15.292  15.813 -0.3749 -0.1565 -0.0633
26532W        W43380  17.265   4.613   4.938 -0.0481 -0.0533  0.1708
26533W        W43381   9.922  11.024  15.058 -0.0519  0.0388  0.0573
26534W        W43382   9.203  11.690   0.050  0.0607 -0.0679  0.2039
26535W        W43383  15.171  10.589  12.262  0.2197  0.2594  0.0958
26536W        W43384  11.794   1.278  11.895  0.1094 -0.1084 -0.2990
26537W        W43385  16.692   8.242   2.769 -0.1308 -0.0638  0.1123
26538W        W43386   2.251   1.829   0.324 -0.4015 -0.0723  0.2897
26539W        W43387   9.303   0.806  14.377 -0.0174  0.1649  0.2246
26540W        W43388  16.374  16.723   4.390  0.0424 -0.0619  0.0337
26541W        W43389  16.548   8.195  13.932 -0.0358 -0.3374 -0.2055
26542W        W43390   3.619  11.294  14.614 -0.2958  0.1215 -0.3221
26543W        W43391  17.016  16.434   2.391 -0.0622  0.0764 -0.0050
26544W        W43392  15.243  12.889  11.464  0.1618 -0.0353  0.3413
26545W        W43393   6.806   4.965   3.284 -0.0914 -0.2259 -0.2409
26546W        W43394  11.340   3.201  11.993  0.1978  0.1646 -0.2316
26547W        W43395   2.265   7.765   0.783 -0.1913  0.0914  0.0349
26548W        W43396  14.628  14.983   1.466  0.2138  0.2982  0.0903
26549W        W43397   5.970  12.701   0.940  0.0462 -0.0568 -0.0292
26550W        W43398  14.918   8.803  13.967  0.0770  0.0545 -0.1627
26551W        W43399  12.994  14.181   4.103 -0.2013  0.0736 -0.1094
26552W        W43400   6.524  11.879   3.746  0.2333  0.0407  0.2234
26553W        W43401   2.687  12.580   4.114 -0.0385 -0.0592  0.0820
26554W        W43402   2.018   7.636   0.409  0.0136 -0.1605 -0.0455
26555W        W43403   5.572  11.386  13.555  0.4254 -0.0020 -0.2798
26556W        W43404  13.088   6.181   4.141  0.3306  0.3830  0.0762
26557W        W43405   6.645  11.288   0.179 -0.1023 -0.1913  0.1468
26558W        W43406  16.611   1.773  13.105  0.0477  0.2048 -0.0114
26559W        W43407  16.123   9.586   4.750  0.0101  0.0145  0.0281
26560W        W43408   2.434   9.896   3.970 -0.0425 -0.3225 -0.2667
26561W        W43409   7.582   2.924   3.376  0.3372 -0.1538  0.0075
26562W        W43410   6.244  16.733  11.970  0.0589 -0.2564  0.0359
26563W        W43411   2.140   4.682   0.152  0.0854  0.2619 -0.1837
26564W        W43412   1.690  10.429   4.907 -0.0537 -0.0513  0.2129
26565W        W43413  14.338  10.403   3.731  0.1344  0.1517 -0.0924
26566W        W43414  11.535   1.934   5.168  0.1129  0.1966  0.0077
26567W        W43415   1.497   4.611   4.664  0.0473  0.1727  0.0336
26568W        W43416   0.236   2.697  12.760  0.0265 -0.0094  0.1184
26569W        W43417  10.152   4.545   5.412  0.2796 -0.0945  0.0243
26570W        W43418  10.166   3.108   5.344  0.0815  0.2764  0.1344
26571W        W43419   1.362   1.873   5.165  0.3293  0.0330 -0.0627
26572W        W43420   1.517  17.612   0.308  0.0306  0.1273  0.2439
26573W        W43421  11.357   3.147  15.863  0.0926  0.2482 -0.1088
26574W        W43422  14.750   9.229   5.795 -0.4582  0.1779 -0.0057
26575W        W43423   1.232  16.356  13.767  0.1724  0.1388  0.0885
26576W        W43424  15.155   4.586   1.594  0.2098 -0.0507 -0.1607
26577W        W43425   7.866   9.516  11.545 -0.0518  0.0724  0.2151
26578W        W43426  15.807  12.214   0.300  0.2149  0.2025  0.1124
26579W        W43427  17.449  15.158  16.041 -0.2778  0.0490 -0.2796
26580W        W43428  15.562   8.626   1.419 -0.0389  0.2112  0.0080
26581W        W43429   3.380  10.129  12.898 -0.2858  0.1012 -0.2943
26582W        W43430   3.991  12.888   5.212  0.0331  0.1392 -0.1593
26583W        W43431  10.099  15.185   3.167 -0.0093  0.2106  0.1468
26584W        W43432   9.992   7.157  13.656 -0.0860  0.3343  0.0947
26585W        W43433   2.041  12.614  14.210  0.0788  0.4239  0.0362
26586W        W43434  12.024   7.536  15.220  0.0010  0.1924 -0.0159
26587W        W43435   4.766  12.020   2.424  0.1663 -0.2397 -0.3186
26588W        W43436  11.819  12.982  14.721  0.2013 -0.0296 -0.0942
26589W        W43437  11.707   0.433  13.421  0.1422 -0.1181  0.0384
26590W        W43438  14.075  15.644   3.164  0.0324  0.1201 -0.1319
26591W        W43439   4.118  15.313  12.590  0.0339 -0.2168  0.0626
26592W        W43440   5.140   4.415  13.949  0.1333  0.1418 -0.2065
26593W        W43441   0.285   5.440   3.821  0.0498 -0.0350 -0.2102
26594W        W43442   5.359  16.842   4.411  0.0144  0.2447  0.1619
26595W        W43443   5.760  10.655   1.464  0.2824 -0.0270 -0.3009
26596W        W43444   5.614  15.625   5.404 -0.0348 -0.0835  0.1376
26597W        W43445  16.648   4.422  16.627 -0.0739 -0.3139 -0.0218
26598W        W43446   5.220   3.123   2.023  0.1083 -0.0377 -0.0134
26599W        W43447  16.845   1.089   4.147 -0.1015 -0.1857  0.1607
26600W        W43448   3.878   5.923   1.181  0.1360 -0.1307 -0.0523
26601W        W43449   3.360   0.097   1.466 -0.0442  0.0863  0.0313
26602W        W43450   1.011   3.677  12.145  0.0533 -0.2586  0.2092
26603W        W43451   2.314  12.365  12.946 -0.0365 -0.2650 -0.3783
26604W        W43452  14.489  16.097  10.716  0.3796 -0.1312  0.0621
26605W        W43453  15.396   5.444  14.125 -0.3094 -0.1584  0.0973
26606W        W43454   1.527   5.987   2.749 -0.0029 -0.0473 -0.0495
26607W        W43455   7.707   7.194  12.537  0.2914 -0.1226  0.0839
26608W        W43456  13.102   6.664   2.312 -0.1433  0.2350 -0.2107
26609W        W43457  16.268  14.567   3.157 -0.1976 -0.0665  0.2657
26610W        W43458  15.215   3.068   2.652 -0.0835  0.0915  0.1970
26611W        W43459  11.662   9.319  14.506 -0.1684 -0.0545  0.0493
26612W        W43460  14.414   1.568  13.836  0.0619  0.2195 -0.0956
26613W        W43461   7.125   1.908  13.572 -0.2456  0.4403 -0.2370
26614W        W43462  17.383   1.775   2.654 -0.1991  0.3947 -0.2399
26615W        W43463   8.190   8.245   1.556 -0.1748 -0.0313  0.2031
26616W        W43464  14.580  15.268  16.492 -0.0007 -0.0850  0.2199
26617W        W43465   7.918   4.810   0.203 -0.0172 -0.2537  0.2250
26618W        W43466   5.375  14.956  13.619  0.1656 -0.0117 -0.0964
26619W        W43467  13.157   0.694   1.635  0.1885  0.0333  0.1464
26620W        W43468   3.235   1.489  16.104  0.0695  0.1416  0.1776
26621W        W43469  10.670  11.477   3.004  0.2694 -0.0182 -0.1432
26622W        W43470   2.757  17.405  12.756 -0.0271 -0.4575 -0.0175
26623W        W43471   9.966   4.195  12.210 -0.1360 -0.0263  0.0765
26624W        W43472   9.647  16.131  12.757  0.0385 -0.0346 -0.0828
26625W        W43473  17.630  12.073   0.269 -0.1723 -0.1823 -0.0429
26626W        W43474  15.583   0.494   4.016  0.3149  0.1133 -0.2766
26627W        W43475  11.829  13.130  14.134  0.1254 -0.0025  0.0442
26628W        W43476   8.957  12.420   0.112 -0.2859  0.0702 -0.1107
26629W        W43477  16.734   7.710   2.600  0.5292  0.1130 -0.1904
26630W        W43478  14.254   0.065  14.879  0.0435 -0.1758 -0.2690
26631W        W43479  17.670  16.942   0.955  0.3403 -0.1954  0.1248
26632W        W43480  13.045  16.692  12.982 -0.2081  0.0829 -0.1825
26633W        W43481  14.767  13.227   2.864  0.0721 -0.2423 -0.0534
26634W        W43482   9.420  12.037   4.413  0.0770 -0.0602  0.0578
26635W        W43483  14.788  10.134   0.735  0.0693  0.0020 -0.3060
26636W        W43484   6.521   2.264   1.266 -0.3328  0.0166 -0.1305
26637W        W43485   8.486  14.570   2.594  0.0052 -0.3814 -0.1209
26638W        W43486   4.374  10.439   0.349  0.2533  0.0989 -0.4715
26639W        W43487   1.903   1.817   1.605  0.0627  0.1899 -0.0967
26640W        W43488  10.529  13.257  12.651 -0.0363  0.0608 -0.2757
26641W        W43489   6.066   9.225  13.469  0.1386 -0.0138 -0.0313
26642W        W43490   0.468  11.339  13.254  0.1903  0.0501 -0.2091
26643W        W43491  10.758   6.030   2.903 -0.2558  0.0434  0.2392
26644W        W43492  14.958  12.172  16.025 -0.2172  0.0955  0.0912
26645W        W43493  10.590   8.485   2.511  0.1968 -0.2912  0.1948
26646W        W43494   8.649  16.387  14.797  0.1215 -0.1123  0.0539
26647W        W43495   5.867   5.854  11.791 -0.0669 -0.5745 -0.0028
26648W        W43496   6.686  13.178   4.443  0.0260  0.0756 -0.1093
26649W        W43497   2.595  14.350   3.412  0.1584  0.0635  0.0416
26650W        W43498   3.467  13.911   1.313 -0.0772  0.0636 -0.3634
26651W        W43499   2.746   4.931   3.775 -0.2979  0.1196  0.1541
26652W        W43500   4.092   9.428   0.820  0.2797  0.1343 -0.0142
26653W        W43501  10.248  16.676  16.195 -0.1403  0.1359  0.0770
26654W        W43502  13.386   3.031  15.949 -0.0314 -0.1832 -0.0846
26655W        W43503   2.220  16.834  15.780  0.2425 -0.2273  0.2818
26656W        W43504   1.634   0.506   4.185 -0.1604  0.0705 -0.2299
26657W        W43505   1.613   4.512  11.786  0.2171 -0.1749  0.2705
26658W        W43506  11.975  14.389   5.022  0.0877 -0.0784  0.4126
26659W        W43507   3.728   4.038  13.937  0.1253 -0.1529  0.2167
26660W        W43508   2.286  15.997   3.874  0.0210  0.2459  0.1103
26661W        W43509   6.391  16.239  14.648 -0.0116 -0.0677 -0.1165
26662W        W43510  14.413   5.216  13.154  0.2313  0.1011  0.1085
26663W        W43511   8.685   5.714  16.247 -0.3031 -0.0117  0.0246
26664W        W43512  15.600  16.945  13.155 -0.0700 -0.1245  0.2070
26665W        W43513  12.225  16.391  13.259  0.2709  0.1341 -0.1516
26666W        W43514  11.819   7.685   0.758 -0.0041  0.0850 -0.1486
26667W        W43515   8.317  10.993   5.559  0.0659 -0.0210  0.0718
26668W        W43516   4.570  17.146  14.148  0.0534 -0.3040  0.0438
26669W        W43517   7.881   5.898  12.853  0.0603  0.1336 -0.1145
26670W        W43518  15.729  14.080  13.300  0.0524 -0.1170 -0.2911
26671W        W43519   4.257  16.500  14.700  0.2581  0.5318  0.3145
26672W        W43520  12.526  14.589   1.590  0.0192 -0.1329  0.0563
26673W        W43521  14.685  11.363  15.080  0.2766 -0.1208 -0.1018
26674W        W43522   0.008   3.399  10.850  0.0523  0.1497 -0.0860
26675W        W43523   5.327  15.035   1.084  0.0114  0.0352  0.0461
26676W        W43524   3.806  17.006  16.149 -0.0525 -0.0956 -0.0210
26677W        W43525   3.205  10.903  15.096 -0.0298  0.2069  0.2411
26678W        W43526  14.834  12.827   2.579  0.2565  0.0671 -0.1168
26679W        W43527   7.837   9.756  16.004  0.1071 -0.1128  0.1897
26680W        W43528  16.545   0.486   0.252  0.1214  0.1292 -0.0738
26681W        W43529   9.559   6.484   2.723  0.1833  0.0293 -0.0266
26682W        W43530   0.390  17.590  10.502 -0.0096  0.0399 -0.1253
26683W        W43531   9.663   3.732   0.811 -0.2893 -0.1387  0.2816
26684W        W43532   5.500   8.828   4.412 -0.2128  0.1716  0.0136
26685W        W43533  14.542   9.815  15.340 -0.0304  0.1945  0.2162
26686W        W43534   4.463  13.862  14.475  0.0690 -0.0310  0.0558
26687W        W43535   5.085   2.768   4.441 -0.0983 -0.2119 -0.0268
26688W        W43536   7.291  16.740   2.597  0.0894  0.0780  0.0214
26689W        W43537   9.710   6.215  14.609  0.3088 -0.2514  0.1189
26690W        W43538  17.697   4.107  12.110 -0.0242 -0.0278 -0.0115
26691W        W43539   4.944  12.880  14.749 -0.1209  0.1052 -0.2016
26692W        W43540   2.267  12.968   1.843  0.2530 -0.1691  0.5077
26693W        W43541  16.124   0.637  11.494 -0.2589 -0.1014  0.0940
26694W        W43542   1.446   6.870   6.454  0.2808  0.1524 -0.0965
26695W        W43543   4.259   2.509  12.714  0.1006 -0.1057  0.2554
26696W        W43544  13.278  15.553   3.292 -0.3925 -0.0202 -0.1545
26697W        W43545  11.068   3.634  12.927 -0.2259  0.1923  0.0955
26698W        W43546   3.627  10.917  12.036 -0.1263  0.0363  0.1628
26699W        W43547  13.486  10.068  15.757  0.0858  0.2933  0.0055
26700W        W43548  10.797  17.672   3.663  0.2051  0.0732 -0.1482
26701W        W43549  10.464   3.500   5.041 -0.1985 -0.1956  0.0366
26702W        W43550   3.070  13.408  11.475 -0.0351  0.0158  0.2941
26703W        W43551  16.425  15.246  11.025 -0.0041 -0.1534 -0.1588
26704W        W43552  12.147  13.716   3.028  0.0902 -0.1600  0.1539
26705W        W43553  16.822  12.096  15.063 -0.2011  0.0114  0.0222
26706W        W43554  10.304   0.779  16.569 -0.2193 -0.2069  0.0065
26707W        W43555   8.103  10.379  13.207 -0.0652  0.0896  0.1999
26708W        W43556  14.210  13.561  16.362 -0.1943 -0.0281  0.1961
26709W        W43557   0.171  14.809  15.974  0.2568 -0.1046  0.1553
26710W        W43558   7.522   9.705   0.511  0.0596 -0.0726 -0.2824
26711W        W43559   1.994  15.858   1.836 -0.1796 -0.1350  0.1040
26712W        W43560   9.740  14.106  12.521 -0.1856  0.0789  0.4021
26713W        W43561   8.033   9.098  14.830 -0.0821  0.0082 -0.1663
26714W        W43562  14.720   0.574  11.687  0.0873 -0.0832  0.3000
26715W        W43563  12.871   8.921   1.005 -0.2920  0.2595  0.3159
26716W        W43564   6.221   7.455   3.906  0.0504  0.1820  0.0107
26717W        W43565  11.837   4.990  10.811 -0.0672  0.3597 -0.0604
26718W        W43566   5.518  12.757  13.846  0.0287 -0.1274 -0.1641
26719W        W43567   9.833   2.627  15.169  0.1118 -0.4399  0.2247
26720W        W43568  15.557   3.930  12.079 -0.0986 -0.3779  0.1366
26721W        W43569  15.772   0.480   5.123  0.0539 -0.0377  0.0337
26722W        W43570   9.858  13.991  15.412 -0.1546 -0.2371  0.0178
26723W        W43571   2.806   1.820  16.259 -0.0812  0.1785 -0.0259
26724W        W43572   1.376  11.390  16.425  0.0674 -0.0586  0.0539
26725W        W43573   0.301   8.969  12.956 -0.0157  0.2066 -0.1075
26726W        W43574   0.577  15.425   3.946 -0.1928  0.0478 -0.0040
26727W        W43575  11.012  13.175  14.791 -0.3072  0.2585  0.1541
26728W        W43576  12.462  16.214  15.832 -0.1862 -0.1343 -0.2121
26729W        W43577   9.448   2.737   5.245  0.1486  0.1375 -0.0811
26730W        W43578   2.166   8.606  15.067 -0.2589  0.2474 -0.0421
26731W        W43579  15.535   9.716  12.672 -0.0910 -0.1622  0.1923
26732W        W43580   1.677   8.011   1.245 -0.1923  0.1639 -0.0200
26733W        W43581   4.554   4.751  13.074 -0.0951 -0.3037 -0.1614
26734W        W43582   8.291  14.649  15.991  0.1457 -0.2682 -0.0741
26735W        W43583  16.992   2.015  12.908 -0.2519 -0.0411 -0.2049
26736W        W43584   0.525   1.143   2.900  0.0339  0.0221 -0.0343
26737W        W43585  12.510   6.499   3.058 -0.1352  0.1759 -0.1565
26738W        W43586   0.575   6.025   2.683 -0.1207 -0.2280 -0.0430
26739W        W43587   2.153   1.074  13.391 -0.0231  0.0822 -0.2496
26740W        W43588   9.477  14.244  12.011 -0.1050 -0.0089  0.0132
26741W        W43589  13.906  11.739   1.473 -0.0404  0.2940  0.0697
26742W        W43590  15.106   3.479   4.458 -0.1153  0.0730 -0.1493
26743W        W43591   3.973   3.065  15.715  0.2709  0.0295  0.0668
26744W        W43592  12.099   4.941   0.885  0.2178 -0.2651  0.2100
26745W        W43593  11.395  14.620   1.855  0.0097 -0.2446 -0.3850
26746W        W43594   6.393  16.578   2.304 -0.1828 -0.1354 -0.0462
26747W        W43595   9.563   5.793  12.077  0.0229 -0.2181  0.3075
26748W        W43596  10.745   2.112   1.984 -0.2880 -0.0733  0.1219
26749W        W43597  16.492  13.778   2.905  0.0895  0.0069  0.1348
26750W        W43598   6.918   9.997  14.359 -0.0029 -0.0433  0.0175
26751W        W43599  17.647  16.490   4.355 -0.0049  0.0896  0.1176
26752W        W43600   2.565  15.150  15.018 -0.1101 -0.0426  0.0085
26753W        W43601   3.090  10.465  14.311  0.1819 -0.3240  0.1126
26754W        W43602   9.301   6.527  16.468  0.0427  0.2966 -0.2093
26755W        W43603   1.211   1.165   1.079  0.0362  0.3296  0.0653
26756W        W43604   1.970   4.498   4.430  0.4243 -0.0539  0.1017
26757W        W43605   3.657   4.122  13.339  0.0937 -0.2130 -0.2476
26758W        W43606   5.240   8.916   0.380 -0.1458 -0.0024  0.0537
26759W        W43607   1.273  13.806  15.878 -0.3651  0.0895 -0.1095
26760W        W43608  16.158   5.658  12.492 -0.2224  0.2929 -0.1701
26761W        W43609   7.232   8.196  12.350  0.3080  0.1574 -0.0682
26762W        W43610  16.272   9.140  12.737 -0.0758 -0.0454 -0.4450
26763W        W43611  15.581  13.692  13.000  0.0089 -0.0388 -0.0044
26764W        W43612  11.080  14.849   1.441  0.3415 -0.0872 -0.1895
26765W        W43613   6.275  12.641  16.387  0.0477  0.1734  0.2736
26766W        W43614  13.729   4.258  14.120  0.0878 -0.3985  0.3009
26767W        W43615   2.266   0.517   1.803  0.1038  0.2236 -0.3721
26768W        W43616  11.038   9.373  13.252 -0.4096  0.0613 -0.0115
26769W        W43617  16.971   1.803   6.474  0.2928 -0.0772  0.3037
26770W        W43618  16.180   3.826  16.543 -0.0556 -0.1584  0.0023
26771W        W43619  10.272  10.691   0.434  0.1087 -0.0257  0.1081
26772W        W43620   4.054   6.272  14.678 -0.0099  0.1726  0.1585
26773W        W43621   0.333  16.612   1.611  0.1092 -0.0116 -0.1565
26774W        W43622  14.831   5.490  15.377 -0.1304  0.3945  0.1072
26775W        W43623  12.632  10.068  16.081 -0.0282  0.0075 -0.1959
26776W        W43624  14.450   5.294   2.661 -0.1776 -0.1039 -0.0648
26777W        W43625   4.640   7.307  15.205 -0.1502  0.2048  0.0430
26778W        W43626   7.550   4.760  15.831  0.0874 -0.0170  0.0150
26779W        W43627   1.564   0.944   5.427  0.1392 -0.1159 -0.1835
26780W        W43628  13.884   5.210  11.855  0.0601 -0.0876  0.3209
26781W        W43629   3.440   0.664   6.202 -0.0725  0.2392 -0.1851
26782W        W43630   4.363  13.491   1.170 -0.1702 -0.3436 -0.2641
26783W        W43631   1.073   2.450   1.411  0.0617 -0.4922 -0.0419
26784W        W43632   7.354  15.554  13.659  0.0574  0.2384  0.0550
26785W        W43633  10.607   9.813  12.577 -0.0925  0.3625  0.1972
26786W        W43634  10.460  11.783  14.565 -0.1257  0.2495  0.0362
26787W        W43635   4.333  11.992  12.640  0.2774 -0.1687 -0.2110
26788W        W43636   5.960   9.572   3.733  0.2716  0.3347  0.1302
26789W        W43637   7.567   4.032   2.573  0.0490  0.1522 -0.1651
26790W        W43638   8.203   4.530  16.596  0.0373 -0.0410 -0.1664
26791W        W43639  14.874  15.510   3.497 -0.3273 -0.1519 -0.0791
26792W        W43640   8.982   0.732  12.079 -0.1595 -0.1746  0.1624
26793W        W43641   8.373   9.206  13.900 -0.0130  0.3838  0.1733
26794W        W43642   2.343  16.037  14.033 -0.0572 -0.1427  0.4512
26795W        W43643  10.446  13.037   0.366 -0.3728 -0.0195  0.1846
26796W        W43644  13.052  10.690  11.892 -0.1743 -0.0189  0.2104
26797W        W43645  16.066   3.934   4.525  0.2374 -0.1202 -0.0361
26798W        W43646  10.859  10.218  15.156  0.1088  0.0608 -0.2101
26799W        W43647  11.440   2.378  14.200 -0.0178 -0.0506  0.1624
26800W        W43648   8.751  15.754  12.655  0.1411  0.0234  0.0246
26801W        W43649   2.138  14.702  13.577 -0.1403 -0.0259  0.0142
26802W        W43650  13.289  10.117   3.009  0.0924 -0.0082  0.1439
26803W        W43651  15.401   1.057   3.106  0.0653 -0.0402  0.1846
26804W        W43652   3.122   8.771   3.463 -0.1953 -0.3231 -0.0456
26805W        W43653  11.217   6.598  12.248 -0.0403  0.0731 -0.0379
26806W        W43654  16.790   4.304  13.791  0.0929  0.0366  0.3090
26807W        W43655   1.019   4.258   1.400 -0.1102  0.0755  0.1911
26808W        W43656   3.700   8.227   2.787 -0.1515  0.1848  0.1312
26809W        W43657   3.705  16.880   0.393  0.1910  0.2042  0.1603
26810W        W43658   4.671   5.444  12.449  0.3526  0.2534  0.0165
26811W        W43659   7.381   1.590   6.102  0.0664  0.0928  0.2224
26812W        W43660   1.721  10.464   3.445 -0.2251  0.1059 -0.1373
26813W        W43661  13.107   2.530  12.214  0.2722  0.0056 -0.1060
26814W        W43662   1.923   2.110   0.016 -0.1010  0.0230  0.3550
26815W        W43663  13.496   4.053   2.183  0.1594 -0.1742 -0.1007
26816W        W43664  16.483   9.080  11.419 -0.0168  0.0668 -0.0590
26817W        W43665   8.389   2.458  16.189  0.0158 -0.4535  0.0805
26818W        W43666  12.266   8.240  11.697 -0.1746  0.0474  0.0701
26819W        W43667  10.498   6.377   0.831  0.1086 -0.2198  0.3264
26820W        W43668   0.043  15.890   1.869 -0.1157  0.2845 -0.0093
26821W        W43669  11.389   3.407   4.877  0.1611  0.1644  0.2938
26822W        W43670   0.121  15.375   5.920 -0.3305 -0.0009  0.2103
26823W        W43671  13.290  12.218  16.333 -0.1755  0.1062 -0.2252
26824W        W43672   4.619   3.746  16.400  0.4823  0.2707 -0.0658
26825W        W43673   5.668   8.136   2.221  0.0754 -0.2090 -0.2083
26826W        W43674  14.523  13.380  10.467 -0.0418  0.1437 -0.0325
26827W        W43675  16.346   3.803   3.994 -0.1619 -0.0617  0.0345
26828W        W43676  15.983   2.127   0.945 -0.1864 -0.2854  0.0199
26829W        W43677   2.919   8.687  14.980 -0.3093  0.3365 -0.0633
26830W        W43678   6.763  10.265  13.535  0.0726 -0.1516 -0.1209
26831W        W43679   0.535  17.667   2.401 -0.0188 -0.1046  0.0085
26832W        W43680   9.428   2.479   5.692  0.0069 -0.2201 -0.1170
26833W        W43681   1.864  12.029   0.368  0.1398  0.0753  0.3641
26834W        W43682   9.115   0.042  13.586 -0.0824  0.2635  0.0764
26835W        W43683   2.041  14.858  12.033  0.0179  0.1264  0.1278
26836W        W43684  13.246   5.004  15.531 -0.1444  0.3487 -0.1752
26837W        W43685   9.095   0.972   5.337  0.3101  0.0943 -0.0967
26838W        W43686   5.219   1.737   4.550 -0.1671  0.2848 -0.1886
26839W        W43687   4.081  13.053  14.432  0.1609 -0.2123  0.1715
26840W        W43688  13.643  13.839   1.882  0.0527 -0.0144  0.0932
26841W        W43689  16.840   5.029   1.994  0.0478  0.0603  0.1802
26842W        W43690  15.256   8.925  11.507 -0.0241  0.0742 -0.0530
26843W        W43691   6.725   3.591  16.308 -0.2885 -0.1795  0.2945
26844W        W43692  10.371   3.248  15.571  0.2127  0.2474  0.0342
26845W        W43693   4.555  17.235   0.218  0.1645 -0.0378 -0.0020
26846W        W43694  13.392  15.041  14.922  0.2074 -0.0967  0.2548
26847W        W43695   3.203   1.334   4.414 -0.0489  0.1384 -0.2084
26848W        W43696   5.992  13.571   0.506 -0.0969 -0.1902  0.0792
26849W        W43697  11.681  16.313  13.730 -0.0622  0.0508  0.0166
26850W        W43698  15.922  13.843   1.229 -0.0613  0.3397 -0.0676
26851W        W43699   8.291   6.970   2.329  0.3215  0.0944 -0.1120
26852W        W43700   8.784   4.595  15.378  0.2108 -0.0698  0.2569
26853W        W43701   0.052   4.485  14.350  0.0235  0.0882  0.1297
26854W        W43702   0.041   7.445   2.662  0.1593  0.2120 -0.0687
26855W        W43703   2.545   8.628  15.425 -0.0457 -0.0477 -0.1195
26856W        W43704  12.655   8.165  15.485 -0.2274  0.1296 -0.1246
26857W        W43705   7.914  10.136   5.164  0.1538  0.0365  0.0218
26858W        W43706  10.998   5.203   3.585 -0.3873 -0.1818 -0.3173
26859W        W43707   6.134   7.360  15.235 -0.1075 -0.1280  0.3621
26860W        W43708   7.207  13.159  16.485 -0.2301  0.2494 -0.1022
26861W        W43709   0.190  17.258  13.413  0.0474  0.1062  0.4486
26862W        W43710   6.070  13.789  15.750 -0.2576  0.0782  0.0794
26863W        W43711  13.605   1.403   3.680  0.1766  0.1720  0.1700
26864W        W43712   6.101   7.878   0.289 -0.0221 -0.1805  0.1096
26865W        W43713  16.236   9.911   1.018 -0.2329 -0.3370  0.2385
26866W        W43714  16.967  12.772   3.171  0.1611  0.0530 -0.3478
26867W        W43715   3.497   2.143  13.115 -0.0063  0.0226  0.0443
26868W        W43716   5.943  11.840  12.518 -0.1882 -0.0417  0.2051
26869W        W43717   4.913  11.420   3.859  0.1372 -0.0573  0.2708
26870W        W43718   6.422   5.673   2.216 -0.0252 -0.2322  0.2253
26871W        W43719   1.065   6.186   1.970  0.0937 -0.3892  0.1165
26872W        W43720   9.749   8.257   0.476 -0.1959  0.2550  0.1132
26873W        W43721  10.965   4.368   0.054  0.3003  0.0297  0.3585
26874W        W43722  12.841   7.163  11.388 -0.2196 -0.0685 -0.3043
26875W        W43723   3.225  12.367   1.990  0.0254 -0.0539  0.3971
26876W        W43724  11.950  14.309   0.855  0.4098 -0.0558  0.1709
26877W        W43725  11.259  11.152  13.922  0.1422 -0.0699  0.1202
26878W        W43726  14.632  12.165   1.981  0.2857 -0.1749 -0.1044
26879W        W43727   8.668   1.964  11.852  0.0746 -0.0952 -0.0098
26880W        W43728   3.058   8.238  14.775  0.0029  0.2206 -0.2716
26881W        W43729   4.609   6.565  11.897 -0.0081  0.2774 -0.4286
26882W        W43730  10.985   3.248   3.095 -0.2356 -0.1455 -0.0799
26883W        W43731  14.675  15.299  14.937  0.0145  0.1489  0.0645
26884W        W43732  13.905   2.927   2.916 -0.1901  0.1776  0.2040
26885W        W43733   1.436  10.855  14.304  0.0666  0.0260 -0.1082
26886W        W43734  10.519   3.323   3.372  0.2745  0.0513  0.0379
26887W        W43735   3.562  16.357   3.157 -0.0873  0.1747  0.0028
26888W        W43736   6.239  12.049   0.286  0.0290 -0.0227 -0.0319
26889W        W43737  11.501  11.777  13.093  0.0459  0.0351  0.0169
26890W        W43738   4.555   6.836   3.085  0.0681  0.0067  0.0079
26891W        W43739  13.172   4.294   4.344  0.0987 -0.0927 -0.1234
26892W        W43740  15.494   5.805   5.086  0.1612 -0.2281  0.2181
26893W        W43741  10.197   3.310   3.836  0.0591  0.1536  0.2326
26894W        W43742  13.802   8.185  16.612  0.1696 -0.1022 -0.0541
26895W        W43743   5.988   4.005  12.347  0.1656 -0.2140  0.0195
26896W        W43744   1.082  10.974  15.602  0.1833  0.0493  0.1706
26897W        W43745   2.308   7.259   0.584 -0.0646 -0.2832  0.0110
26898W        W43746   6.868   1.569  14.726  0.0469 -0.1197  0.1945
26899W        W43747  14.374  11.304   3.071  0.0583 -0.0366  0.0174
26900W        W43748   7.652  15.284   1.198  0.1441 -0.1177  0.1612
26901W        W43749   8.340  15.124  13.592  0.0131  0.0016  0.2182
26902W        W43750  15.586   0.378   0.965 -0.2319  0.1026 -0.0767
26903W        W43751   8.428  17.401  14.568 -0.1721  0.1212 -0.0951
26904W        W43752   8.634   9.285  13.264 -0.1534  0.0082 -0.2803
26905W        W43753  14.085  17.249   1.459  0.2082  0.2209  0.2729
26906W        W43754  14.338  17.007   1.982 -0.1365  0.0559  0.0860
26907W        W43755  15.118   9.429   4.835  0.1099 -0.4203 -0.0746
26908W        W43756  11.665   8.371   1.641  0.0465 -0.1170 -0.3237
26909W        W43757   7.185  13.260  13.445  0.0573  0.0525 -0.1030
26910W        W43758  10.063   8.203   2.362  0.0052 -0.2785  0.0668
26911W        W43759  13.084   8.524   6.072  0.0050 -0.1991  0.1094
26912W        W43760  10.524  12.392  12.968  0.2911 -0.3264  0.1782
26913W        W43761   6.858   1.377   3.020  0.2441 -0.3889  0.1196
26914W        W43762  12.879   3.523   0.527  0.0681 -0.2915  0.1291
26915W        W43763  16.843   8.949  13.693  0.0645  0.0240  0.1208
26916W        W43764   1.419   8.959  13.088 -0.0049 -0.0767  0.2999
26917W        W43765   6.374   0.216   0.028 -0.1420 -0.0746 -0.2534
26918W        W43766  12.461   7.349  15.013  0.1047  0.1266 -0.0368
26919W        W43767  14.792  10.082   4.588 -0.1305  0.1661 -0.0809
26920W        W43768  10.838   7.434  16.285  0.2845  0.3731 -0.0915
26921W        W43769   9.162   9.889  11.654 -0.0017 -0.1694  0.1756
26922W        W43770   8.218  11.003  14.118 -0.3191 -0.2324  0.2652
26923W        W43771   4.043  10.030  14.115  0.1956  0.0295  0.2718
26924W        W43772  14.626   9.495   4.738  0.0935  0.1787  0.1018
26925W        W43773  10.974   5.095  13.265 -0.0732 -0.0810  0.0360
26926W        W43774  12.530   6.359  12.398  0.1080  0.1229  0.0555
26927W        W43775  15.761   9.869  16.467 -0.2845  0.1930  0.2653
26928W        W43776  13.011  15.766   1.911 -0.1723  0.0708 -0.3107
26929W        W43777   4.466   9.268   2.997  0.0923 -0.1126  0.1014
26930W        W43778  16.523  13.440  13.323  0.0819  0.0581  0.2453
26931W        W43779  13.179  10.117  14.968  0.3073  0.3546 -0.0881
26932W        W43780   3.863   3.247  13.142  0.3851  0.0790 -0.2549
26933W        W43781  16.030   7.734  11.459 -0.3507 -0.0552  0.0611
26934W        W43782  12.924  16.062   5.563 -0.0964 -0.2037 -0.0173
26935W        W43783   2.405  16.886  13.043 -0.3636 -0.1654  0.2397
26936W        W43784   1.407  15.676  14.352 -0.0933  0.0247  0.1355
26937W        W43785  11.114  10.675  15.270 -0.0649  0.0314  0.0818
26938W        W43786  13.479   7.620  11.578  0.0063  0.2211  0.0298
26939W        W43787  13.814   6.526   4.626 -0.0854 -0.0608  0.2064
26940W        W43788   1.129  11.510  15.660  0.1451  0.1555  0.1660
26941W        W43789   3.001   7.115   4.651  0.1567  0.1971  0.1302
26942W        W43790   8.870  11.527   0.414 -0.1685  0.0920  0.2412
26943W        W43791   8.946   6.815   4.080 -0.2254 -0.0162 -0.3850
26944W        W43792   5.051  10.470  16.292  0.0916  0.4155 -0.1306
26945W        W43793  14.214   9.169   0.923 -0.0752 -0.0320  0.1675
26946W        W43794  10.399  14.484  15.116 -0.2851  0.1011 -0.2019
26947W        W43795  10.663  17.321   1.565  0.0991 -0.0238  0.1550
26948W        W43796   4.713   2.658  12.715 -0.1557 -0.1920  0.1834
26949W        W43797   4.079  12.472  11.348  0.3395 -0.1954 -0.2126
26950W        W43798   4.196   8.048   5.251  0.4840  0.0021 -0.1088
26951W        W43799   1.009  16.399  14.881 -0.1390  0.0994 -0.0099
26952W        W43800   7.499  16.023  13.728 -0.0453 -0.1413  0.2051
26953W        W43801  15.043  17.482  16.618 -0.1538 -0.2044  0.0406
26954W        W43802   7.816   0.803  13.669 -0.0435 -0.0962 -0.2008
26955W        W43803   4.770  13.185  15.268 -0.0818 -0.0222  0.2859
26956W        W43804  13.229   0.522  16.484  0.0215  0.0116 -0.0461
26957W        W43805   0.209   2.400  13.630  0.3397 -0.1183 -0.1174
26958W        W43806  10.083   2.976  10.636 -0.1624  0.0225 -0.0255
26959W        W43807  10.873   8.217  10.878 -0.2104  0.1504 -0.0863
26960W        W43808   4.432  14.481  14.368 -0.1484  0.1854  0.0364
26961W        W43809   6.388   7.826   1.124  0.0800  0.1996 -0.3725
26962W        W43810   9.795   1.739  11.925  0.3166 -0.0268 -0.1832
26963W        W43811   0.218  11.049  14.079  0.1119  0.2092  0.2586
26964W        W43812   4.668   8.902  15.352  0.1544 -0.1805  0.0693
26965W        W43813  17.205   2.923  15.786 -0.0366 -0.1149  0.0070
26966W        W43814   3.760   7.647   1.328 -0.5168  0.0910  0.3361
26967W        W43815   1.872   0.138   1.759  0.1413 -0.2822 -0.0964
26968W        W43816   4.537  10.789  15.631  0.2821  0.1565  0.1054
26969W        W43817   9.840   1.482  13.179 -0.0724 -0.1220 -0.2655
26970W        W43818   0.799   3.250  14.646 -0.0785  0.1496 -0.0952
26971W        W43819  11.297   8.242  12.698  0.1367  0.0866 -0.2709
26972W        W43820   7.745   1.279   2.083  0.1356 -0.0680 -0.0667
26973W        W43821  12.465  17.701  13.095  0.0465  0.0948  0.0260
26974W        W43822   8.933  16.127   1.161 -0.0462  0.1665  0.1827
26975W        W43823   0.598  13.545   4.175  0.0355  0.3180  0.1817
26976W        W43824  11.682  11.067   1.993  0.0051 -0.2633 -0.2273
26977W        W43825   4.764  13.640  16.318  0.1358  0.1858  0.0549
26978W        W43826   6.412   0.979  12.478  0.0774  0.0817  0.0219
26979W        W43827   7.634   7.538   2.316  0.1015  0.2261  0.0118
26980W        W43828  10.008   3.380   0.742 -0.2184  0.1498 -0.1492
26981W        W43829   1.806  12.581  12.884 -0.0172 -0.1958  0.1401
26982W        W43830  15.827   3.945   0.213 -0.1402  0.2111  0.0210
26983W        W43831  11.369  12.020   2.372 -0.0868 -0.1475 -0.1409
26984W        W43832  10.042  17.148   2.982  0.3102 -0.1043 -0.1155
26985W        W43833   0.416  10.841  13.390 -0.2003  0.3113 -0.1790
26986W        W43834  12.321  11.179  13.385 -0.1275  0.0540 -0.3019
26987W        W43835   8.160  10.129  11.444 -0.0063 -0.1133  0.0529
26988W        W43836   3.214   6.848  16.240 -0.1117 -0.0824  0.1794
26989W        W43837  15.364   7.634   0.464 -0.0277  0.0450  0.0566
26990W        W43838   1.631  14.949  12.277  0.3259 -0.2066 -0.1876
26991W        W43839   6.285  13.078  13.264  0.0302 -0.2430  0.0242
26992W        W43840  10.669  10.278  12.357  0.1166  0.3448  0.0841
26993W        W43841   9.401   4.107   0.655 -0.1431 -0.1572 -0.1508
26994W        W43842   1.083  14.428  15.077 -0.1021  0.1369 -0.2642
26995W        W43843  14.200  13.298   0.807 -0.0974  0.3351  0.0388
26996W        W43844  13.448  14.647   3.985 -0.1685  0.0791  0.1872
26997W        W43845   5.232   9.638  15.190 -0.2791  0.1762  0.1286
26998W        W43846   9.377   3.094  15.803 -0.0299 -0.3676  0.0135
26999W        W43847  10.871  13.894   4.436 -0.1487 -0.1675 -0.0107
27000W        W43848   8.620   9.622   0.359 -0.2977 -0.1068 -0.3545
27001W        W43849  16.227   4.080  11.858  0.1359 -0.0831  0.0075
27002W        W43850  15.237  11.149  16.295  0.1388 -0.0417 -0.2542
27003W        W43851  11.422  10.719  14.035  0.0467  0.2605  0.1153
27004W        W43852  12.855   0.432  13.000  0.1101 -0.1072  0.1440
27005W        W43853  16.194   7.351  12.428 -0.0899  0.2205 -0.3815
27006W        W43854  11.551  16.787  16.492  0.3723 -0.1314  0.1640
27007W        W43855   0.461  12.318   0.064 -0.0141  0.0911 -0.0137
27008W        W43856  14.523  14.976  11.820  0.0655 -0.1445 -0.0335
27009W        W43857  15.847  16.391  12.968  0.0467 -0.0102 -0.1033
27010W        W43858   0.056  16.630   2.451  0.1197  0.0102 -0.0139
27011W        W43859  13.977  17.407  15.542  0.0950  0.2388  0.0914
27012W        W43860  11.835  17.472   2.717 -0.0870 -0.0158 -0.2989
27013W        W43861   0.049   4.200   3.714  0.3153 -0.1108 -0.1463
27014W        W43862   3.574  14.692   2.759 -0.1660 -0.3325  0.1370
27015W        W43863  11.541   2.692  16.126 -0.1700 -0.1889  0.1030
27016W        W43864  12.517   1.577  16.212 -0.0483 -0.0296 -0.1911
27017W        W43865  16.039   4.716   5.094 -0.1708  0.0367  0.1086
27018W        W43866   3.954   8.874  12.201 -0.2223 -0.0976  0.0825
27019W        W43867  13.471   2.141   3.177  0.0580  0.0238 -0.0394
27020W        W43868   2.670  15.686  15.193  0.3635  0.0081 -0.2504
27021W        W43869  12.887   7.151  16.539 -0.0353  0.0248  0.2544
27022W        W43870   1.397   5.086   0.296  0.0356 -0.0247 -0.0720
27023W        W43871   0.246   4.593  16.465 -0.1626 -0.2481 -0.0679
27024W        W43872   2.646  11.234  14.346  0.0711 -0.4971 -0.2241
27025W        W43873   4.779   2.756  14.947  0.0107 -0.0573  0.1052
27026W        W43874   9.182  15.559   4.277  0.1145  0.0906  0.0417
27027W        W43875   3.665   1.894   5.840  0.0664 -0.0249  0.0276
27028W        W43876  10.971  12.465   0.751 -0.1400  0.0605 -0.0164
27029W        W43877  10.546   8.503  14.432  0.3194  0.2396 -0.0997
27030W        W43878  15.373  11.169   4.413  0.3116 -0.0827  0.1866
27031W        W43879   8.227   0.756  14.314 -0.2227  0.0034 -0.0228
27032W        W43880  10.256   5.247   2.025  0.0584  0.3147 -0.0350
27033W        W43881  12.989   5.653   4.032 -0.1002  0.3324 -0.0445
27034W        W43882   5.584   7.827   4.641  0.0530  0.0533 -0.4049
27035W        W43883   2.065  17.677  14.430 -0.5766  0.2180 -0.2093
27036W        W43884  12.478   9.629   4.511 -0.1257  0.4594 -0.0286
27037W        W43885   3.784  12.607  15.272 -0.1961 -0.0331  0.0200
27038W        W43886  16.646  12.905   4.426 -0.0858 -0.1832 -0.2851
27039W        W43887   3.616   6.076  11.567 -0.0437  0.1167  0.1113
27040W        W43888  16.767  10.107  15.982 -0.0072  0.1223  0.2911
27041W        W43889  16.552  13.053  14.602 -0.1800 -0.0949  0.1071
27042W        W43890   2.144   0.645   4.135  0.2334  0.1233  0.4430
27043W        W43891   6.302   3.992   1.894  0.0727 -0.3541 -0.1491
27044W        W43892  11.352  16.399   3.549 -0.4063 -0.0412 -0.1086
27045W        W43893   9.330  11.596  11.929  0.0797  0.0272 -0.0104
27046W        W43894   5.419   6.645   2.511 -0.1086  0.2573  0.1176
27047W        W43895   5.700  16.202  14.522 -0.0450 -0.2386 -0.1457
27048W        W43896   4.296   9.495   1.449 -0.0835 -0.0635 -0.1101
27049W        W43897   8.340   2.268   1.602 -0.1252  0.0666 -0.2484
27050W        W43898   5.210  15.720  15.293 -0.1129 -0.2985  0.2817
27051W        W43899  13.350   9.114  14.225  0.3323 -0.2166 -0.0109
27052W        W43900   3.686  13.849   1.757  0.1394  0.0320  0.2569
27053W        W43901  10.418   4.854  15.798  0.0496  0.0473  0.0999
27054W        W43902   4.502  10.303  15.577  0.1841 -0.0791 -0.0289
27055W        W43903   8.442   1.892  14.378 -0.1573  0.1687  0.1160
27056W        W43904  15.260  14.169  14.961 -0.1456 -0.0149  0.2081
27057W        W43905  10.631   2.880  11.907  0.3518 -0.1095  0.2510
27058W        W43906   4.761   4.638   2.173 -0.6108 -0.3116 -0.0357
27059W        W43907   0.012   7.036  12.097 -0.1738  0.2483 -0.2475
27060W        W43908  16.653   0.216   3.051  0.0915 -0.0837  0.2473
27061W        W43909   5.123  17.144  13.344 -0.0201 -0.1350  0.0886
27062W        W43910   1.396  14.246   4.079  0.1331 -0.0034 -0.0684
27063W        W43911  11.677   3.506  16.032 -0.0190 -0.0394  0.4386
27064W        W43912   1.501   1.897   1.933  0.1496  0.1394  0.1521
27065W        W43913   9.757   2.539  15.727  0.1661  0.1030  0.0503
27066W        W43914   4.370   3.521   4.075  0.1103 -0.2268 -0.1539
27067W        W43915  13.535  17.679   2.295 -0.2276  0.1561  0.2383
27068W        W43916   9.604   7.241  15.680 -0.0186 -0.0737 -0.2182
27069W        W43917  13.921   5.274   3.375  0.0533  0.1824 -0.1358
27070W        W43918  12.890   6.443   5.408  0.1041 -0.0928  0.1164
27071W        W43919   4.301   6.942  15.183  0.0065 -0.2225 -0.0806
27072W        W43920  12.725  17.576   3.005 -0.0871 -0.0071 -0.4534
27073W        W43921  13.631   7.681   4.110 -0.2859 -0.2909  0.1199
27074W        W43922   2.913   1.968  11.536  0.3168  0.2248  0.2056
27075W        W43923  17.633  10.654   2.909 -0.1307 -0.0571 -0.1535
27076W        W43924   9.764  12.784  12.951 -0.1392 -0.0191  0.1670
27077W        W43925   2.390   6.395   4.638  0.0481  0.1835 -0.0223
27078W        W43926  17.299  10.862  12.920 -0.1316  0.1029  0.0709
27079W        W43927  16.128   8.953  11.798  0.2436 -0.3328  0.1626
27080W        W43928   3.370   8.290  11.080  0.1530 -0.0800 -0.1497
27081W        W43929   7.781   0.930  13.163 -0.0416 -0.1725 -0.0122
27082W        W43930  16.040   9.436  16.629  0.3149  0.1980  0.1083
27083W        W43931   4.069   6.929  12.737  0.4342  0.0370  0.0381
27084W        W43932  12.384   4.272   1.713  0.0528 -0.1402  0.1486
27085W        W43933   9.778   8.677   2.380 -0.0164  0.3618  0.2355
27086W        W43934   4.611   8.782   5.528  0.2637  0.3223  0.1579
27087W        W43935   0.803  16.582  12.446 -0.0787  0.0629 -0.0113
27088W        W43936  12.235   8.308   1.447 -0.0648 -0.0358 -0.1694
27089W        W43937   6.197   1.970  13.478  0.2096  0.0019  0.0485
27090W        W43938   8.533   7.272   2.700  0.3260 -0.0523  0.1255
27091W        W43939   7.358   9.415  11.475 -0.0794 -0.0821 -0.0540
27092W        W43940   3.211   0.997  16.048  0.2344  0.0467 -0.2389
27093W        W43941   1.397  13.109   2.887  0.0783  0.0654  0.1167
27094W        W43942   7.598   6.228  14.350  0.1758 -0.1293 -0.0016
27095W        W43943   8.881   6.017  15.791 -0.0567 -0.2408  0.2139
27096W        W43944   6.955   1.472   2.092  0.0066  0.0135 -0.4308
27097W        W43945  16.128  11.813  12.541  0.0159 -0.0961  0.0683
27098W        W43946   6.533   9.392  10.798  0.1684  0.0416 -0.1643
27099W        W43947  17.505   2.263  16.543 -0.2083  0.0482  0.2493
27100W        W43948  16.600   2.458  11.772 -0.1562 -0.4204  0.1954
27101W        W43949  11.878   3.943   3.927  0.1662 -0.2599 -0.0242
27102W        W43950   0.383   1.383  11.590  0.2220 -0.0349 -0.1544
27103W        W43951   9.812   6.173  15.173  0.1401 -0.0085 -0.0245
27104W        W43952  11.239   8.002  14.343  0.0150 -0.0023  0.0897
27105W        W43953  11.056   9.886   2.971  0.2864  0.1787 -0.1372
27106W        W43954   0.016   2.301  16.016  0.0273  0.2547  0.2752
27107W        W43955   9.099   9.029   4.780 -0.3146 -0.3188  0.0955
27108W        W43956  11.203  10.698   4.472 -0.1315  0.0105 -0.2603
27109W        W43957  11.969  16.285  15.999  0.1630 -0.1053 -0.0509
27110W        W43958   1.561  15.435   1.139  0.1198 -0.3261  0.2324
27111W        W43959  10.750  11.614  16.378 -0.4098 -0.0318 -0.0668
27112W        W43960   6.452   2.691   0.455 -0.0758 -0.2252  0.2666
27113W        W43961   6.256   3.778  13.302  0.2565  0.1044  0.0586
27114W        W43962  12.829   1.136  16.522  0.1592 -0.2921 -0.0530
27115W        W43963   9.597   9.747  15.794 -0.0294 -0.3700  0.1296
27116W        W43964  15.744  11.724   0.376  0.1173 -0.2334  0.1035
27117W        W43965  11.609  12.730  13.384 -0.2469 -0.1399 -0.0147
27118W        W43966  11.635  17.612   3.969 -0.1528 -0.1139 -0.1594
27119W        W43967  11.149  15.437   4.835  0.4291 -0.0717  0.1236
27120W        W43968  17.593  12.674   2.152 -0.1145 -0.1453  0.1982
27121W        W43969   6.452   3.082   1.779 -0.2061  0.0917  0.0508
27122W        W43970   9.142  17.079   4.393 -0.0393  0.0768  0.1084
27123W        W43971   7.489   3.380   3.141  0.0969  0.0327 -0.1637
27124W        W43972   2.515   6.945   3.297  0.1780  0.0883 -0.0608
27125W        W43973   8.394   5.241   4.879  0.0307  0.0407 -0.0843
27126W        W43974   3.416   6.828   5.447 -0.1258  0.3191  0.3612
27127W        W43975   8.065  16.131   3.730 -0.1502  0.0164  0.1099
27128W        W43976   6.300  12.463   3.156 -0.0204 -0.3097  0.0528
27129W        W43977  14.926   5.313  16.360 -0.0723 -0.0159 -0.0093
27130W        W43978   1.996   5.571  11.785 -0.1173  0.1572  0.1889
27131W        W43979   8.755   1.976   5.814 -0.0042 -0.0493 -0.2326
27132W        W43980  12.967   3.126   3.784 -0.0520  0.1597 -0.2954
27133W        W43981  10.672  16.398  13.369 -0.0269 -0.4458 -0.1181
27134W        W43982  16.681   7.168  16.066 -0.3420  0.0609 -0.0730
27135W        W43983   1.641   8.675  12.747  0.0611 -0.0682  0.0435
27136W        W43984  12.432   1.627  12.608 -0.2877  0.3258  0.0708
27137W        W43985  13.988  10.266  15.917 -0.1000 -0.2745 -0.0112
27138W        W43986  13.938   2.082   1.748 -0.0584  0.0663  0.1021
27139W        W43987   9.327   0.478   3.517  0.1314 -0.1275  0.4789
27140W        W43988   9.119  14.831  13.863 -0.0756  0.0874 -0.0168
27141W        W43989  12.720   9.127   5.196  0.0230  0.0603  0.1896
27142W        W43990  15.822   7.633   4.960 -0.2348  0.1032 -0.0167
27143W        W43991  10.089  15.326  12.008 -0.0387  0.2905  0.2845
27144W        W43992   4.477  15.768  14.458 -0.3257  0.1362 -0.0467
27145W        W43993   3.572   9.024   3.461 -0.0058  0.1723 -0.2792
27146W        W43994  13.105   9.112  13.755  0.0783 -0.0824 -0.0760
27147W        W43995  14.876   5.087   3.981  0.2282 -0.0971  0.0585
27148W        W43996  11.935  15.686   2.021 -0.0732 -0.2934  0.1722
27149W        W43997   4.738  11.429   3.300 -0.1298  0.2127  0.0783
27150W        W43998   1.949  11.366  16.591 -0.0982  0.0368  0.1213
27151W        W43999   9.243   8.786  11.578 -0.0508  0.1492 -0.1589
27152W        W44000  16.478  11.011  16.337  0.2568 -0.0464 -0.1863
27153W        W44001  10.231  16.768   2.701 -0.1031 -0.1742  0.1158
27154W        W44002   2.670   8.228  15.679  0.0573  0.1016  0.1154
27155W        W44003   7.624  12.611   3.585  0.2515  0.0398 -0.0041
27156W        W44004   9.053  12.067  11.325  0.2194  0.0615 -0.0138
27157W        W44005   9.937  15.844   2.699 -0.0523 -0.0505  0.0129
27158W        W44006   7.557   2.686   1.194 -0.1046 -0.1901  0.1697
27159W        W44007   6.116   7.366   5.120 -0.0216  0.2603 -0.2260
27160W        W44008  16.723   9.794   4.310 -0.1553  0.1488 -0.0507
27161W        W44009  16.286  15.857  13.581  0.0416 -0.2571 -0.0813
27162W        W44010  13.271  14.108   1.395 -0.0557  0.2291 -0.1161
27163W        W44011  10.429   0.360   2.848 -0.1236  0.0833 -0.1146
27164W        W44012   7.182   3.901   2.051  0.0078  0.2026 -0.0065
27165W        W44013  14.622   0.123  12.497  0.4237 -0.1414 -0.2734
27166W        W44014   0.944   8.599   3.896 -0.1890  0.0762 -0.2677
27167W        W44015  15.501  11.917  11.397 -0.1425  0.0746  0.0882
27168W        W44016   8.971   6.602  14.275  0.2803  0.1063  0.0162
27169W        W44017  11.534  13.968   2.698 -0.0869  0.2864 -0.2453
27170W        W44018   8.211  11.884  15.707 -0.0514  0.1145  0.0472
27171W        W44019  11.151  10.818  14.454  0.0360  0.1818  0.2074
27172W        W44020   0.430  16.979  16.034  0.3629 -0.3210  0.1105
27173W        W44021   5.916  11.305  15.552 -0.2342 -0.3135 -0.0881
27174W        W44022  10.037  10.059  16.446  0.0458 -0.0043 -0.0819
27175W        W44023   6.449   7.135  10.995  0.0065 -0.0680 -0.3930
27176W        W44024  15.896  14.201  14.210 -0.1621  0.2300 -0.3860
27177W        W44025  14.252   3.057  12.838  0.1097  0.0884 -0.1801
27178W        W44026   9.082   7.728  11.478 -0.0437 -0.3587  0.0208
27179W        W44027  13.788  14.109   1.335  0.0013  0.1961  0.1380
27180W        W44028   3.185   7.707   1.215 -0.2627  0.0343 -0.1690
27181W        W44029  16.244   9.649  15.576 -0.0321 -0.2975  0.3326
27182W        W44030   2.304  10.609  15.852 -0.0190 -0.2519  0.2032
27183W        W44031  11.486   2.820   4.210  0.4128 -0.0463  0.0538
27184W        W44032   1.203   2.543  15.181 -0.1794 -0.0782 -0.0983
27185W        W44033   2.322   4.742  11.129 -0.1276 -0.2661 -0.0529
27186W        W44034  12.957   3.661  14.216 -0.2858 -0.0910  0.0311
27187W        W44035   5.640   1.120   5.590  0.0121  0.0741 -0.0021
27188W        W44036   9.577   9.174  11.719 -0.0225  0.0046  0.1840
27189W        W44037   7.873   8.398   0.393  0.1695 -0.1812  0.1448
27190W        W44038  11.541   8.859   0.318  0.2757  0.2249  0.0994
27191W        W44039   8.760   4.390   3.120  0.4745  0.0035 -0.0999
27192W        W44040   8.891  17.399   0.063 -0.2660 -0.0419  0.1687
27193W        W44041   1.255   5.373  13.372  0.1672 -0.3790  0.2381
27194W        W44042  14.542   2.109   1.038 -0.0524 -0.0405  0.3075
27195W        W44043  16.260  12.426   3.663 -0.1305 -0.2551  0.0400
27196W        W44044   6.548   1.253  14.555  0.1257  0.1683 -0.2836
27197W        W44045   9.031  10.726   4.915  0.0956  0.3726 -0.3227
27198W        W44046   4.620  11.359  15.802  0.3897  0.0427  0.1301
27199W        W44047   7.420   9.510  12.030 -0.0810  0.0549  0.1595
27200W        W44048   0.008   9.502   1.934  0.3165  0.0925  0.0955
27201W        W44049   8.588   1.574  12.610  0.0638  0.1260  0.0496
27202W        W44050   0.398  10.388   0.251  0.1798  0.1275 -0.2063
27203W        W44051   3.034  11.965   6.040  0.1843 -0.2363  0.1956
27204W        W44052   9.774   6.497  12.746  0.1281  0.1285  0.4252
27205W        W44053   0.905   2.012   0.008 -0.0317 -0.1229 -0.0507
27206W        W44054   7.167   9.997  15.359 -0.1619 -0.0361  0.1535
27207W        W44055   5.248  15.702  16.348 -0.0775 -0.3103 -0.1775
27208W        W44056  14.277   3.174   0.221 -0.1098  0.1631  0.1207
27209W        W44057   1.499  13.193   1.122 -0.1109 -0.2078  0.2208
27210W        W44058  10.914  16.172  16.631 -0.2047 -0.0426  0.2107
27211W        W44059  14.808   9.995  13.044  0.2380  0.0248  0.0454
27212W        W44060   1.339   4.911  15.591  0.5900 -0.1503 -0.1055
27213W        W44061  11.011   5.562   5.039  0.0326  0.0766  0.1184
27214W        W44062   9.353   0.467  14.052  0.1525  0.0863 -0.2199
27215W        W44063   9.407   0.962   2.323 -0.0537 -0.4160  0.1190
27216W        W44064  10.476   5.809  11.685 -0.1999  0.0076 -0.1949
27217W        W44065  13.604  12.346  13.823  0.1080 -0.0943  0.0626
27218W        W44066   1.626   4.586   0.161  0.2261  0.3175 -0.0459
27219W        W44067   2.014   1.417   2.746 -0.1495  0.0814 -0.0799
27220W        W44068   5.898   6.643  12.987 -0.1604 -0.0212 -0.2154
27221W        W44069  13.398  16.721   5.770  0.1123 -0.1899  0.0183
27222W        W44070  13.413   3.653   0.497  0.1732  0.5272 -0.0266
27223W        W44071   4.217  15.022   3.195  0.3009  0.0743  0.2564
27224W        W44072   4.020   6.090   5.343 -0.3180 -0.0474 -0.2197
27225W        W44073  12.984  11.849   0.457 -0.0158 -0.1288  0.0778
27226W        W44074   9.404   1.714  13.205 -0.1014  0.0157 -0.0380
27227W        W44075  11.269   3.588   1.616  0.1391 -0.0927 -0.0810
27228W        W44076  14.175  16.071  14.748  0.0158 -0.1727 -0.0269
27229W        W44077  15.676  16.297   0.702 -0.0028 -0.0527 -0.1332
27230W        W44078   5.095   1.212  14.972  0.0494 -0.1843 -0.2686
27231W        W44079   4.084   1.344  15.172 -0.1045  0.1050 -0.0949
27232W        W44080  14.883   2.065  16.338 -0.0285  0.0975 -0.0232
27233W        W44081  11.219   5.775   3.836  0.0635 -0.1445  0.1012
27234W        W44082   9.250   7.385  15.207 -0.0534 -0.0852  0.0908
27235W        W44083  15.431   3.514  13.781 -0.0699  0.0158  0.2234
27236W        W44084   4.058  11.744   0.389  0.2302 -0.2565  0.0180
27237W        W44085  10.830  11.156  13.013 -0.2083 -0.0336 -0.0644
27238W        W44086   7.825  11.513  12.979 -0.1467 -0.1276  0.0503
27239W        W44087   8.254   5.157   4.141 -0.0847  0.2803  0.4147
27240W        W44088  17.048   5.924  16.382 -0.1349  0.1477  0.1211
27241W        W44089  11.327   2.117  15.021 -0.0033  0.4104 -0.2028
27242W        W44090  14.250   0.402   4.157  0.1686 -0.4593 -0.0590
27243W        W44091   1.633  17.528   1.395 -0.0324 -0.2773  0.1041
27244W        W44092   9.354  16.804  13.238  0.0709  0.0146  0.4453
27245W        W44093  10.550  13.916  12.256  0.0862  0.0073  0.1539
27246W        W44094   3.072   3.065  15.206  0.1651  0.2239  0.1549
27247W        W44095   2.875  15.232   4.025  0.0841 -0.0627  0.3222
27248W        W44096  11.007   0.591   2.705 -0.1839 -0.1633  0.0082
27249W        W44097  12.825   5.460   3.137  0.0175 -0.0287 -0.1615
27250W        W44098   4.997   5.196  12.817  0.1206  0.2300 -0.1384
27251W        W44099   4.250  10.478  16.497  0.1005  0.2032 -0.2176
27252W        W44100   0.028  15.045   1.710 -0.2408  0.0844 -0.0180
27253W        W44101   5.999   8.308   4.030 -0.0162 -0.1408 -0.4104
27254W        W44102   8.948   4.581   3.596 -0.2351 -0.2646  0.1946
27255W        W44103   5.709  10.101  14.610  0.0479 -0.2604  0.1278
27256W        W44104  13.661  12.026  16.618  0.2886 -0.3978  0.1647
27257W        W44105  16.563  12.886  16.578 -0.0256 -0.1684 -0.1158
27258W        W44106   8.346  14.743   3.937  0.1260  0.0060  0.0071
27259W        W44107   8.679   4.710   1.736 -0.2150 -0.3770 -0.0559
27260W        W44108  11.547  11.284  14.832  0.0249  0.3127  0.1802
27261W        W44109   2.632   9.454  15.356 -0.0334  0.1257 -0.1801
27262W        W44110   3.426   5.868  14.275 -0.2906  0.2920 -0.2034
27263W        W44111   2.155   1.217  15.039 -0.1789  0.2524 -0.2050
27264W        W44112   5.713   6.291   5.044 -0.3555  0.0020 -0.0209
27265W        W44113   9.180   8.033  14.122 -0.0611 -0.1638 -0.0114
27266W        W44114  12.307  17.691   4.181  0.0195 -0.3258 -0.0215
27267W        W44115   0.314  17.437   1.089  0.0768  0.0072 -0.0354
27268W        W44116  10.513   6.519   2.122 -0.1570 -0.1076  0.2492
27269W        W44117   6.177   3.921   2.788 -0.1322  0.1009  0.2258
27270W        W44118   0.249   9.266  11.590 -0.1266 -0.1830  0.2137
27271W        W44119   8.000   5.311  15.399 -0.2638  0.1556  0.1280
27272W        W44120  14.639  13.912  16.082 -0.0553  0.1324 -0.2808
27273W        W44121   9.369  14.309  15.118  0.1091 -0.1071  0.1127
27274W        W44122  17.078   4.099   4.641 -0.0477 -0.0509  0.2790
27275W        W44123  11.158   7.587  14.781  0.0033 -0.1252  0.3462
27276W        W44124  10.836   0.121   0.816  0.2318  0.1060 -0.2089
27277W        W44125  17.626   4.378   1.996 -0.1439 -0.2529  0.1557
27278W        W44126  14.142  17.099   0.840 -0.1339  0.1079  0.1018
27279W        W44127  16.294  17.467  14.192 -0.1995  0.0463  0.1349
27280W        W44128   6.831   8.297   3.979  0.0040  0.0933 -0.1080
27281W        W44129   5.048   6.302   2.343  0.2163  0.2293  0.2122
27282W        W44130   9.652   6.320   3.709 -0.0808  0.0102  0.0171
27283W        W44131  13.399  12.421   2.766 -0.2280  0.0688 -0.0110
27284W        W44132   4.099   9.169  11.332 -0.1354  0.1197  0.0163
27285W        W44133  11.100   3.965   4.447  0.2036 -0.2858  0.1461
27286W        W44134   5.600  11.852  13.355 -0.0499 -0.1282  0.1547
27287W        W44135   9.066   9.787   2.999 -0.0974  0.0624  0.0151
27288W        W44136  17.282   4.278   3.502 -0.1141 -0.1276  0.0032
27289W        W44137   2.274  17.409  12.947  0.2323 -0.0134 -0.0579
27290W        W44138   6.092   5.435   3.294 -0.1449  0.3439  0.2332
27291W        W44139   0.844   3.312   0.267  0.1606  0.0437  0.1439
27292W        W44140  10.819  17.193  13.742 -0.2135 -0.1653 -0.0371
27293W        W44141   8.949  13.077  13.221  0.1056  0.0343  0.0689
27294W        W44142  15.395   9.200   1.583 -0.4979 -0.0204  0.2205
27295W        W44143   1.676   6.402   6.125  0.1287  0.0439 -0.2829
27296W        W44144   0.377  14.745  13.123 -0.3187 -0.3208  0.3817
27297W        W44145  13.888  17.438  15.012  0.2125  0.1297  0.0161
27298W        W44146  15.209  17.508  15.171 -0.2846 -0.2387 -0.0136
27299W        W44147   7.787   4.728   1.774  0.0816 -0.1838  0.1225
27300W        W44148  11.258   2.214   1.866  0.2081 -0.2347 -0.0187
27301W        W44149  12.192   9.430   2.600  0.1592 -0.1013  0.2124
27302W        W44150   0.328  13.718   0.640  0.0922 -0.0309 -0.0651
27303W        W44151   2.663  10.789   5.092 -0.0426 -0.1294  0.0063
27304W        W44152   3.479  13.555   2.586 -0.3320 -0.1454 -0.2085
27305W        W44153   9.434   3.667   3.081 -0.0050 -0.2416 -0.2052
27306W        W44154  17.635  13.544   0.425  0.1507  0.1913 -0.2812
27307W        W44155  16.478   4.987  13.532  0.1689 -0.2066 -0.1708
27308W        W44156   7.115  10.774   4.240  0.0815  0.1791 -0.1307
27309W        W44157   1.740  12.989  13.250 -0.2230 -0.1534 -0.3146
27310W        W44158   6.498   4.658   4.700  0.1171  0.0536 -0.2360
27311W        W44159  13.909  17.644   4.212 -0.2600  0.0542  0.0775
27312W        W44160  13.983  11.084  12.735 -0.1517 -0.3265 -0.1290
27313W        W44161   1.410   2.602  12.110  0.5236  0.2183  0.0337
27314W        W44162   6.455   4.306  12.076  0.2005  0.0565 -0.0621
27315W        W44163   5.129   0.921   1.099  0.1857  0.0817  0.1663
27316W        W44164   6.180  12.960   5.154 -0.1900  0.1960 -0.2369
27317W        W44165   8.382  17.073  13.638 -0.1184  0.2858 -0.0802
27318W        W44166   1.857  15.775  12.219  0.2077 -0.1951  0.1440
27319W        W44167   4.327  12.204   3.875 -0.0520  0.1163 -0.1556
27320W        W44168  14.829  11.842   0.144 -0.0512 -0.3321 -0.2528
27321W        W44169  16.069   7.566  12.981 -0.0415 -0.0666 -0.2822
27322W        W44170  14.441   4.919  14.665  0.2589 -0.0418 -0.0658
27323W        W44171   2.812  12.958  16.415 -0.0930 -0.0691  0.1861
27324W        W44172  15.902   7.325   3.184 -0.2610 -0.1875  0.0226
27325W        W44173  16.609   7.238   5.257 -0.1518 -0.1992  0.2177
27326W        W44174  13.025  15.051   2.546  0.0167 -0.2590 -0.1459
27327W        W44175   2.410   9.042   5.718  0.1252 -0.0880  0.0182
27328W        W44176  16.931   6.176   4.514  0.2661  0.0331  0.2665
27329W        W44177   9.317  14.779  10.666  0.1750  0.1354  0.1562
27330W        W44178  10.523   5.745   2.011 -0.1981  0.0878 -0.1434
27331W        W44179  10.394  12.336  15.187 -0.1261  0.0703 -0.2740
27332W        W44180   6.184  14.130  16.170  0.0770  0.1730  0.0906
27333W        W44181   0.077  10.164   2.740 -0.5957  0.3378 -0.1604
27334W        W44182   1.024   6.347  13.685 -0.1622 -0.3006 -0.1605
27335W        W44183  10.034  13.191  12.865 -0.1184 -0.2881 -0.3092
27336W        W44184   5.160  10.200   0.727  0.3078 -0.3597 -0.0655
27337W        W44185   6.114   0.683  13.538 -0.0706 -0.0663  0.0198
27338W        W44186   8.131  10.093   4.619 -0.1014  0.2184 -0.4934
27339W        W44187  10.509   7.354  12.788  0.1487  0.0839 -0.2215
27340W        W44188  12.363   1.100  12.711 -0.3198 -0.2067  0.0696
27341W        W44189  13.887   3.188  15.726  0.1240  0.4826 -0.0723
27342W        W44190  13.590   5.457   2.929 -0.5505 -0.1925  0.1287
27343W        W44191   8.006   3.203   2.475  0.5446 -0.0760  0.2009
27344W        W44192   6.560   3.221  15.877 -0.1054 -0.1698 -0.2291
27345W        W44193  10.562   6.210  16.169  0.2215  0.3639 -0.1045
27346W        W44194   1.059  14.095   3.032 -0.0812  0.1501 -0.2019
27347W        W44195   2.150   4.983  12.143 -0.2422  0.0238 -0.0668
27348W        W44196   9.149   9.269  11.456 -0.2070  0.1627 -0.2389
27349W        W44197   7.053   9.113   1.918  0.0072 -0.1277  0.0946
27350W        W44198   3.090  16.289   3.274 -0.2179  0.3115  0.1752
27351W        W44199  11.532   3.740   0.774  0.2816 -0.0931  0.0777
27352W        W44200   6.916   8.547  14.331 -0.2943 -0.2720  0.1577
27353W        W44201  13.217   3.067   4.515 -0.0860 -0.1476 -0.0593
27354W        W44202  15.268   2.247  14.009 -0.2968  0.0304 -0.0003
27355W        W44203  16.459   3.974   2.095 -0.1767  0.0186 -0.1126
27356W        W44204   1.439  13.101   0.453 -0.2698 -0.1679  0.0202
27357W        W44205  10.526  17.625   2.507 -0.0995  0.2065 -0.0288
27358W        W44206   8.238  10.501   5.454 -0.1852  0.4388  0.0771
27359W        W44207   8.524   3.665   0.187 -0.1328 -0.0001 -0.0908
27360W        W44208  16.560   7.060   6.144  0.0816  0.1569 -0.3652
27361W        W44209  14.388   4.657  13.051  0.2025  0.1668  0.2669
27362W        W44210  17.483   3.234   3.996  0.0646 -0.3021 -0.3601
27363W        W44211   8.654  14.337  14.515 -0.0225  0.3192 -0.3739
27364W        W44212   0.620   6.395   4.614  0.0534 -0.0213  0.0647
27365W        W44213  15.980   5.844   6.389 -0.0915 -0.0651 -0.1068
27366W        W44214   3.424   7.997   5.006  0.0486  0.1940 -0.0897
27367W        W44215  10.257   5.176  12.500 -0.2410  0.3221  0.3043
27368W        W44216  11.279  15.791  13.882 -0.3235  0.2078  0.0632
27369W        W44217   3.683  14.210   2.675  0.0877  0.0378 -0.2047
27370W        W44218   6.649  14.896  12.715 -0.0954  0.0039  0.1115
27371W        W44219   6.587   7.963   1.872  0.0162  0.2026 -0.2432
27372W        W44220  17.405   5.445   2.455  0.2731 -0.4674 -0.1426
27373W        W44221   9.249   6.417  12.684 -0.0773  0.3075  0.0282
27374W        W44222  15.727  12.393  14.440 -0.2247 -0.2181  0.1833
27375W        W44223   9.188   7.165   2.199  0.1220  0.1844  0.1804
27376W        W44224   5.799  13.920   3.393  0.0649 -0.0056 -0.0384
27377W        W44225  14.195   6.157   4.768 -0.1040  0.0917  0.4506
27378W        W44226   0.470   1.574  11.087 -0.2642  0.1184 -0.1056
27379W        W44227   4.127   5.770   1.990  0.0771  0.0044 -0.2188
27380W        W44228   3.162   4.892   4.080 -0.0827 -0.1637  0.3842
27381W        W44229  15.026  12.765  13.894  0.7257 -0.1510  0.1381
27382W        W44230  16.537  11.755   5.877  0.1191 -0.0179  0.0610
27383W        W44231   5.877   5.766   0.924 -0.1182 -0.2559  0.1671
27384W        W44232  11.150  15.189  12.510  0.0645  0.2449  0.0819
27385W        W44233  10.791  14.973  13.274 -0.0516 -0.2795  0.0977
27386W        W44234   9.317  14.441   5.976  0.0636  0.0095 -0.1384
27387W        W44235  13.542  10.486  11.778  0.0436 -0.0770 -0.2707
27388W        W44236  17.014   5.860  15.330 -0.1994  0.1523 -0.1945
27389W        W44237  15.400  12.944   4.246  0.0948 -0.1067 -0.0839
27390W        W44238   6.140   6.654   3.702 -0.0768  0.0939  0.3039
27391W        W44239  10.807   6.989  12.771 -0.0385  0.1213 -0.2454
27392W        W44240   0.159  14.328   0.954 -0.0158 -0.1074  0.1496
27393W        W44241  14.981   4.086  14.861 -0.4130 -0.1457  0.1511
27394W        W44242  12.929  11.681   3.785 -0.1028 -0.0522 -0.0783
27395W        W44243  14.281  13.649   4.377  0.2012 -0.0061  0.0117
27396W        W44244   3.169   8.088   0.890  0.0231  0.0567  0.2520
27397W        W44245  10.524   6.674   4.518  0.0698  0.2963 -0.1372
27398W        W44246   0.267   1.127   5.363 -0.1289  0.0908 -0.1053
27399W        W44247   8.278  16.496  13.978  0.0421 -0.2579  0.0109
27400W        W44248   5.006   5.063  12.357  0.4293 -0.4285  0.3435
27401W        W44249   2.392  13.627  12.077  0.1574 -0.1535  0.1562
27402W        W44250   9.570   0.288   0.642 -0.1346 -0.0681  0.0186
27403W        W44251   3.664   9.240   4.666  0.0099  0.1451 -0.0914
27404W        W44252   1.712  15.358  11.883 -0.3344  0.1318  0.2466
27405W        W44253   8.708   0.398   3.653 -0.0542 -0.3989 -0.1143
27406W        W44254   8.154   1.587   4.257  0.0832  0.0708 -0.1685
27407W        W44255  12.990  13.404   3.892  0.4648 -0.2947  0.1734
27408W        W44256   7.738   9.537   2.357  0.1806 -0.0657  0.1517
27409W        W44257  17.044   2.943   1.398  0.2274 -0.0576 -0.1802
27410W        W44258  17.297   3.415  13.430  0.3207 -0.1032 -0.0428
27411W        W44259  17.274  13.714  11.200 -0.1199 -0.2995  0.0096
27412W        W44260   2.040   6.863  12.758  0.2262 -0.1117  0.3624
27413W        W44261   5.144  12.175   1.604 -0.3482  0.1795  0.2202
27414W        W44262   4.070  11.780   3.782  0.0473  0.1147  0.0438
27415W        W44263   4.036  17.211  12.892  0.1385  0.3160 -0.0896
27416W        W44264   3.472   5.200   0.409  0.2604  0.0539  0.2661
27417W        W44265  15.335  13.016  15.752 -0.0248  0.0313 -0.1202
27418W        W44266   2.952   1.773   2.266  0.0899 -0.0892 -0.2010
27419W        W44267  13.936  15.756   1.310 -0.0982  0.0030 -0.0387
27420W        W44268   6.256  16.365  12.271  0.0765  0.2799  0.2585
27421W        W44269   2.291   7.533  13.385 -0.0591  0.0264  0.2042
27422W        W44270   7.810  16.743   0.425 -0.1806  0.0973 -0.0625
27423W        W44271   4.897   0.167   1.786 -0.2048 -0.2090 -0.1953
27424W        W44272   3.539   2.462  11.541  0.0736 -0.0290  0.0250
27425W        W44273   5.238  14.497  13.366 -0.0330 -0.1990  0.2402
27426W        W44274   0.949   7.353  14.553  0.3034  0.3023 -0.1651
27427W        W44275  13.995  12.326   4.532  0.0958  0.3831 -0.0702
27428W        W44276  12.839  14.241   6.066 -0.0789  0.1529 -0.0885
27429W        W44277   5.282   4.034  16.063 -0.2083 -0.0887 -0.2581
27430W        W44278   9.188   5.888  11.518  0.1557  0.1336 -0.2827
27431W        W44279   4.273   4.802   2.180  0.0273  0.3647  0.1672
27432W        W44280   1.649   1.695   3.386  0.0433 -0.0227 -0.1534
27433W        W44281   2.336   6.314   2.486 -0.2277  0.2847  0.1967
27434W        W44282  15.379  14.055  13.689 -0.0242  0.0094  0.1778
27435W        W44283   4.078  11.718  13.736 -0.1151  0.3032 -0.2384
27436W        W44284   9.704  13.711  14.507  0.0213  0.0357 -0.1427
27437W        W44285   4.958   2.255  14.122 -0.1328  0.0863 -0.1118
27438W        W44286  12.688  15.525   2.609  0.1623  0.2722 -0.0323
27439W        W44287   8.174  15.832  11.363 -0.3373 -0.2423 -0.0425
27440W        W44288   4.844  17.655   4.796 -0.0142 -0.1366 -0.0762
27441W        W44289   9.371  12.935   1.381  0.0152  0.2603 -0.1147
27442W        W44290  16.518   1.047  12.245  0.0639 -0.2140 -0.0418
27443W        W44291   6.393  13.019  14.073  0.0248  0.0219  0.0290
27444W        W44292  15.953   8.632   5.015 -0.3355 -0.4323 -0.0388
27445W        W44293  12.525  12.208   5.440 -0.1262 -0.2059 -0.1592
27446W        W44294  17.555   9.108   3.256 -0.1810  0.2723  0.0662
27447W        W44295   9.746   9.472   3.341  0.0811 -0.2026 -0.0327
27448W        W44296   9.915  14.060  15.883 -0.1685 -0.1524 -0.1267
27449W        W44297   8.059  13.807  11.900 -0.2628  0.1143  0.0830
27450W        W44298   8.427  13.627   2.683  0.1571 -0.0612 -0.0695
27451W        W44299  16.450   9.453   2.789 -0.2494 -0.1338  0.0844
27452W        W44300   3.996   4.399  15.329 -0.1409  0.1186  0.0547
27453W        W44301  13.625   1.133  12.653 -0.1147  0.0107 -0.0323
27454W        W44302  16.653  11.925   0.041 -0.0992 -0.0505 -0.0039
27455W        W44303  10.462  10.745   0.918 -0.1445 -0.2064 -0.0317
27456W        W44304  10.198   5.110   0.658  0.0427 -0.1031 -0.2526
27457W        W44305  14.398  14.050  14.771 -0.0504  0.0693 -0.0729
27458W        W44306   6.745  15.605   4.139 -0.0985 -0.2988  0.2370
27459W        W44307   6.055  16.297   1.944 -0.0313  0.0106 -0.0791
27460W        W44308   9.588  16.669  12.627 -0.2031 -0.0342 -0.2613
27461W        W44309   6.206   5.279  13.463 -0.1246  0.4253  0.0230
27462W        W44310  16.769  14.693  13.127 -0.0352 -0.0039 -0.0845
27463W        W44311  10.184  10.584   3.084  0.1115 -0.0213 -0.0188
27464W        W44312  17.486   8.818  13.199 -0.3012 -0.0403 -0.0262
27465W        W44313   0.006   8.420   4.311  0.0627  0.0889  0.2933
27466W        W44314  11.881   1.631   3.275 -0.0220 -0.0068  0.0968
27467W        W44315  11.113   4.002   1.469  0.0819 -0.0955  0.1419
27468W        W44316   7.431  10.419   4.067  0.1772 -0.4329  0.0403
27469W        W44317   4.307   9.280  12.313  0.0449  0.2135  0.0637
27470W        W44318   5.517  15.244   1.459  0.2228 -0.2206 -0.2599
27471W        W44319  13.975   6.174   2.782  0.1027  0.0412 -0.2424
27472W        W44320  16.087  10.837   2.003  0.2120 -0.2918  0.0005
27473W        W44321  16.287   2.279  11.393 -0.3330 -0.1435  0.1930
27474W        W44322   6.793  16.788  13.501  0.0854 -0.2456 -0.2781
27475W        W44323  11.590   4.676  13.830  0.2533  0.2501  0.1301
27476W        W44324  13.239   6.418   1.876  0.1337  0.0598  0.0525
27477W        W44325   7.774  10.831   1.165 -0.2992  0.1250  0.3068
27478W        W44326  12.428  10.301   1.388  0.1976  0.0769  0.2241
27479W        W44327   5.633  14.060  16.569 -0.0631 -0.1290  0.1648
27480W        W44328   7.157  15.740   1.376 -0.1675 -0.1911 -0.1909
27481W        W44329  10.879   7.133   0.965  0.2224 -0.1443  0.0009
27482W        W44330  11.122   7.069  14.607 -0.4322  0.0701  0.1315
27483W        W44331  12.614   1.728  12.076 -0.0142  0.0548  0.2835
27484W        W44332   3.108  11.024  13.117  0.1365 -0.0117 -0.2578
27485W        W44333  14.293  10.179   0.603  0.1850  0.0040  0.1186
27486W        W44334   0.915   6.536  15.494  0.2292  0.0365  0.1662
27487W        W44335   9.042   8.761  15.009 -0.1686  0.0895 -0.1522
27488W        W44336   6.405  13.316  15.784  0.1573  0.1285  0.2275
27489W        W44337  11.154   4.863  12.856 -0.0651  0.0691  0.2719
27490W        W44338  10.184   7.059   4.410  0.2252  0.3345  0.1214
27491W        W44339  11.610   8.590  15.650  0.1687  0.3197  0.0724
27492W        W44340   2.569  13.518  16.373  0.0023  0.1189 -0.0866
27493W        W44341  10.099   3.621  15.395 -0.0504  0.0949  0.2477
27494W        W44342   2.729  15.847  15.691 -0.0354  0.0327  0.0743
27495W        W44343  14.875   0.163   3.229  0.0566  0.0396 -0.2476
27496W        W44344   0.344   9.043  14.032  0.1194 -0.0772  0.2702
27497W        W44345   2.983   9.008  10.768  0.1010 -0.1292 -0.1214
27498W        W44346  13.445   7.904  12.366  0.0745 -0.0488 -0.2578
27499W        W44347  10.301   2.154   2.166  0.0327  0.0513 -0.3936
27500W        W44348   8.931   4.383   2.630  0.1373 -0.1375 -0.1016
27501W        W44349   1.294  16.246  13.134  0.1200 -0.0118 -0.2465
27502W        W44350   4.361  17.538  12.770  0.0264 -0.3166 -0.4814
27503W        W44351   6.752  12.856  16.559  0.1201 -0.0961 -0.1576
27504W        W44352   2.173  17.611   5.253  0.1533  0.0916  0.2166
27505W        W44353   5.940  14.703   5.730 -0.0562 -0.0235 -0.0417
27506W        W44354   2.355   2.429   1.170 -0.4307  0.4063  0.0371
27507W        W44355   9.524  14.578  13.258  0.3971  0.2334  0.1299
27508W        W44356   5.204   4.900  11.547 -0.4498  0.1677  0.0553
27509W        W44357   7.689  12.163   3.486 -0.3494 -0.0300  0.0830
27510W        W44358   7.846  10.257  16.578 -0.0400  0.0112 -0.1378
27511W        W44359  15.599   5.786  11.683  0.1203 -0.2351 -0.3093
27512W        W44360   3.707   3.552   4.795 -0.0857  0.1278 -0.1157
27513W        W44361  16.871   6.197   5.359  0.1358 -0.0591  0.1931
27514W        W44362   5.041  15.024  14.008 -0.0452  0.0291  0.0911
27515W        W44363  14.480  15.396   3.074  0.0898 -0.0059  0.3619
27516W        W44364   1.098   0.633   5.458  0.0807  0.2900 -0.1711
27517W        W44365   5.241  10.287   4.131  0.0818  0.0397  0.1498
27518W        W44366   9.332   0.211  15.333  0.2766  0.1624 -0.1725
27519W        W44367  17.017   6.026  15.869 -0.1565  0.1799  0.1075
27520W        W44368  13.848   8.061   4.940 -0.1826 -0.0906 -0.0431
27521W        W44369  10.759  11.075   0.777  0.0799 -0.3267 -0.0987
27522W        W44370   8.387   2.616  16.673 -0.0795 -0.2329  0.0199
27523W        W44371  15.393  10.453   3.866 -0.0097  0.0209 -0.1271
27524W        W44372  16.355   4.525   2.401  0.1833 -0.0984  0.0887
27525W        W44373  16.164   6.522   4.740  0.4455  0.0564  0.2022
27526W        W44374   1.135  10.651   1.772 -0.0272  0.0037 -0.0420
27527W        W44375   7.864   8.555   4.958 -0.3833  0.1876  0.0019
27528W        W44376   3.033   4.182  11.970  0.0225 -0.0270  0.2352
27529W        W44377   3.245   9.885   5.176  0.0554  0.0607 -0.1760
27530W        W44378   9.597  10.191  13.334  0.0073 -0.4435  0.1525
27531W        W44379  16.901   7.842   3.072 -0.1717  0.0711 -0.0617
27532W        W44380   5.814   6.432   3.427 -0.1881 -0.0811 -0.2378
27533W        W44381   8.610  16.551  15.678  0.1688 -0.0074 -0.3504
27534W        W44382   3.935  12.611   1.236 -0.3591 -0.0587 -0.1035
27535W        W44383   0.049  14.499  11.857 -0.1690 -0.0363 -0.0694
27536W        W44384   4.833   7.825   0.192 -0.3288 -0.1691  0.3584
27537W        W44385   9.395  13.818   3.364 -0.2236 -0.1522  0.2195
27538W        W44386   4.249  12.310  16.057  0.0616  0.3107  0.2105
27539W        W44387   0.485   2.292  11.968  0.1288 -0.1041 -0.0933
27540W        W44388   4.026  10.279   4.964  0.0731  0.0831  0.4409
27541W        W44389  12.446   9.421  13.398 -0.1484 -0.0251  0.0022
27542W        W44390   0.611  14.642  15.180  0.2288  0.0205  0.1148
27543W        W44391  10.488   4.237  16.545 -0.2145  0.1686 -0.1609
27544W        W44392  12.697   1.312  10.800 -0.1820  0.2342 -0.1477
27545W        W44393  14.276  14.041  11.469 -0.0219  0.0651  0.0738
27546W        W44394   5.135  10.704   0.857 -0.1548  0.0841  0.1473
27547W        W44395  10.108   0.504  14.622 -0.2342  0.2958  0.3008
27548W        W44396  15.574  12.120   5.668 -0.0133  0.1318  0.2013
27549W        W44397   4.862   1.267   0.202  0.0070 -0.0673  0.0112
27550W        W44398  15.858  15.938   1.534 -0.2048  0.4399 -0.2293
27551W        W44399  16.395  16.982   3.001  0.0415  0.2678 -0.0644
27552W        W44400  11.772   7.787   4.536  0.0449 -0.0706 -0.1999
27553W        W44401   6.787  13.259  16.064 -0.0641 -0.0875  0.0795
27554W        W44402   7.174   6.452  13.898 -0.2242 -0.2265 -0.3017
27555W        W44403   7.275  14.664   2.740 -0.0606  0.3686 -0.2966
27556W        W44404   2.679  12.693  15.838  0.1763 -0.0237  0.0064
27557W        W44405  10.559  11.489   0.593 -0.0149 -0.0665 -0.1536
27558W        W44406  16.151   0.491   3.156  0.0271 -0.0423  0.0357
27559W        W44407  17.297  12.870   2.838 -0.4601  0.2019 -0.0212
27560W        W44408  11.759  14.251  12.177  0.1441 -0.3464 -0.0617
27561W        W44409  10.819   9.268   2.274  0.0991 -0.1743 -0.1279
27562W        W44410  17.152   2.258   3.663 -0.1927 -0.1199 -0.0231
27563W        W44411  16.209  17.197   2.028 -0.2433  0.2772  0.0408
27564W        W44412   5.095  11.513  15.897  0.0731 -0.1459 -0.1341
27565W        W44413   2.667   7.890   2.302 -0.0535  0.3074  0.2812
27566W        W44414   3.103   7.541   5.044 -0.0607 -0.1654  0.0207
27567W        W44415  15.629   0.865   5.422 -0.0934  0.0846 -0.0253
27568W        W44416   9.820  14.675   6.215  0.0416  0.0956  0.0932
27569W        W44417  14.160   7.587   1.902  0.2756  0.1331 -0.0140
27570W        W44418  17.601   8.841  14.850  0.2529 -0.1415  0.0214
27571W        W44419   4.493   9.478  11.420 -0.0082 -0.2961  0.1869
27572W        W44420  13.625   7.418  14.711  0.1799 -0.2488  0.0301
27573W        W44421  14.751   8.286   0.900  0.4042  0.0254  0.0001
27574W        W44422  14.819   2.978  12.181 -0.2815  0.2242  0.2075
27575W        W44423  12.009  13.818   0.053  0.0241  0.0157  0.1384
27576W        W44424   4.910  14.629  15.677  0.1892  0.0430 -0.1992
27577W        W44425   8.491  11.710  14.518  0.3532 -0.0657  0.0528
27578W        W44426   5.225   2.804   1.157  0.1111 -0.2869 -0.3181
27579W        W44427  12.912   5.174   0.513 -0.0161  0.0467 -0.0464
27580W        W44428  12.382   3.475  14.681 -0.0638  0.0621  0.2330
27581W        W44429   0.155   9.735  15.439 -0.1559  0.2561  0.3244
27582W        W44430  14.645  13.502  12.773 -0.0758  0.2554 -0.3714
27583W        W44431  12.896  10.882   2.826 -0.1802  0.0750  0.1658
27584W        W44432  16.381  13.105  11.496  0.4351 -0.0716 -0.2452
27585W        W44433  14.630  10.636  12.181 -0.1281  0.0305  0.5021
27586W        W44434  14.063   9.885  16.362 -0.0118 -0.1139  0.3532
27587W        W44435   6.388  14.537   5.344 -0.0098  0.2735 -0.1943
27588W        W44436  17.551  14.439  16.006  0.2871 -0.0200 -0.2895
27589W        W44437  11.881  11.577   3.105 -0.0035  0.0626  0.3594
27590W        W44438   3.190  13.109  15.650  0.0753 -0.1653  0.1573
27591W        W44439   8.963   5.176   5.817 -0.3754  0.0607 -0.1872
27592W        W44440   8.896  11.171   0.997  0.0191 -0.1028  0.1414
27593W        W44441  10.642   1.649  16.304  0.0416 -0.1574 -0.1395
27594W        W44442   1.042   4.558  15.400 -0.0138 -0.2038 -0.1565
27595W        W44443  15.539  15.964  12.969  0.0382  0.1398  0.1252
27596W        W44444   2.334  12.050   1.576 -0.2045 -0.0875 -0.2813
27597W        W44445   7.605  11.453  11.139 -0.4853  0.0608 -0.0621
27598W        W44446   8.550  11.122  14.608 -0.1769 -0.0304 -0.0907
27599W        W44447   3.190   1.654   5.836 -0.0328  0.1855 -0.1552
27600W        W44448   7.907   2.716   2.452 -0.2749  0.0956  0.2074
27601W        W44449  13.663   1.622   4.721  0.0441 -0.1857  0.1123
27602W        W44450   4.624   8.146  12.032  0.0482 -0.2373  0.0609
27603W        W44451  10.460  11.322  13.360  0.0644  0.0975  0.0536
27604W        W44452   4.029   8.239  11.531  0.2233 -0.0006 -0.1469
27605W        W44453  16.388   6.145  12.086 -0.1066  0.0778  0.2364
27606W        W44454   9.060   9.891   0.277 -0.3392 -0.2274 -0.1473
27607W        W44455   1.512   8.278   0.455  0.0129  0.1393 -0.0746
27608W        W44456  16.123  12.285  12.604 -0.0510  0.0152 -0.1141
27609W        W44457  16.647  12.727   3.820  0.1028 -0.3780  0.0698
27610W        W44458  17.203  14.790  12.778  0.3235 -0.1109  0.2300
27611W        W44459  12.198   6.286   0.656  0.1998 -0.0694 -0.2594
27612W        W44460   4.721   3.575   5.443  0.1317  0.1929  0.1286
27613W        W44461   8.466   0.259  13.946  0.1156 -0.1190  0.3657
27614W        W44462   8.334   4.972  16.238 -0.0761 -0.2380 -0.1123
27615W        W44463  16.398   4.623  14.536  0.1435  0.1574  0.0671
27616W        W44464   3.906   7.812   1.852  0.0690  0.1195  0.2657
27617W        W44465  12.947   8.183  15.961  0.4219  0.1827  0.1946
27618W        W44466  14.165  11.304  14.349  0.0717 -0.0921  0.1482
27619W        W44467  13.427   5.571  13.793  0.0302  0.5946 -0.1246
27620W        W44468  12.602   1.221   4.550  0.0154  0.0363  0.0568
27621W        W44469   8.238  10.954  16.191  0.0430 -0.0649  0.0085
27622W        W44470   3.054  14.701   3.380 -0.0828  0.3845 -0.2576
27623W        W44471  10.651  11.785   3.507  0.0189 -0.0766  0.0672
27624W        W44472  15.258  14.274  12.466 -0.0781 -0.2630  0.3237
27625W        W44473  16.199   4.443  16.397  0.1394  0.0402  0.1534
27626W        W44474   5.024   5.835   1.881  0.1053 -0.1463  0.0255
27627W        W44475   4.196  14.413   0.775  0.3754 -0.3638 -0.0929
27628W        W44476   7.492   6.289  13.046  0.0998  0.1214  0.1361
27629W        W44477  16.714   3.901   2.968 -0.1400  0.1571 -0.2043
27630W        W44478   4.990   6.250   0.350  0.4032 -0.1847 -0.3716
27631W        W44479   6.582  16.575  15.472 -0.1111 -0.0595  0.0441
27632W        W44480  11.020  15.310  13.587  0.2807  0.0328 -0.1214
27633W        W44481  11.343  10.526  16.257  0.1135  0.0210  0.1793
27634W        W44482  14.916   6.251  16.583  0.0926 -0.1133  0.2585
27635W        W44483  10.287  15.147  13.030 -0.2733 -0.1083  0.0371
27636W        W44484   1.271   9.838  16.627  0.5330  0.0493 -0.0770
27637W        W44485   5.772  17.202   1.148 -0.2329 -0.3073  0.1621
27638W        W44486   1.878  11.679  12.282  0.0003  0.0517 -0.0461
27639W        W44487   4.199  17.606  11.848  0.4433 -0.1749  0.0860
27640W        W44488  13.049  15.530   1.046  0.0174  0.2072 -0.0263
27641W        W44489  17.604   1.864   1.236  0.0684 -0.1896  0.1888
27642W        W44490  16.101  14.808  12.157 -0.1763 -0.0783 -0.0504
27643W        W44491   2.475   2.991  14.005 -0.1667  0.2204  0.0702
27644W        W44492   5.791  11.720   4.114 -0.1392 -0.0019  0.0105
27645W        W44493   5.323  14.546   2.079  0.1128  0.1185  0.3064
27646W        W44494   4.361   7.390   4.184  0.0919  0.3351  0.1475
27647W        W44495   8.201  10.219  13.710 -0.2422  0.1728 -0.0124
27648W        W44496  12.561   9.319   1.235  0.0635  0.0291 -0.0963
27649W        W44497   0.066   0.501   0.804  0.2053  0.0549 -0.2106
27650W        W44498   9.572  16.826  13.698  0.2519 -0.4824 -0.0844
27651W        W44499   1.012   6.858  11.157 -0.2515 -0.1344 -0.0371
27652W        W44500  17.081  15.913  11.545  0.0293  0.2873  0.0853
27653W        W44501  10.683  14.218  16.191 -0.0296 -0.0455  0.0670
27654W        W44502  12.038  17.051  12.410 -0.1227 -0.0471  0.3986
27655W        W44503   3.081   3.183  16.134  0.0445 -0.3385  0.2159
27656W        W44504   6.333   4.796  13.243 -0.0512  0.1798 -0.2890
27657W        W44505   5.760   3.562  12.370 -0.0896  0.0113 -0.3875
27658W        W44506   2.930   4.846  14.618 -0.3508 -0.0821  0.2373
27659W        W44507   3.215   2.842   3.740  0.2836 -0.2282 -0.1087
27660W        W44508  10.955  10.138   0.286 -0.2328 -0.0428  0.2061
27661W        W44509   8.952  17.299  16.247 -0.0161 -0.3459  0.1049
27662W        W44510  11.483   6.935  14.264  0.2324  0.1986 -0.0027
27663W        W44511  10.179  12.283  15.744 -0.0316  0.2024  0.0848
27664W        W44512   2.213   1.578  14.697 -0.1496 -0.4828 -0.4347
27665W        W44513   0.882   0.666  14.772  0.0555  0.0356  0.0016
27666W        W44514  16.458   2.584   3.231  0.3147  0.1019  0.1087
27667W        W44515   8.404   4.471  13.144 -0.0265  0.3800  0.1454
27668W        W44516  14.936  13.139   4.041  0.1796  0.3390  0.1832
27669W        W44517  11.538   4.811   2.205  0.0647  0.0956 -0.0572
27670W        W44518   1.642  14.178   3.027  0.0784  0.1550  0.0628
27671W        W44519   7.429  15.459   5.232  0.0623 -0.1226  0.4885
27672W        W44520   3.569  10.359  14.491  0.0989  0.0410 -0.1819
27673W        W44521  14.550  17.693   2.869 -0.1440  0.2258 -0.1285
27674W        W44522   5.203   7.350  16.092 -0.0990 -0.2929  0.1995
27675W        W44523  17.320   0.758   1.760  0.1485  0.2179  0.0603
27676W        W44524  16.910  10.534   0.714  0.3003  0.0163 -0.0464
27677W        W44525   0.608   6.347  13.450 -0.2296  0.2418  0.0764
27678W        W44526   5.360   7.929  14.625 -0.0844 -0.1172 -0.0641
27679W        W44527   7.445   7.161   3.487 -0.0598 -0.0924  0.1210
27680W        W44528   6.023  10.500  15.974 -0.1251  0.0748  0.0984
27681W        W44529   9.382  11.203   0.811  0.0529 -0.4935  0.0632
27682W        W44530  13.052   6.229   3.640  0.1297 -0.1334  0.0339
27683W        W44531  13.419   8.201   1.592  0.1832 -0.0794  0.2076
27684W        W44532   3.630   5.317   0.885  0.0772 -0.0295  0.2842
27685W        W44533   6.025  12.397   5.314 -0.0976 -0.4233 -0.1040
27686W        W44534   7.633  12.502  14.816 -0.1572  0.0317  0.1365
27687W        W44535  10.447   4.314  15.781  0.0439 -0.1061 -0.1121
27688W        W44536   3.496  13.723  13.361  0.3425  0.2707 -0.1407
27689W        W44537   1.207  13.430   2.126 -0.2760  0.0020 -0.3894
27690W        W44538   0.335   2.487   0.668 -0.0109  0.1807  0.0138
27691W        W44539  16.675  11.246  15.044  0.1386  0.1627  0.0874
27692W        W44540  14.230   5.197   4.908  0.0062  0.0766 -0.1035
27693W        W44541   3.925  10.721   1.236 -0.0223  0.1163 -0.2115
27694W        W44542  17.671  16.524   3.719  0.0414 -0.0327  0.2547
27695W        W44543   6.781   5.564   2.632 -0.1374 -0.2901 -0.2257
27696W        W44544   2.218  10.235  16.583 -0.1526  0.0813 -0.2124
27697W        W44545  17.349   3.132  16.325  0.4264  0.1241 -0.4444
27698W        W44546   5.889  10.102  16.295  0.2528 -0.3829  0.0271
27699W        W44547   4.734  10.704   1.454 -0.0084 -0.1163 -0.0475
27700W        W44548   2.804  14.294   2.059  0.3909 -0.3303  0.2242
27701W        W44549   7.477  15.429   2.160  0.0832  0.1062  0.2949
27702W        W44550  14.882   0.373   4.904  0.1871  0.1069  0.2534
27703W        W44551   3.999   4.991   3.762  0.1781 -0.5084 -0.3527
27704W        W44552   4.114   8.034  12.027 -0.0659 -0.0950  0.0506
27705W        W44553   3.997   0.531   1.940  0.3161  0.1969  0.2104
27706W        W44554   2.165  12.896   1.339 -0.2206  0.0914 -0.3336
27707W        W44555   4.447  12.941  14.754 -0.4946  0.0925 -0.0701
27708W        W44556  10.755  17.570  14.220  0.1295  0.3040  0.3861
27709W        W44557   2.221  16.976  12.444  0.0904 -0.1487 -0.1017
27710W        W44558   4.755   1.242   5.218  0.0521  0.0069  0.1548
27711W        W44559   6.569  16.501   0.244  0.3591  0.0277 -0.1245
27712W        W44560  15.484  12.671   0.953  0.1683  0.1491  0.1557
27713W        W44561  13.801   7.365  13.372  0.0021 -0.2108  0.3783
27714W        W44562   6.620   1.310  12.095 -0.0776  0.1763  0.2346
27715W        W44563   2.986   4.570  11.612  0.0796 -0.0261 -0.3084
27716W        W44564  17.189   2.414  11.535 -0.0867  0.0989 -0.0477
27717W        W44565  14.468   1.264   1.476 -0.1282  0.2819 -0.0340
27718W        W44566   8.023   2.065   4.297 -0.0261  0.2037  0.1370
27719W        W44567  17.113  16.656  13.006  0.1836  0.1694 -0.1475
27720W        W44568   3.061   5.659  15.878  0.1912 -0.3569  0.1989
27721W        W44569   6.160  11.464  15.982 -0.0818 -0.6123  0.2172
27722W        W44570   1.687  16.322   1.751 -0.1947  0.3863  0.0472
27723W        W44571   2.581   3.442  13.316  0.3634 -0.3259  0.1317
27724W        W44572  14.435   0.484   5.076 -0.3209  0.0601  0.3201
27725W        W44573   0.974   8.410   2.779 -0.0691 -0.1544 -0.1085
27726W        W44574   5.261   0.811  13.556 -0.2802 -0.0516  0.0494
27727W        W44575   3.092   5.892   5.150 -0.1489  0.1119  0.2210
27728W        W44576   1.325   7.047  14.347  0.1519 -0.0458 -0.3570
27729W        W44577  10.985   6.680   0.689 -0.1332 -0.0926  0.0938
27730W        W44578  14.551   1.507  15.572  0.0440  0.1348  0.3478
27731W        W44579   4.596  12.201  16.439  0.1792 -0.0952  0.0837
27732W        W44580  14.927  11.563   1.360 -0.0279  0.2590  0.2514
27733W        W44581   2.469   0.194   4.189 -0.2493  0.0980  0.2009
27734W        W44582   8.685   2.634  14.578 -0.0149 -0.1782 -0.2139
27735W        W44583   3.003  10.559   4.779  0.0214  0.0294  0.0946
27736W        W44584  11.827   7.937   1.298 -0.1097  0.3103  0.0546
27737W        W44585   9.035  10.676   0.165  0.0902  0.0048  0.0759
27738W        W44586  12.035   3.249   3.265 -0.3593 -0.2239 -0.2232
27739W        W44587   0.033   2.894   4.591 -0.0158  0.1101  0.2551
27740W        W44588   7.458   4.405   5.146 -0.1604  0.0386  0.3543
27741W        W44589   0.466   6.584  12.246  0.0798 -0.0730 -0.1299
27742W        W44590   8.906  15.480   4.749  0.1987  0.1387 -0.2057
27743W        W44591  15.896  15.110   3.854 -0.0680 -0.1853 -0.2827
27744W        W44592   0.209  11.852   3.605  0.0683  0.2028  0.2641
27745W        W44593   5.326   8.989  10.674  0.1645 -0.3592  0.0592
27746W        W44594  14.551  14.990   0.667  0.3041  0.0718 -0.0017
27747W        W44595  17.133   2.376  14.130  0.0849 -0.1969 -0.1017
27748W        W44596  16.445  10.150  14.602  0.1348 -0.1390 -0.3829
27749W        W44597   7.311  15.666   4.302  0.0092 -0.0933 -0.1628
27750W        W44598   3.563  17.466   4.960  0.1423  0.0995  0.1407
27751W        W44599   6.415   8.307  13.012 -0.0391 -0.0731  0.0836
27752W        W44600   4.066  13.714  16.296  0.1920  0.0191 -0.1108
27753W        W44601  17.381  13.164   0.900 -0.0382 -0.2789  0.3377
27754W        W44602  14.685  14.978   2.899 -0.0315 -0.1448 -0.2307
27755W        W44603  10.841   2.784   4.231 -0.2994 -0.1837 -0.1602
27756W        W44604  17.038   7.592  15.895  0.1947 -0.0514  0.2508
27757W        W44605  15.331   5.613   2.622  0.2876  0.0412 -0.2167
27758W        W44606  10.308   9.136  16.140  0.2395  0.1318  0.3672
27759W        W44607   9.753  14.179   1.831 -0.0617 -0.0276 -0.1496
27760W        W44608  10.534   8.910  12.150  0.0810  0.0222 -0.0129
27761W        W44609  16.294   4.267  12.297  0.2090 -0.1916 -0.0500
27762W        W44610   5.445   0.621   5.613  0.1652 -0.1333  0.0754
27763W        W44611  13.089   3.731   1.582  0.1171 -0.0371  0.0294
27764W        W44612   6.061  13.163  13.744 -0.0270  0.0777 -0.1263
27765W        W44613  10.862  16.262  12.668  0.2656 -0.0378  0.2129
27766W        W44614   0.726   0.937   5.332  0.1124  0.1194 -0.0855
27767W        W44615   5.982   9.410  11.618  0.2978  0.3171  0.0123
27768W        W44616  14.857  13.020  12.386  0.0073  0.2161  0.0933
27769W        W44617   2.936  16.163   5.021  0.1801  0.2385  0.0860
27770W        W44618  17.590  13.547  15.782 -0.1142  0.0312  0.1672
27771W        W44619   5.265   5.472   2.185 -0.0978 -0.0000  0.2607
27772W        W44620   5.170   7.523  13.010  0.2409  0.3216 -0.1085
27773W        W44621   8.339  10.825   0.804 -0.0067  0.2204 -0.1902
27774W        W44622  16.917  11.644   2.667 -0.2792 -0.0393  0.0863
27775W        W44623   4.901  13.188   4.304  0.0123 -0.0193  0.0174
27776W        W44624   8.150   9.155   2.902 -0.1827 -0.1163 -0.0599
27777W        W44625   5.504   3.886   1.871  0.1239 -0.1895 -0.1396
27778W        W44626   4.571  15.208  12.845  0.3739 -0.1346  0.0471
27779W        W44627  12.641  12.381  12.740 -0.0157 -0.0795  0.2096
27780W        W44628  13.795  13.445   2.213 -0.1561 -0.0556  0.4308
27781W        W44629  14.496   2.568   4.050  0.3040 -0.1257  0.0105
27782W        W44630   7.954  16.040  14.832  0.1540  0.0034 -0.1725
27783W        W44631   5.157  14.727  12.190 -0.2477 -0.0111  0.0586
27784W        W44632  17.493  14.835  15.665 -0.1737  0.1177 -0.3786
27785W        W44633  10.683   4.973   4.335 -0.2077  0.0287  0.0686
27786W        W44634   8.418  13.343   4.555  0.0586  0.1530 -0.0127
27787W        W44635   6.890   0.901  11.891 -0.1188 -0.1364  0.1760
27788W        W44636   4.879   5.470   3.840 -0.1489  0.2220 -0.0807
27789W        W44637   1.946   7.589  13.933  0.2297 -0.2093  0.2021
27790W        W44638  16.699  12.426   3.428 -0.0662 -0.2401 -0.3487
27791W        W44639   5.922  15.961   5.871  0.0775  0.0053 -0.1822
27792W        W44640  10.605   1.362   2.782 -0.1887  0.2251  0.0213
27793W        W44641   0.589   4.975  14.836  0.2488 -0.2209 -0.2354
27794W        W44642  14.245   4.405   1.790  0.2363  0.0478  0.0237
27795W        W44643  14.657   4.304  13.210 -0.3716 -0.1236 -0.0230
27796W        W44644  13.179   6.152   6.078 -0.1605  0.1977  0.2089
27797W        W44645   9.348   3.991  12.966 -0.1225 -0.0437  0.1822
27798W        W44646   2.713   2.953   2.111 -0.2516  0.0403  0.0961
27799W        W44647  13.778   1.942  16.281  0.2592 -0.2214 -0.1663
27800W        W44648   8.191   9.786   3.662  0.1012 -0.3298  0.0635
27801W        W44649   0.300  13.646   4.995  0.3135  0.0544  0.1473
27802W        W44650  11.078  12.458   3.940 -0.0001 -0.1580  0.1831
27803W        W44651  15.216   0.704   3.453 -0.1096 -0.4844 -0.2296
27804W        W44652  11.967   4.567   1.904 -0.2370 -0.0888  0.1182
27805W        W44653  10.692  13.826  13.295  0.1825  0.0280 -0.0586
27806W        W44654   4.560  15.123  13.783 -0.1324 -0.0830 -0.2642
27807W        W44655   3.103   2.949   2.506  0.1628 -0.0424 -0.1315
27808W        W44656  16.606   2.400  16.026 -0.0277 -0.0128  0.1318
27809W        W44657   0.787   6.947  15.745 -0.0552  0.0390 -0.3297
27810W        W44658  14.817   1.696  11.592  0.1159  0.0278  0.1846
27811W        W44659   2.672  11.490  15.669  0.0069 -0.0702 -0.1467
27812W        W44660  14.287   7.560   5.545 -0.1555  0.0049  0.0313
27813W        W44661  12.699   6.018  14.840 -0.1276 -0.3383  0.2340
27814W        W44662   9.397   4.159  11.360 -0.2011  0.2191  0.0580
27815W        W44663  17.016  10.721   1.794 -0.0373 -0.2609 -0.0931
27816W        W44664   5.709   7.683  14.324 -0.0896  0.3449 -0.0493
27817W        W44665  17.331   2.843  12.743 -0.2266 -0.1369  0.2499
27818W        W44666   1.249  11.681   2.348  0.1363 -0.1098 -0.0353
27819W        W44667   6.733   7.429  12.263  0.2675  0.1498 -0.0538
27820W        W44668   4.751  11.639   4.494  0.1839  0.1935 -0.0417
27821W        W44669  12.806  16.338  14.306  0.0496  0.1184  0.1421
27822W        W44670   4.903  16.674   3.326  0.0428 -0.0976 -0.0708
27823W        W44671   2.273  14.991  14.568 -0.0217  0.0866 -0.1172
27824W        W44672   8.735   4.001  12.079  0.2245  0.2773 -0.1423
27825W        W44673   1.670   3.269  13.509 -0.4207  0.0103  0.2205
27826W        W44674   6.831   0.995   2.039 -0.0654 -0.2721  0.1899
27827W        W44675   4.421  16.126   4.985  0.1364 -0.3053  0.0137
27828W        W44676   2.797   4.780  14.055 -0.0465 -0.2367  0.2941
27829W        W44677  13.288   5.019   1.780 -0.3747  0.0641 -0.2372
27830W        W44678   0.223   3.628   3.272  0.2081 -0.0412  0.0307
27831W        W44679   0.498   5.967   0.442  0.1481 -0.0295  0.1672
27832W        W44680   9.220   8.160  12.146  0.1600  0.3514 -0.0877
27833W        W44681   1.315  10.224   5.161 -0.2239  0.1658 -0.1146
27834W        W44682  12.838   9.046  14.284 -0.1467  0.2737  0.0514
27835W        W44683  16.371   8.997   1.393 -0.0803  0.1484  0.0223
27836W        W44684   1.040  10.585  15.909 -0.3084  0.1528 -0.2529
27837W        W44685   9.898   4.150   0.870  0.0066 -0.5357  0.0232
27838W        W44686  16.679   8.586   4.237  0.0494  0.1855  0.1740
27839W        W44687   2.238   1.857  13.394  0.1827 -0.0813  0.0247
27840W        W44688   3.496   3.232   2.415  0.0156 -0.2383  0.1572
27841W        W44689  13.892  11.437   3.690  0.2966 -0.1351 -0.1263
27842W        W44690   4.021  11.971  15.213 -0.0650 -0.3227  0.0955
27843W        W44691  11.145   5.464  11.621 -0.1370 -0.1631 -0.1194
27844W        W44692   0.210   6.327   2.492 -0.0107 -0.1099 -0.0148
27845W        W44693   8.572  17.300   0.589 -0.1318 -0.0171  0.2232
27846W        W44694  11.743   5.086  12.082  0.0742 -0.0665  0.0089
27847W        W44695  15.734   3.149  12.806 -0.0119 -0.1266 -0.3570
27848W        W44696  12.124   3.870   1.465  0.0987  0.1626 -0.0767
27849W        W44697   7.707   9.553  13.273 -0.1293 -0.0542  0.2451
27850W        W44698  10.611   1.590  13.241  0.3846  0.1606 -0.1870
27851W        W44699  13.727   9.936   1.972 -0.0650  0.1640  0.4439
27852W        W44700   4.328   8.089   4.749 -0.3411  0.0834 -0.2750
27853W        W44701   4.440  15.225   3.673 -0.1311  0.0147  0.0942
27854W        W44702  10.460  17.104  11.735  0.0145 -0.0143  0.1602
27855W        W44703   9.264   6.872   2.610  0.1199 -0.2021 -0.1592
27856W        W44704  16.859  17.346  11.746 -0.1672 -0.0528  0.1424
27857W        W44705   5.406  14.144  12.238  0.1289  0.2524 -0.3789
27858W        W44706  14.980  16.804  14.049 -0.0878 -0.1469  0.1397
27859W        W44707  15.677   1.774   2.698 -0.1701  0.1930  0.1205
27860W        W44708  11.475   1.490  13.489  0.0218 -0.0277  0.0290
27861W        W44709   8.681  11.449   4.211 -0.4781  0.0963  0.0112
27862W        W44710   3.989   2.216  11.433  0.3217  0.2642 -0.1786
27863W        W44711   4.316  11.547  12.389 -0.3986 -0.0008  0.2043
27864W        W44712   2.100  16.621   5.542 -0.1754 -0.1782  0.0437
27865W        W44713   3.587   6.063   5.044  0.0468 -0.0354  0.0549
27866W        W44714   6.105  11.235   2.822 -0.0944  0.0197  0.0515
27867W        W44715  10.765   9.333  12.843 -0.5318 -0.0122  0.2599
27868W        W44716   3.639  16.881   2.247  0.3482  0.1487 -0.0925
27869W        W44717  11.056  11.605  13.809  0.0881 -0.0126  0.1035
27870W        W44718  15.782   7.979  15.252  0.1395  0.2619  0.0930
27871W        W44719   6.648   5.069  10.461  0.1165 -0.1892  0.4991
27872W        W44720   9.984  12.334  14.834 -0.0039  0.2371 -0.2214
27873W        W44721  10.837  11.173  14.121 -0.1351  0.0544  0.1645
27874W        W44722  17.369  11.793  16.194 -0.0171 -0.1171  0.2246
27875W        W44723   1.169  16.000   3.046  0.2690  0.0067 -0.0165
27876W        W44724  11.819  17.537   4.971 -0.1190  0.0027  0.1913
27877W        W44725  14.472   4.632  15.720 -0.0900  0.2381 -0.0286
27878W        W44726  13.126  16.015   1.122  0.0858  0.0126  0.0862
27879W        W44727  17.255   2.414   1.928 -0.0629  0.2414 -0.2434
27880W        W44728  12.925  14.697   3.872 -0.0181  0.0835 -0.0256
27881W        W44729   2.964  17.357  11.723  0.0024 -0.0110  0.0712
27882W        W44730   6.256   4.221   2.381  0.0214 -0.3770  0.1852
27883W        W44731   4.364   7.872   2.304 -0.0690 -0.2176 -0.0099
27884W        W44732   2.970   4.257   1.595 -0.1546  0.0416 -0.2442
27885W        W44733   0.179  13.332   0.885 -0.1753  0.0039  0.0640
27886W        W44734   3.414   2.822   2.873 -0.0827  0.1357  0.0839
27887W        W44735   8.277   4.438  16.038  0.3248 -0.0256  0.2358
27888W        W44736  13.779   1.470  11.765 -0.0859 -0.0486 -0.2570
27889W        W44737  14.745   3.807   1.588  0.1591 -0.1407  0.3093
27890W        W44738   0.816  17.114  15.224  0.0576 -0.1868 -0.0554
27891W        W44739  11.610  11.969   0.805 -0.0596  0.2664 -0.3019
27892W        W44740  12.268  10.751   0.631 -0.0530 -0.1180  0.0403
27893W        W44741  13.896  10.658   3.569 -0.0626 -0.0817 -0.0731
27894W        W44742   0.219  16.912   4.216 -0.2272 -0.1456  0.0027
27895W        W44743   8.451   9.988  11.004 -0.1644 -0.2049  0.1541
27896W        W44744  10.754   3.269  15.100 -0.1291 -0.0233  0.1180
27897W        W44745   0.428  10.592  12.424  0.1516 -0.0783 -0.2357
27898W        W44746  11.496  12.255   3.706  0.0286 -0.1211  0.0612
27899W        W44747  16.750  13.775  14.147 -0.1066 -0.0324  0.1057
27900W        W44748   2.201  10.532  13.873  0.1508 -0.0170 -0.2181
27901W        W44749  13.833  14.372  10.648 -0.0000 -0.2097  0.0268
27902W        W44750  13.578  16.859  13.016  0.5425 -0.0440  0.1494
27903W        W44751  12.612  12.317  13.679 -0.2157 -0.2872 -0.0608
27904W        W44752  15.507   7.599  16.118  0.1262 -0.0875 -0.1431
27905W        W44753  11.587  16.580  13.319 -0.0406 -0.2175 -0.2662
27906W        W44754  17.644  14.363   0.199  0.0500 -0.1211 -0.0171
27907W        W44755   8.273   9.034  16.220  0.0019  0.1358 -0.1037
27908W        W44756   5.892   6.736   2.663  0.2118 -0.1482 -0.0162
27909W        W44757   8.958  12.808   5.684 -0.1396  0.0871  0.0296
27910W        W44758  10.480  15.355  15.344 -0.0617  0.1394  0.1735
27911W        W44759  14.829   2.358  12.702  0.1572 -0.0656  0.1440
27912W        W44760  11.451   1.873   1.585  0.2345 -0.0361 -0.0978
27913W        W44761   8.958  11.777  12.276  0.0749  0.3083  0.1223
27914W        W44762   3.798   4.798  11.004 -0.0323 -0.2095 -0.0455
27915W        W44763  13.310   5.434   1.537 -0.1817 -0.1695 -0.2041
27916W        W44764  11.877   5.543  11.596  0.1757  0.2082  0.2348
27917W        W44765   3.689   0.334  14.196 -0.0158  0.2982 -0.1849
27918W        W44766   3.523  12.965   1.525 -0.1892  0.0071 -0.2237
27919W        W44767   8.599   2.111  16.596  0.1926  0.0698  0.1661
27920W        W44768   1.947  11.740   1.580 -0.2179  0.1043  0.2251
27921W        W44769   5.404  17.471   0.207 -0.1540 -0.0834  0.0108
27922W        W44770   1.921   7.479  11.402 -0.1513 -0.0764  0.0492
27923W        W44771  15.953  13.456   1.705  0.0773 -0.1297  0.4448
27924W        W44772   9.239   9.829   4.897  0.0738  0.1100 -0.0592
27925W        W44773   7.280   3.768  14.886 -0.1560  0.1472 -0.1633
27926W        W44774  11.843   2.675   2.111 -0.0462 -0.3482  0.0417
27927W        W44775   0.422  11.074   5.619 -0.0497 -0.1631 -0.4084
27928W        W44776   8.814   1.129   4.096 -0.1703  0.2154  0.0974
27929W        W44777   2.223   3.431  13.887 -0.0180  0.0724  0.0632
27930W        W44778   4.080   1.943  14.944 -0.4251  0.0423  0.3538
27931W        W44779   2.468   0.495   2.641 -0.0305 -0.2617 -0.2523
27932W        W44780   6.512   4.936   2.793 -0.0604  0.0652  0.0163
27933W        W44781   9.292   8.811  13.440 -0.3592 -0.0959 -0.0108
27934W        W44782  14.065   0.255   2.940 -0.0404  0.2452  0.0300
27935W        W44783   6.840   7.924  12.278  0.0783  0.0404  0.0297
27936W        W44784  14.000   1.575  13.153  0.1338  0.0115 -0.1513
27937W        W44785   9.710   9.764   5.047  0.4115 -0.0558 -0.1328
27938W        W44786  12.463  12.473  15.278  0.2932  0.1583  0.1628
27939W        W44787  10.009  15.969   3.586 -0.0264 -0.1196 -0.0972
27940W        W44788   3.329  10.941  15.622  0.0191  0.2392  0.0838
27941W        W44789   7.784  15.228  11.882  0.0188 -0.0112  0.2108
27942W        W44790  10.446   6.999  12.446 -0.1939  0.1387 -0.1077
27943W        W44791  17.442   5.106   2.108  0.0568  0.3326 -0.0405
27944W        W44792   5.353   3.350  14.753  0.2730 -0.0934  0.1926
27945W        W44793  11.472  10.189   1.751 -0.2800 -0.0613 -0.1833
27946W        W44794   7.746   0.798  14.180 -0.0568  0.0123  0.2893
27947W        W44795   1.176  14.449   0.214  0.0353 -0.0664 -0.1898
27948W        W44796  13.856   6.504   0.451  0.2996  0.0691  0.2508
27949W        W44797   9.954  12.624  12.410  0.1167 -0.0025 -0.0200
27950W        W44798  14.937   1.748   0.137 -0.4038  0.0152  0.0032
27951W        W44799  16.587  16.292   1.099 -0.1758 -0.1127  0.0705
27952W        W44800  12.702   3.866  14.628  0.0086 -0.3990 -0.1373
27953W        W44801  14.763  14.188  12.853 -0.0685  0.2293 -0.0686
27954W        W44802   9.287  16.342  15.344  0.0360 -0.1820  0.0729
27955W        W44803  16.522   8.261  13.129 -0.1766  0.0837  0.0558
27956W        W44804  14.146   3.771   0.785  0.0712  0.1943 -0.0857
27957W        W44805  10.101  15.504   0.286 -0.1281  0.3373 -0.1300
27958W        W44806   5.687  16.262   3.008 -0.0303 -0.0153  0.1686
27959W        W44807   2.564   1.474   4.372 -0.0615  0.2051 -0.2406
27960W        W44808   3.328   7.107   5.048 -0.0370  0.3012  0.1892
27961W        W44809   7.184   1.759  14.398 -0.3547 -0.4256 -0.3514
27962W        W44810  13.878   1.797  14.673  0.1162  0.0898 -0.0854
27963W        W44811   6.117   1.246  14.886 -0.0581  0.0049  0.1800
27964W        W44812   7.800   1.022   3.869  0.2300 -0.0362  0.1971
27965W        W44813   1.440  14.339  14.590  0.0561 -0.1680 -0.1441
27966W        W44814   9.559  12.301   1.869 -0.0804 -0.0277  0.1100
27967W        W44815  12.134  14.458  13.620  0.1075  0.2065 -0.0265
27968W        W44816   9.140  16.216   0.219  0.2196 -0.1162  0.0452
27969W        W44817  12.553  17.036   4.925  0.2226 -0.0048  0.0222
27970W        W44818   7.867  11.201   5.413  0.0600 -0.1182  0.1204
27971W        W44819   8.540  10.601  14.013  0.1155  0.2528  0.0394
27972W        W44820  17.417  14.520  12.336 -0.1164 -0.1816  0.1069
27973W        W44821  10.009   3.865   3.002  0.2909 -0.1217  0.0758
27974W        W44822  10.287  10.534  15.830 -0.0417  0.5092 -0.0023
27975W        W44823  14.547   2.454  14.236  0.1824  0.0229  0.1128
27976W        W44824   7.748   9.029  13.295  0.2587  0.1516  0.1897
27977W        W44825  13.829   9.190  13.397  0.1501 -0.0861  0.0780
27978W        W44826   4.811  13.760  15.045 -0.0916 -0.0191  0.1877
27979W        W44827   9.719  10.515   1.173  0.1039 -0.1460  0.0183
27980W        W44828   0.547  10.570  12.944  0.1538 -0.6286 -0.1440
27981W        W44829  10.296   8.569   4.035 -0.0917 -0.0896  0.0431
27982W        W44830  12.340  11.803   4.478 -0.0563  0.0678  0.3878
27983W        W44831   0.266  12.544   3.016 -0.2712  0.1936  0.0826
27984W        W44832   7.136  13.698   0.038 -0.0749 -0.3611  0.1736
27985W        W44833   1.968   4.837  14.331  0.3003 -0.0224  0.0128
27986W        W44834  11.833  16.243  12.894 -0.0022  0.2172 -0.2001
27987W        W44835   7.140   3.786   2.755 -0.0956 -0.3579  0.3723
27988W        W44836  11.097  12.081  13.351 -0.3749  0.1892 -0.0310
27989W        W44837   9.350   8.453  14.450  0.0778  0.1105  0.3531
27990W        W44838   3.364   9.603  14.308  0.0850  0.0110 -0.2172
27991W        W44839   2.168   6.011  14.250 -0.0499  0.1243  0.0673
27992W        W44840   8.927   3.936   1.399  0.1259  0.0667 -0.1920
27993W        W44841   8.047  14.083   0.487 -0.1106  0.1394  0.1313
27994W        W44842   7.592   5.355   4.750 -0.0312  0.0191 -0.1410
27995W        W44843  16.855   5.913  14.410 -0.0050 -0.1001  0.1503
27996W        W44844  16.966   5.490  12.628  0.2686 -0.0589 -0.1975
27997W        W44845   4.791  14.536   4.576  0.1918  0.1599 -0.0887
27998W        W44846  17.434   6.028  15.500 -0.2473 -0.1195 -0.0018
27999W        W44847  16.987   9.248  14.994  0.1335 -0.0375 -0.2331
28000W        W44848  14.880  14.590   5.198  0.0846 -0.0629  0.1212
28001W        W44849   7.418   6.604   5.388  0.1636  0.0033  0.0525
28002W        W44850   8.983  15.214  12.192 -0.3420 -0.1841 -0.0659
28003W        W44851  16.892   1.768  11.892  0.0296  0.3819  0.2076
28004W        W44852   8.682   0.587  12.950 -0.1550  0.0624  0.0378
28005W        W44853   7.011  14.269  13.377  0.1421 -0.2817 -0.0025
28006W        W44854   4.030  16.110   3.485 -0.1800 -0.1403 -0.2565
28007W        W44855   1.203   7.918   3.100  0.0098  0.3864  0.1801
28008W        W44856   5.327   8.543   1.177 -0.0399  0.0570  0.0653
28009W        W44857   8.329  13.079   2.916 -0.0789 -0.2075 -0.2469
28010W        W44858  14.198  12.865   2.871 -0.2307  0.3185  0.0447
28011W        W44859  10.824  13.976   4.914  0.2090  0.0231 -0.0314
28012W        W44860   8.249  13.578   3.112 -0.1506 -0.3652 -0.2136
28013W        W44861  11.544  12.742   2.476 -0.0503  0.0667  0.0044
28014W        W44862   7.135  15.404   6.031 -0.1774  0.1282 -0.2116
28015W        W44863   4.816   7.916   5.115 -0.0364  0.0464 -0.1543
28016W        W44864  13.302  12.016   3.625 -0.2134 -0.1061 -0.2332
28017W        W44865   9.830   7.567  15.356 -0.0887 -0.1383 -0.5764
28018W        W44866   5.344  16.902   3.542 -0.0836  0.0316 -0.2234
28019W        W44867  15.848   6.402  15.370  0.1210 -0.2492 -0.0525
28020W        W44868   9.056   6.333   2.430 -0.0386 -0.0931 -0.1799
28021W        W44869   9.094   5.757  16.576 -0.0672 -0.1622 -0.3167
28022W        W44870  15.097   1.648   4.956  0.0772  0.1935  0.0977
28023W        W44871  14.194   5.426   0.934  0.0355 -0.1009 -0.0667
28024W        W44872   3.051  16.640   4.330  0.2163  0.1174  0.1415
28025W        W44873  12.542   9.110   0.171 -0.0681  0.1117 -0.1656
28026W        W44874   4.578   3.767  12.756  0.1947 -0.1296  0.0182
28027W        W44875   7.069   8.767   0.274  0.1298  0.1889  0.0474
28028W        W44876   9.242   6.345  11.431  0.0352 -0.2952  0.2516
28029W        W44877   8.761  15.002   4.900  0.1822  0.0032  0.1135
28030W        W44878   6.669  15.794  14.380  0.2078  0.1964  0.0369
28031W        W44879   4.375   1.743  15.286  0.2108 -0.4301  0.0070
28032W        W44880  13.416   2.744  15.014 -0.0014  0.0246  0.0122
28033W        W44881  16.206   8.879  13.215  0.0776 -0.1722 -0.1002
28034W        W44882  16.822  12.005   2.928 -0.4254  0.1522 -0.1436
28035W        W44883  13.620   7.338  15.349  0.0407 -0.1112  0.2994
28036W        W44884   8.358   7.730  14.403  0.0531 -0.3670 -0.1870
28037W        W44885  10.223  12.604   1.419 -0.0268  0.1498 -0.0412
28038W        W44886   5.430   3.201  16.051 -0.0643 -0.0108 -0.1832
28039W        W44887   1.094  11.133   1.439  0.1143 -0.3509 -0.1071
28040W        W44888   5.319   0.118  12.703  0.0598  0.0279  0.0378
28041W        W44889  15.780  10.917   2.587 -0.3611  0.0175  0.2570
28042W        W44890   4.119   6.773  13.755 -0.0709 -0.3004 -0.2647
28043W        W44891   1.576  15.062  13.011  0.2645  0.4800 -0.1199
28044W        W44892  17.636  14.028   0.576  0.4123 -0.0114 -0.0615
28045W        W44893   9.820   3.976  13.954 -0.1283 -0.0115 -0.1037
28046W        W44894  12.398  14.191   0.172  0.0807  0.2212  0.0040
28047W        W44895  16.242   9.519  13.180  0.2513  0.1499 -0.0305
28048W        W44896   8.522   4.205   0.147 -0.2293 -0.0661  0.0207
28049W        W44897  17.227   0.186  14.040 -0.1576 -0.1183 -0.2666
28050W        W44898   4.452   1.068  11.520  0.4007  0.2403  0.1114
28051W        W44899   1.004  10.847   4.757 -0.2128  0.3466 -0.1157
28052W        W44900   9.556   8.605  15.552  0.0295  0.2384 -0.0367
28053W        W44901  11.538  15.627   1.383 -0.1100 -0.0164 -0.0970
28054W        W44902   6.519   9.598   3.413  0.0159  0.0122  0.0262
28055W        W44903   4.707  15.259   2.076 -0.0811 -0.1335 -0.0191
28056W        W44904   7.304  14.335  14.460  0.2473  0.1870  0.0554
28057W        W44905   3.549  14.738  11.400  0.3386 -0.1082 -0.2259
28058W        W44906   1.830  16.183  14.324 -0.0094  0.0178 -0.2563
28059W        W44907  16.968   2.164  14.576  0.0666  0.0290  0.0675
28060W        W44908  14.093   9.113  13.805 -0.1467  0.3302  0.0449
28061W        W44909  12.537  14.591  12.793 -0.2102 -0.0820 -0.0088
28062W        W44910  15.675   3.399   2.817  0.1034  0.2433 -0.0478
28063W        W44911   4.151  14.181   2.901  0.0213  0.0711  0.2931
28064W        W44912   8.433  15.995   4.011 -0.0436 -0.0259 -0.0237
28065W        W44913  11.602   0.780  15.858  0.1191 -0.1296 -0.2692
28066W        W44914   1.891   7.966  14.329 -0.1092  0.2801 -0.3818
28067W        W44915   8.107  15.445  12.332 -0.2310  0.1380  0.3042
28068W        W44916   6.927  16.003   4.415  0.3160  0.1690 -0.1278
28069W        W44917   1.149  10.903  14.856 -0.0625  0.0003 -0.1239
28070W        W44918   2.048  12.614   0.229  0.2102  0.1596  0.0665
28071W        W44919  10.626  17.622  16.506 -0.1100  0.2063  0.0820
28072W        W44920   1.736   9.709   1.389  0.0089 -0.3031  0.0554
28073W        W44921  11.452   2.055  12.395  0.0633 -0.1362 -0.1038
28074W        W44922   7.807   3.198   5.814  0.1877 -0.1203 -0.2094
28075W        W44923  15.565  14.972  14.675 -0.0631  0.1202  0.0449
28076W        W44924   0.768   8.884   2.833 -0.3139 -0.1651  0.0210
28077W        W44925   0.832  11.693  14.548  0.1237  0.1015 -0.1235
28078W        W44926   9.021  11.411   2.047 -0.2101 -0.0887 -0.1899
28079W        W44927  13.930   6.034   0.171 -0.0639 -0.0740  0.0965
28080W        W44928   2.720  14.156  15.104 -0.1447 -0.3055 -0.1370
28081W        W44929  15.847  12.702  12.968  0.0842  0.1416 -0.3371
28082W        W44930   8.020   4.213  15.256  0.0818  0.2768  0.0676
28083W        W44931  12.301  13.171   3.065 -0.2304  0.2070 -0.1341
28084W        W44932   0.232  12.970  14.613  0.0782 -0.2321  0.0002
28085W        W44933  12.221   2.664   0.041  0.1688  0.1844 -0.0215
28086W        W44934  14.149  17.369  13.605  0.0356 -0.1257 -0.3166
28087W        W44935   8.937  13.432  15.566  0.0316  0.0467  0.2408
28088W        W44936   5.635   1.031  13.342 -0.0225  0.0028  0.0127
28089W        W44937  13.341   6.285   4.650 -0.0909  0.1898  0.1899
28090W        W44938   5.437   7.604  11.808 -0.2325  0.0981 -0.0399
28091W        W44939   0.929   9.369   2.696 -0.0772 -0.0846  0.0075
28092W        W44940  14.957  16.599   4.028 -0.2554 -0.0642  0.0042
28093W        W44941  16.735  10.153   5.048  0.0422  0.2438 -0.2000
28094W        W44942   4.565  15.595  12.521 -0.1429  0.0832  0.4011
28095W        W44943  11.065  10.101   0.958  0.0492  0.3547  0.3922
28096W        W44944  10.068   1.795  15.481  0.0506  0.1572  0.1680
28097W        W44945   0.036  14.063   2.381 -0.0912  0.1448  0.1870
28098W        W44946   3.010   0.315  14.972  0.1135 -0.0976 -0.0215
28099W        W44947  14.718   1.078  14.688  0.2424  0.2156 -0.3426
28100W        W44948   2.259  13.279   4.836 -0.0614 -0.2018 -0.1792
28101W        W44949  12.123  11.866  14.544  0.1357 -0.1233  0.0624
28102W        W44950   4.539  17.329   1.454 -0.0399 -0.1607  0.2222
28103W        W44951  11.126   9.557  12.578  0.3079 -0.0659 -0.0330
28104W        W44952   5.830   8.294   3.422  0.3242 -0.0988 -0.1442
28105W        W44953  13.452   6.745  11.665  0.2496 -0.1060  0.1096
28106W        W44954  16.969  16.586   1.842 -0.2398 -0.0466  0.0046
28107W        W44955   5.114   7.656   1.708  0.2796  0.2044 -0.0997
28108W        W44956  15.412   4.766  15.298  0.2003 -0.3272  0.2986
28109W        W44957  10.248  14.103  13.456  0.0215 -0.1827 -0.1217
28110W        W44958   4.124   4.333   2.956 -0.0133 -0.1125  0.1885
28111W        W44959   6.051   5.758  16.147  0.2647 -0.3299 -0.2560
28112W        W44960   6.686  10.859   3.472 -0.0372  0.0579  0.2162
28113W        W44961   2.869   5.621   1.307  0.1376  0.1140 -0.1117
28114W        W44962   1.642  11.396  15.089  0.0303  0.0558 -0.3322
28115W        W44963   9.779   6.354   4.664 -0.0747 -0.2739 -0.1906
28116W        W44964   1.316   2.107   4.266  0.2191 -0.0346 -0.0886
28117W        W44965   0.883   2.884  13.194 -0.0592  0.0476 -0.0234
28118W        W44966  10.268   3.422  13.645  0.0384  0.1054  0.0294
28119W        W44967  13.407  13.419   2.593  0.0849 -0.0335  0.0244
28120W        W44968  15.903  12.114   3.841 -0.0346 -0.0104  0.1856
28121W        W44969  11.429   6.666   2.990  0.1931 -0.0640  0.0216
28122W        W44970  15.434   2.466   1.815 -0.2077 -0.0437 -0.1202
28123W        W44971   7.162  14.782  11.465  0.4200 -0.0198  0.0508
28124W        W44972  17.311  11.726  14.229  0.2330  0.0482 -0.0044
28125W        W44973   7.402   7.936  15.965 -0.1880  0.1651  0.3047
28126W        W44974   8.098  12.728   1.903 -0.0800  0.4180  0.2764
28127W        W44975  12.963   7.945  14.278 -0.0486  0.0673 -0.0060
28128W        W44976  12.988  14.582   0.910  0.0120 -0.0727 -0.1095
28129W        W44977   3.994   9.532   5.661 -0.0932 -0.2210  0.2019
28130W        W44978   4.970  13.685   3.024  0.0217 -0.0758  0.4023
28131W        W44979  13.294   2.284  15.149  0.1381  0.0561  0.0293
28132W        W44980   5.240  17.165   2.647 -0.3888 -0.0428  0.0377
28133W        W44981  15.571   1.795  13.190  0.0228  0.1396 -0.2834
28134W        W44982  16.462   6.421  12.922 -0.1651  0.0267  0.0494
28135W        W44983   9.883   8.196  11.725  0.1120 -0.0528  0.3921
28136W        W44984   5.080   5.109  15.203 -0.0895 -0.0262  0.3964
28137W        W44985  13.115   5.694   3.537 -0.1502 -0.0293 -0.0032
28138W        W44986   8.914   7.630   3.476  0.2263 -0.3053  0.1356
28139W        W44987  15.155   2.100  10.559  0.1637  0.0353  0.0313
28140W        W44988  15.094   4.631   3.995 -0.1496 -0.3695 -0.0334
28141W        W44989  15.982  15.815  15.020 -0.1799  0.2093 -0.0954
28142W        W44990   6.987  13.963  14.717  0.0467  0.1177  0.0659
28143W        W44991  10.990  15.225   0.837 -0.0165  0.1946 -0.0824
28144W        W44992  11.245   8.225  15.853 -0.2718 -0.1114 -0.2717
28145W        W44993   7.754   8.324  12.505 -0.0332 -0.2144  0.1137
28146W        W44994  13.916   8.579   1.724  0.1546  0.0688 -0.2273
28147W        W44995   7.828   9.301   0.138  0.2125 -0.1444  0.0657
28148W        W44996   4.971  11.148  14.995 -0.0407  0.1557 -0.0082
28149W        W44997   3.126  11.682   2.925  0.2903  0.1418 -0.3119
28150W        W44998  17.009   9.776  15.630 -0.1414  0.0649  0.0329
28151W        W44999  10.943   6.135   0.745 -0.0108  0.1756 -0.3356
28152W        W45000   2.285  12.823   2.768 -0.0465 -0.0237 -0.1416
28153W        W45001   7.265   9.859  11.703 -0.5518 -0.2756  0.0831
28154W        W45002  15.584  13.134   1.796 -0.0635  0.1275 -0.0252
28155W        W45003   0.866  14.753   2.353  0.3106 -0.0418 -0.2718
28156W        W45004   6.293   6.391   0.387  0.0989 -0.0105  0.2592
28157W        W45005  14.991   4.625  14.412  0.0597 -0.2393  0.0499
28158W        W45006  11.440   6.100   3.575 -0.3029 -0.0699 -0.1596
28159W        W45007   8.440   4.401  12.025 -0.2062 -0.1193 -0.0556
28160W        W45008  10.062  16.933   4.578  0.1041 -0.1027 -0.1633
28161W        W45009   1.376  15.492   2.334  0.2950 -0.0227  0.0757
28162W        W45010   5.986  14.344   4.414 -0.2562  0.0952  0.2210
28163W        W45011   9.920  15.279   5.466 -0.2402  0.2265  0.1130
28164W        W45012   2.247  11.045   0.500 -0.0442 -0.0267 -0.0058
28165W        W45013   4.024  13.573   4.698 -0.0277  0.3293  0.1274
28166W        W45014   5.187  16.681  16.056  0.0558 -0.0717  0.1125
28167W        W45015  10.874  13.624  16.335 -0.0311 -0.0578  0.0254
28168W        W45016   4.549   8.644  13.165 -0.0809 -0.2663 -0.0920
28169W        W45017  16.775   4.480  12.250 -0.2270  0.0778  0.3762
28170W        W45018   9.489   9.173   2.145  0.2317  0.1832  0.1484
28171W        W45019   0.684  17.240   2.161 -0.0318 -0.1519 -0.1223
28172W        W45020   4.186   7.268   4.751  0.3903  0.2946  0.0872
28173W        W45021   5.964  16.113  12.855  0.1439 -0.1399 -0.0459
28174W        W45022   4.132  17.169   1.723 -0.1028 -0.1432 -0.2627
28175W        W45023   6.980   9.685   3.559  0.1244 -0.1011 -0.2282
28176W        W45024  12.157  16.819  11.019 -0.3568 -0.1121 -0.0172
28177W        W45025   1.737   2.755   2.273  0.1408 -0.0610  0.1083
28178W        W45026  11.773   0.581  13.908  0.1570  0.1081 -0.1724
28179W        W45027   0.181   9.753  14.641 -0.1007 -0.1644  0.0239
28180W        W45028  14.020   5.369  14.855 -0.1011 -0.0194 -0.1839
28181W        W45029   2.362   9.184   2.588  0.0040  0.1181 -0.0676
28182W        W45030   6.716   8.790   1.311 -0.0212  0.1464  0.1579
28183W        W45031  16.043   7.932  16.154  0.1339  0.0794 -0.1605
28184W        W45032   4.930   7.521  14.827  0.0579  0.1516 -0.2925
28185W        W45033  13.236   8.812  12.518 -0.2221  0.1088  0.1927
28186W        W45034  16.944   7.919   5.423  0.0603 -0.0956  0.3073
28187W        W45035   2.175  12.890   4.526  0.0096  0.2085 -0.0183
28188W        W45036   6.682   9.038   4.199 -0.1166  0.2145 -0.1084
28189W        W45037  10.831   6.377  12.926  0.0055 -0.1928  0.0066
28190W        W45038  17.161   0.323   5.273 -0.1339 -0.0159 -0.1981
28191W        W45039   4.710   9.275  14.331 -0.0331 -0.0008 -0.0221
28192W        W45040   7.152   8.389  15.850 -0.2524  0.0122 -0.1668
28193W        W45041  13.661  10.218  12.571 -0.1789  0.1897 -0.1794
28194W        W45042  14.886  13.600  11.821  0.1043  0.2394  0.2226
28195W        W45043  16.856   5.359   3.355  0.4319 -0.0743  0.0543
28196W        W45044  12.051  12.569  15.483 -0.1721  0.0803 -0.0595
28197W        W45045   2.147  12.446  12.022  0.0661  0.0332 -0.3370
28198W        W45046  16.236   7.366   0.192 -0.0278  0.1167  0.1322
28199W        W45047  15.408  16.433  11.816  0.0453 -0.0786  0.1568
28200W        W45048   1.001   0.761  13.772  0.1064  0.0914 -0.0539
28201W        W45049  14.101  15.978   0.810 -0.1445 -0.2124 -0.3112
28202W        W45050   7.598  15.568   1.678 -0.1684  0.1742 -0.1842
28203W        W45051   5.868  11.122  11.414 -0.0869 -0.2484 -0.0937
28204W        W45052   0.259   1.427  13.881  0.1067  0.0427  0.1838
28205W        W45053   6.818   4.631  11.814 -0.2507  0.0026 -0.1713
28206W        W45054  14.054   4.603   4.373 -0.0574 -0.1076  0.1371
28207W        W45055   9.249   4.703  12.240  0.2510 -0.1386  0.4354
28208W        W45056  10.324   3.906   2.066 -0.1193 -0.2073 -0.0785
28209W        W45057   6.811  16.471  15.032  0.1780 -0.3325 -0.4212
28210W        W45058  14.000  11.685  16.413 -0.2088 -0.0859  0.0645
28211W        W45059   6.917  15.270   6.485 -0.1855  0.0244  0.3180
28212W        W45060   0.236  15.084   0.899 -0.3476  0.0646  0.1036
28213W        W45061   4.366   2.926   2.307  0.3069 -0.1966  0.0716
28214W        W45062  13.171   4.509   1.498  0.0571  0.1266  0.0897
28215W        W45063  15.171   2.712  14.912  0.3521 -0.0494  0.2734
28216W        W45064  12.038   0.687   3.147  0.2137 -0.3378 -0.0278
28217W        W45065   1.506  10.978   1.892 -0.1319  0.0094  0.2218
28218W        W45066   9.673  15.543  16.633  0.2658  0.0404  0.0181
28219W        W45067   4.782   1.966  15.599 -0.1796 -0.1876  0.0329
28220W        W45068   1.366   1.014   2.627 -0.0191 -0.0432 -0.1531
28221W        W45069   9.438  12.691  15.504  0.3436  0.0960  0.2446
28222W        W45070   9.915   1.201   0.638 -0.0333  0.2870  0.3506
28223W        W45071   3.817  10.213   0.202 -0.1252  0.1232 -0.1945
28224W        W45072  11.102  11.831   5.559  0.2071  0.0596 -0.2120
28225W        W45073   2.469   6.265  14.639  0.0647 -0.1658  0.0676
28226W        W45074   9.806   3.701  16.466  0.0497 -0.2237 -0.2278
28227W        W45075   2.743  15.608   1.971 -0.1430 -0.1975 -0.0450
28228W        W45076   4.948   2.143   3.269  0.1022 -0.1443 -0.1726
28229W        W45077  15.215   5.301   3.078 -0.0709 -0.4000 -0.0799
28230W        W45078   2.856  16.497  16.104 -0.2928  0.0425 -0.0837
28231W        W45079   9.943  11.841   4.666 -0.0999 -0.0932  0.1714
28232W        W45080   8.095   2.814  14.717 -0.1148 -0.0756  0.0764
28233W        W45081   5.830   5.463  12.066 -0.1523 -0.1463  0.4013
28234W        W45082  15.152   3.628  14.593 -0.0566  0.2622 -0.1472
28235W        W45083   5.468   7.670   4.206  0.1347 -0.4053  0.0087
28236W        W45084  10.393   1.363  15.655  0.0888  0.0625  0.1376
28237W        W45085  10.707   2.422   3.915  0.2943 -0.1248 -0.0233
28238W        W45086  14.251  15.866   2.814  0.0497 -0.4553  0.0370
28239W        W45087  15.163   8.980   4.042 -0.0350  0.0723 -0.0740
28240W        W45088   7.905   2.621  16.250  0.2645  0.1197  0.1356
28241W        W45089   5.386  17.661   4.644  0.0346  0.0417  0.0717
28242W        W45090   3.791  12.915   3.287 -0.0077  0.0636  0.3090
28243W        W45091   5.132   3.243   5.523  0.3056  0.1351  0.1996
28244W        W45092   7.841   8.648   6.061  0.0701 -0.0094  0.0767
28245W        W45093   9.782   3.330   2.948  0.1377 -0.1150  0.3669
28246W        W45094  10.628  17.639   0.328 -0.1030  0.0763  0.0423
28247W        W45095   5.264  13.785  16.378  0.1551  0.0065  0.1300
28248W        W45096   4.701  15.483  14.122 -0.3323  0.3500 -0.0050
28249W        W45097   0.023   9.733  13.365 -0.0205 -0.0294  0.0495
28250W        W45098   8.401  12.505   1.434 -0.1086 -0.1960 -0.0484
28251W        W45099   5.445  10.698   1.985 -0.0473  0.2860 -0.1470
28252W        W45100  14.391  14.107   4.475  0.0699 -0.0567 -0.0946
28253W        W45101   9.666  13.680  11.347  0.1262 -0.1672 -0.0504
28254W        W45102   7.661   0.569   0.438 -0.2822  0.1759 -0.1145
28255W        W45103   7.372  15.995   2.941  0.3059  0.0250 -0.0433
28256W        W45104   4.111   2.168   6.166 -0.0493 -0.1125 -0.1487
28257W        W45105   6.728   6.932   3.067  0.3109 -0.3500 -0.3050
28258W        W45106   0.113  16.701   2.985 -0.0011  0.0216 -0.1025
28259W        W45107   5.087   2.993  12.790  0.0243 -0.1752  0.4477
28260W        W45108  14.942  10.172   0.169 -0.2594 -0.1908 -0.0708
28261W        W45109   6.071   9.717  13.336  0.0262 -0.0490  0.1383
28262W        W45110   5.502  16.420  13.841  0.1034  0.0415 -0.0488
28263W        W45111  16.984  15.971  14.775  0.1189  0.3183 -0.2537
28264W        W45112  16.037  17.396   5.422 -0.2058 -0.1362 -0.0256
28265W        W45113   1.241  15.242  12.130 -0.0881 -0.2177  0.0033
28266W        W45114  10.595  14.132   1.479 -0.0664  0.0253  0.3417
28267W        W45115  15.738  11.262   3.105 -0.2671 -0.0586 -0.1307
28268W        W45116   4.247   1.534  14.185 -0.2683 -0.1485 -0.0272
28269W        W45117  11.118   5.952  13.788  0.1079  0.1084 -0.2213
28270W        W45118   9.061  13.473   5.036  0.1360  0.1088 -0.2557
28271W        W45119   6.608   3.204   4.324 -0.2306 -0.0815  0.0713
28272W        W45120   0.759  11.785  12.513  0.1519  0.0260  0.3049
28273W        W45121  14.655   2.771   1.576  0.1309 -0.2831 -0.2446
28274W        W45122  12.712   9.599   4.996 -0.2440  0.0513 -0.0865
28275W        W45123   4.673  14.628   5.057 -0.1230 -0.1657 -0.0015
28276W        W45124   2.169   8.358  15.610 -0.1897 -0.1763 -0.0271
28277W        W45125   3.925  15.888   1.351  0.0900 -0.1413  0.1070
28278W        W45126  15.196   6.565   3.907  0.1751  0.0747  0.2417
28279W        W45127  12.131  16.794   0.912 -0.1662 -0.2459  0.0889
28280W        W45128  11.244   2.816  14.244  0.2116 -0.1582  0.2551
28281W        W45129  11.717  13.300  15.998  0.0546 -0.0576  0.1141
28282W        W45130  12.031  14.717  12.849 -0.1630 -0.4578 -0.1014
28283W        W45131   3.916  13.441  15.486  0.0429 -0.2013 -0.1046
28284W        W45132   8.109   2.344  14.781 -0.0117 -0.3561  0.0915
28285W        W45133   3.725  16.298  15.608  0.1533 -0.2586  0.3203
28286W        W45134   4.016   1.442  13.075 -0.3286  0.0422  0.2412
28287W        W45135   1.045  13.131   2.508  0.0495  0.3763  0.0689
28288W        W45136  12.793   9.916  14.022  0.0232  0.2119 -0.0210
28289W        W45137  17.404  17.026   5.159 -0.0216 -0.0382  0.1938
28290W        W45138  11.441   8.238   2.557  0.0371  0.0109  0.1662
28291W        W45139   7.114   2.711   4.162  0.2964  0.0280  0.0451
28292W        W45140  13.913   4.912   4.032  0.0006 -0.0645  0.4885
28293W        W45141  14.240   6.403  11.833 -0.0306  0.3538 -0.0122
28294W        W45142  17.543  16.583  14.268  0.0287  0.0363 -0.1178
28295W        W45143   6.012  16.640  16.077 -0.3735  0.0074  0.0313
28296W        W45144   0.680   5.852   2.222 -0.2532  0.0562  0.2562
28297W        W45145   8.105   6.271   3.516  0.0086 -0.2351 -0.0274
28298W        W45146   3.669  15.761  12.125 -0.1096  0.1962  0.1212
28299W        W45147  11.462   8.234  13.917 -0.1762  0.0260 -0.2699
28300W        W45148  11.530   0.076  16.483 -0.1138 -0.2324  0.0992
28301W        W45149   8.999  10.946   0.578  0.0124 -0.1464 -0.2525
28302W        W45150  11.190  13.611  13.471 -0.2106 -0.2590 -0.2330
28303W        W45151   0.641  15.661  12.818 -0.3151  0.0666  0.0577
28304W        W45152  11.538  15.837  14.902 -0.0287  0.0499 -0.2923
28305W        W45153  15.367   5.315  15.451 -0.0090 -0.3345  0.0187
28306W        W45154   0.178   3.903  15.926  0.1185  0.0717 -0.0490
28307W        W45155   3.365   4.229   3.610 -0.2536  0.0185 -0.2055
28308W        W45156   0.853   7.841  15.554  0.0877  0.0808  0.0400
28309W        W45157   2.169  16.476   4.036  0.2489 -0.1101 -0.0291
28310W        W45158   4.479   4.575   4.637 -0.2140 -0.1011 -0.0314
28311W        W45159   4.864  10.599   4.896 -0.3167  0.3938 -0.1643
28312W        W45160   5.006   2.637  14.463  0.3612  0.2051 -0.1002
28313W        W45161  11.390   9.726   0.536  0.2016 -0.0689 -0.1081
28314W        W45162   0.035   2.662  13.231 -0.0861  0.0494 -0.4068
28315W        W45163   1.984  15.343  13.095  0.0164 -0.1060 -0.2100
28316W        W45164   3.470  15.555  15.082  0.0766 -0.0166 -0.0564
28317W        W45165   2.308  13.269   0.998 -0.0615  0.2801 -0.2811
28318W        W45166   4.271   8.885   3.985 -0.2766  0.2083  0.1366
28319W        W45167   9.855  10.859  12.938 -0.1210  0.0165  0.3706
28320W        W45168  16.557   3.435  12.512 -0.2385  0.0029 -0.0013
28321W        W45169   3.393  10.979   2.441  0.2026  0.0340 -0.1775
28322W        W45170   7.791  16.507   0.928  0.0096  0.0014 -0.1105
28323W        W45171   2.607  14.082   4.761  0.3511 -0.0791  0.0921
28324W        W45172   5.962  12.942  14.737 -0.1421  0.2889 -0.1590
28325W        W45173   9.001  17.690  14.070  0.0733  0.1058  0.2601
28326W        W45174   9.592   4.509   1.003 -0.2797  0.0036  0.0079
28327W        W45175  13.593   4.953   2.184  0.3838  0.0311 -0.3159
28328W        W45176  13.302   8.045   0.044  0.1156  0.1353  0.0259
28329W        W45177  12.780   3.189  13.463 -0.0405  0.2604  0.0445
28330W        W45178   0.405   2.873  11.408 -0.0614 -0.3148  0.0820
28331W        W45179  12.311  14.155   1.133  0.2061  0.2842 -0.2241
28332W        W45180  14.235   8.940   1.918 -0.2132 -0.1382 -0.0322
28333W        W45181   9.663  16.765   0.775 -0.3631 -0.0076  0.1385
28334W        W45182  12.596  16.504   4.896 -0.2664 -0.0340 -0.2705
28335W        W45183   8.326   6.398  11.702  0.0427  0.3743 -0.1286
28336W        W45184   8.848   5.707   1.802 -0.0265 -0.0668  0.0563
28337W        W45185   4.279  14.639   6.186 -0.0645  0.1110  0.0489
28338W        W45186   4.865   4.806   4.802  0.2724  0.2681 -0.1041
28339W        W45187   5.640   3.386  15.600 -0.0599  0.1108  0.1858
28340W        W45188   6.661  12.925   5.312  0.1259  0.1082  0.2186
28341W        W45189  14.015   0.351  12.168  0.0658 -0.1952 -0.3119
28342W        W45190   4.694   4.283   3.005  0.1901  0.1961  0.0552
28343W        W45191  12.478   6.262  16.503  0.1376  0.0013 -0.0420
28344W        W45192  16.204   9.189   3.091 -0.2302  0.4006 -0.0580
28345W        W45193   9.571  16.384   0.377  0.0153 -0.2026 -0.0962
28346W        W45194   1.322  17.183   4.031 -0.1898  0.0324 -0.2951
28347W        W45195  12.586   5.773   4.387 -0.1484  0.1083 -0.1403
28348W        W45196   8.786   4.380  15.857  0.2769  0.2662  0.1093
28349W        W45197   8.182  12.629  13.819  0.4422 -0.0268  0.0356
28350W        W45198  12.024  13.523   3.883  0.1664 -0.0285 -0.0949
28351W        W45199   6.458   2.365  15.764  0.0923 -0.1912  0.1020
28352W        W45200  15.251   9.342  15.786 -0.1374  0.3640  0.0529
28353W        W45201  14.544   3.431   3.678 -0.1508 -0.1526  0.1219
28354W        W45202   7.684  14.555   3.061 -0.1984  0.0703  0.0370
28355W        W45203   0.776  13.255  14.735  0.1064 -0.0538 -0.1746
28356W        W45204   3.975   5.720   5.039  0.3011 -0.0831  0.2074
28357W        W45205   2.969   7.266  13.777 -0.1321 -0.2460 -0.0483
28358W        W45206   5.575  10.939  13.763 -0.1179 -0.0325  0.3549
28359W        W45207  13.042  16.864  12.519 -0.1177 -0.1795  0.1087
28360W        W45208   5.471  13.077   5.751 -0.2482  0.1818  0.0461
28361W        W45209   1.989  13.881  10.483  0.1071 -0.2412  0.2014
28362W        W45210   4.572   7.124  16.519  0.0490 -0.0995  0.0077
28363W        W45211   7.479   0.557  13.203 -0.2781  0.1722  0.1774
28364W        W45212   2.662   6.270  14.199  0.0535  0.0588  0.2121
28365W        W45213  13.636  16.567   2.956 -0.1860 -0.2612  0.2128
28366W        W45214  15.459  16.714   3.966 -0.4533 -0.0114  0.0472
28367W        W45215   7.486  16.266   2.538  0.1767 -0.1272  0.0933
28368W        W45216  13.413  10.589   3.639 -0.1266 -0.0444 -0.2829
28369W        W45217   3.737   1.183  12.241 -0.0126 -0.2675 -0.0104
28370W        W45218  12.778  12.975   4.378 -0.5170 -0.0621  0.0054
28371W        W45219   2.369   6.119   0.166  0.1522 -0.0126  0.0677
28372W        W45220  10.223  12.348  13.394  0.0382 -0.1113 -0.0092
28373W        W45221  10.034   1.259   1.928  0.1779  0.0653  0.0920
28374W        W45222   8.345  16.919   0.819  0.0639 -0.0346  0.2095
28375W        W45223  17.341   0.628   5.649  0.1123  0.2541  0.3194
28376W        W45224   7.177   7.045  15.835  0.2145 -0.1351 -0.1793
28377W        W45225  10.934   9.308  14.963 -0.2006 -0.1697  0.0700
28378W        W45226  12.990  15.410  12.022 -0.1861  0.2386  0.2654
28379W        W45227   8.164  11.396  16.016  0.1349  0.0443 -0.1742
28380W        W45228   3.807   1.660   2.546  0.0434 -0.2675  0.2131
28381W        W45229   3.957   5.579   5.563 -0.0429 -0.2950  0.0526
28382W        W45230  10.639   2.361  15.904  0.0739  0.3208 -0.0111
28383W        W45231  13.018   7.591  12.115  0.2162 -0.0897  0.0250
28384W        W45232   5.154   9.481  11.785 -0.0370  0.3099 -0.1919
28385W        W45233  15.309   1.401   2.620 -0.2584  0.0434  0.1641
28386W        W45234   4.105   2.402   5.216 -0.1428  0.1955 -0.0323
28387W        W45235   3.022   4.659   1.920 -0.3152 -0.0805 -0.0483
28388W        W45236   6.884   0.087  14.787 -0.2529 -0.1678  0.0992
28389W        W45237   0.585  13.183   0.484  0.1922  0.1790  0.1798
28390W        W45238   8.286  12.364  12.854  0.1890 -0.0149  0.3244
28391W        W45239   3.330   4.022  14.305 -0.1317 -0.0742  0.3299
28392W        W45240   7.274  17.022  11.538  0.0448  0.1180 -0.0193
28393W        W45241   9.358  17.418   3.585  0.0393  0.0246 -0.2536
28394W        W45242   4.601   2.270   2.497 -0.1609  0.4719  0.0522
28395W        W45243   3.392   5.704  16.316 -0.0142 -0.2324 -0.1480
28396W        W45244   0.206  14.506  15.450  0.1425  0.0736  0.1475
28397W        W45245   3.997   6.142   1.667 -0.2333 -0.0289  0.1937
28398W        W45246  13.369  13.230   3.069  0.2009 -0.0530 -0.0966
28399W        W45247   8.000  17.112   2.507  0.2150  0.0479 -0.1014
28400W        W45248  15.336   2.355  16.222  0.0674 -0.0246 -0.0258
28401W        W45249   0.089   0.132  16.412 -0.0648 -0.1984 -0.1514
28402W        W45250  13.326   6.069  10.272  0.0269 -0.2383  0.0968
28403W        W45251   1.737   8.723  14.056  0.0656 -0.2380  0.2273
28404W        W45252  14.915   5.958   3.924 -0.1743 -0.1251  0.0711
28405W        W45253  15.936   6.902   0.032 -0.1171  0.0926 -0.1513
28406W        W45254   5.864   0.357   4.263 -0.0678  0.4139 -0.0356
28407W        W45255   1.805   7.538   1.970  0.2795  0.1072 -0.0569
28408W        W45256   6.332  12.228  14.876 -0.1891 -0.0842 -0.0033
28409W        W45257  11.933   6.127   1.754  0.2009 -0.0423 -0.1255
28410W        W45258   8.039   7.662   2.832 -0.1254  0.1568 -0.1272
28411W        W45259   2.169   6.087  15.920 -0.1249 -0.0987  0.0136
28412W        W45260   5.240   5.760  16.421  0.0771  0.3005  0.0889
28413W        W45261  14.267   2.526  15.440  0.1635  0.0519  0.0232
28414W        W45262   9.879  10.879   0.657 -0.1682 -0.0452 -0.1958
28415W        W45263   2.937   9.810   0.824  0.1588 -0.0551 -0.3797
28416W        W45264  15.871   5.087   5.464  0.0455  0.4021 -0.0639
28417W        W45265  10.501   8.838   2.880 -0.0374 -0.1552 -0.1077
28418W        W45266   3.701   4.179  14.620  0.1677  0.2198 -0.1499
28419W        W45267  13.784  12.863   4.390 -0.1386 -0.0293 -0.2223
28420W        W45268  13.073   0.793  13.854  0.1790 -0.1478  0.0509
28421W        W45269   3.102  11.263   0.910  0.2452 -0.2478  0.0414
28422W        W45270  14.507  14.759  12.861 -0.0324  0.2534 -0.0260
28423W        W45271  14.470  17.271   3.096  0.0330  0.0554 -0.0924
28424W        W45272  12.949   4.813   3.983  0.1407 -0.1434  0.1298
28425W        W45273  16.947  10.435   3.473 -0.0337 -0.0802 -0.1076
28426W        W45274   3.698  14.901   0.602 -0.0320  0.1668  0.0211
28427W        W45275  10.085   7.868  14.105 -0.2496  0.1535 -0.0047
28428W        W45276   1.230   2.297  11.783 -0.1591 -0.0423  0.0276
28429W        W45277   4.857  12.690   5.374  0.0322 -0.0382  0.0220
28430W        W45278   4.412   2.734   0.382 -0.2961  0.1929 -0.0464
28431W        W45279   4.185   5.010  15.215 -0.1291  0.0073  0.0018
28432W        W45280  13.200   9.889   1.181 -0.0245  0.1565  0.1047
28433W        W45281  11.653  13.118  12.089 -0.1985 -0.0393 -0.1156
28434W        W45282   5.705   0.727  13.796  0.0874  0.1760 -0.1557
28435W        W45283  10.433  10.299  16.243  0.1432 -0.0664 -0.1765
28436W        W45284  15.115  11.151   4.906 -0.1199  0.0765 -0.4018
28437W        W45285   5.186   3.604   1.209  0.1335  0.2378  0.1057
28438W        W45286   6.748   2.716   1.349  0.0541  0.1148 -0.1955
28439W        W45287   9.200   8.637   3.120  0.0410 -0.1595  0.0818
28440W        W45288  16.945   8.611   0.825  0.0350  0.0660 -0.1674
28441W        W45289  17.077  11.528  15.722  0.0354 -0.2569 -0.2197
28442W        W45290   3.693  15.271  15.793 -0.3416 -0.1717 -0.1241
28443W        W45291  15.191   8.975  15.364  0.0233 -0.0440 -0.3464
28444W        W45292  15.409   4.623   4.467  0.1193 -0.3593 -0.0932
28445W        W45293   8.111   8.875  13.583  0.1611 -0.4463 -0.1537
28446W        W45294  12.424  14.776  15.867 -0.1017  0.3444 -0.0812
28447W        W45295   8.492  16.031   0.849  0.1651 -0.1510  0.0259
28448W        W45296   6.238   2.274   0.704  0.3513  0.0505 -0.0648
28449W        W45297  10.643   5.102   3.296 -0.3133  0.1926 -0.2182
28450W        W45298  12.270   9.836  16.292  0.0624  0.2278  0.1600
28451W        W45299  10.717  14.060  15.332  0.2304  0.1395  0.1116
28452W        W45300  15.750   1.195  11.656 -0.1624 -0.0509 -0.1768
28453W        W45301  10.557   4.911  14.122  0.2907 -0.1141 -0.0968
28454W        W45302   0.434  14.359  15.883 -0.1188  0.0881 -0.1333
28455W        W45303   6.068   4.260  12.843 -0.2446  0.1015 -0.0857
28456W        W45304  16.310   0.324  16.367 -0.1956  0.1531 -0.1327
28457W        W45305  17.296   0.255   1.976  0.0671 -0.2801  0.0841
28458W        W45306   7.578   1.399   4.253 -0.1777  0.4025 -0.1426
28459W        W45307   5.744  10.782   0.366 -0.1284  0.0157 -0.1527
28460W        W45308   4.316  16.410  15.783 -0.1095  0.3880  0.3091
28461W        W45309   6.801   2.734   3.448  0.2724  0.1012  0.0787
28462W        W45310   5.571   7.040  12.673 -0.1335 -0.4215 -0.1425
28463W        W45311   0.059  14.289   3.862  0.2044 -0.0362  0.2663
28464W        W45312   7.348   1.346   5.265  0.1002 -0.1206 -0.1499
28465W        W45313   1.371  17.432  16.398  0.1809 -0.0845  0.2510
28466W        W45314  13.406  17.143   2.004  0.0262 -0.1391  0.1848
28467W        W45315   5.363   0.484  11.030 -0.1982 -0.0491  0.2368
28468W        W45316   7.658   5.795   1.330  0.1686 -0.1638  0.0876
28469W        W45317  17.619  16.760  12.824  0.3246 -0.0246  0.1931
28470W        W45318   1.707   3.962   4.484 -0.1844 -0.0924  0.3168
28471W        W45319   2.536   1.736  11.841 -0.0926  0.0372  0.0268
28472W        W45320   7.895   5.772   2.762 -0.2229 -0.0045  0.1468
28473W        W45321  11.477  15.897   4.831 -0.0444 -0.1319  0.1421
28474W        W45322  14.134   8.833   5.336  0.0184  0.1050  0.2409
28475W        W45323   9.603   5.622  11.591 -0.1932  0.1376  0.0314
28476W        W45324   1.849  10.019  10.667  0.0375  0.2460  0.0858
28477W        W45325   4.621   0.652   3.175 -0.1505 -0.0063  0.2623
28478W        W45326   4.214  11.916  13.193  0.0442 -0.0027  0.0959
28479W        W45327   9.914   7.032   0.928  0.2093 -0.0718 -0.5018
28480W        W45328   9.716  12.289   3.883 -0.0624 -0.2166  0.0977
28481W        W45329   3.099  14.419   0.012 -0.1569  0.1137 -0.0114
28482W        W45330   3.965  16.394  13.889  0.0647 -0.0564  0.0901
28483W        W45331  15.440  10.464   3.322 -0.1827 -0.1573 -0.1891
28484W        W45332   7.507   5.343  13.269  0.1162  0.1263  0.1499
28485W        W45333   1.439  15.881   2.601 -0.3615 -0.1908  0.1264
28486W        W45334   7.741  10.322  11.695  0.0347  0.0766 -0.0571
28487W        W45335   2.281   2.165  11.936 -0.0111  0.1001 -0.0731
28488W        W45336   9.751  15.502  15.729  0.0508  0.1499 -0.2730
28489W        W45337   9.590   9.173   0.683 -0.3084  0.0228  0.2799
28490W        W45338  12.102   2.648  13.039 -0.1013 -0.1657 -0.0800
28491W        W45339  17.409   5.535  16.444  0.0739 -0.2121 -0.1529
28492W        W45340  12.942   9.561  13.525  0.0687 -0.2914 -0.1056
28493W        W45341   7.400  11.710   5.692 -0.0292  0.0690  0.1857
28494W        W45342   3.606  16.135  14.246  0.0523  0.0693 -0.1280
28495W        W45343  11.839  11.811   0.388 -0.0273  0.0941 -0.0005
28496W        W45344   9.635  12.290  16.199  0.1268  0.3298  0.2503
28497W        W45345  14.129   5.362   1.765 -0.0240  0.0088 -0.0725
28498W        W45346  14.714   0.721   0.846 -0.0574 -0.1800 -0.3164
28499W        W45347   7.094   6.603  12.106  0.1292 -0.0476  0.2840
28500W        W45348   7.542   1.525  12.384 -0.0360  0.0868  0.0135
28501W        W45349   9.307   4.973   1.079  0.3091 -0.0254  0.1928
28502W        W45350  16.231  15.220  12.424  0.2335  0.0854  0.1631
28503W        W45351   4.190   6.628  14.279  0.1578  0.1123  0.1150
28504W        W45352   2.190   3.188   2.860  0.0831  0.1792 -0.1015
28505W        W45353  13.757  13.478   3.203 -0.3689 -0.2036 -0.1813
28506W        W45354  13.024   4.669  14.477  0.2846 -0.0752 -0.0084
28507W        W45355   4.609  14.144   0.392 -0.1153 -0.1279 -0.0661
28508W        W45356  17.395   7.794  15.551 -0.0343 -0.2495 -0.0552
28509W        W45357  16.077  15.972  12.698 -0.0433 -0.2428 -0.1841
28510W        W45358   7.365  15.943  15.551 -0.2339 -0.1236 -0.1431
28511W        W45359  13.190   0.904   2.098 -0.1397 -0.2538 -0.0816
28512W        W45360   4.918  14.182   2.889 -0.0725  0.1188  0.3306
28513W        W45361  11.476  14.031  15.248 -0.1687  0.1179  0.1549
28514W        W45362  13.448  10.338   4.348 -0.2154  0.1168 -0.1108
28515W        W45363   5.259   0.961  14.502  0.0195 -0.0187  0.1164
28516W        W45364  10.290  15.964   1.099 -0.0278 -0.3007  0.1158
28517W        W45365   1.228  14.999  15.079 -0.0429  0.1001  0.2764
28518W        W45366   8.650   2.763  13.044 -0.0121  0.2387 -0.2063
28519W        W45367   5.995   8.974  15.352  0.2232 -0.1661  0.0276
28520W        W45368   9.885   7.151  16.177 -0.0612 -0.1420 -0.1206
28521W        W45369   9.583   6.072  16.533 -0.0863  0.0915 -0.1754
28522W        W45370   8.301   9.304  11.861 -0.1196 -0.1013  0.2540
28523W        W45371  12.339   7.257  12.246  0.0397  0.0385 -0.2304
28524W        W45372  12.293   3.770  16.482 -0.0089 -0.0535 -0.0428
28525W        W45373   1.697   6.014  15.640  0.1964  0.1843  0.1410
28526W        W45374  10.419   6.123   5.223  0.4007 -0.2182 -0.2411
28527W        W45375   3.736  14.931  12.783  0.0161 -0.1022  0.1237
28528W        W45376  12.709  16.394  14.850  0.1555 -0.2843 -0.0221
28529W        W45377   4.599  10.960   1.001  0.1544  0.0378 -0.1224
28530W        W45378   4.573  10.883   0.418  0.1379  0.3782 -0.2450
28531W        W45379  12.009   2.604  15.466  0.1593 -0.0512 -0.2581
28532W        W45380  10.978   3.882   0.780  0.2631 -0.0589 -0.1131
28533W        W45381   7.681   8.515   3.018  0.0755  0.0310 -0.1174
28534W        W45382   8.314   9.611  11.382 -0.2184 -0.1158 -0.1701
28535W        W45383   8.055  10.324  15.404  0.0161 -0.0702  0.4156
28536W        W45384   2.848  11.906  12.859  0.0164 -0.3017 -0.2218
28537W        W45385   0.612   1.853  14.671 -0.0299  0.0982  0.0951
28538W        W45386   7.718  17.153  10.657  0.2409  0.0690 -0.0135
28539W        W45387   0.493   2.029   4.297 -0.1622  0.0070 -0.0908
28540W        W45388   7.284   3.756   4.244  0.3750  0.0186  0.0433
28541W        W45389   3.519   5.672   2.554 -0.1175 -0.1537  0.0851
28542W        W45390   4.415   8.527  15.722 -0.0604 -0.1499 -0.0327
28543W        W45391   5.631   4.993  13.890  0.2561 -0.0872 -0.1242
28544W        W45392  12.026   4.700   5.133 -0.4110 -0.4000 -0.3420
28545W        W45393  11.774   6.907  15.287  0.1071 -0.0347  0.2830
28546W        W45394   0.134  13.127  15.938  0.3768 -0.0740  0.1830
28547W        W45395   7.459  15.599  11.780  0.0493  0.0717 -0.2573
28548W        W45396   4.552  14.749   1.028  0.1001 -0.0402 -0.3294
28549W        W45397  14.699   2.703  14.668  0.2363 -0.0324  0.1068
28550W        W45398  13.854   6.857  14.587  0.2152  0.1529  0.3393
28551W        W45399  16.405   3.474  13.671  0.4351  0.0268  0.1537
28552W        W45400  10.765   3.346   1.455 -0.2527  0.1964  0.0746
28553W        W45401   5.865   5.079   1.081  0.2254  0.1730 -0.0854
28554W        W45402   1.389   3.626  11.713  0.1529 -0.1098  0.0262
28555W        W45403  10.998   4.491  12.199 -0.0461 -0.0058  0.1681
28556W        W45404   1.299  13.553  11.273  0.0073  0.2180  0.2948
28557W        W45405  15.137   5.844  13.976 -0.1913 -0.2328  0.0497
28558W        W45406  10.779   7.766   2.810 -0.0994 -0.1172  0.0814
28559W        W45407   3.580  10.440  15.820 -0.0831  0.0465  0.1843
28560W        W45408   3.615   4.282   2.859  0.1427  0.3325  0.4061
28561W        W45409  14.260  12.050  11.996  0.2448  0.1073  0.2244
28562W        W45410   8.747   5.359  14.003 -0.1562  0.1305 -0.2630
28563W        W45411   8.325   8.443  12.873  0.0536 -0.1368  0.0271
28564W        W45412   0.890   4.739   4.608 -0.0219  0.0596 -0.1598
28565W        W45413   5.100   9.124   4.517 -0.0378  0.0869  0.1123
28566W        W45414   0.613  12.789   0.167 -0.2020 -0.1046  0.1369
28567W        W45415   1.168   6.688   0.150 -0.0300 -0.0725 -0.1867
28568W        W45416  12.499   9.241  14.628 -0.0531 -0.2229  0.1569
28569W        W45417  11.216   0.937  13.835 -0.1420 -0.0853 -0.4677
28570W        W45418  12.166  16.645   2.143  0.0457  0.0902 -0.0981
28571W        W45419   0.859  15.929   5.148 -0.0667 -0.1867 -0.1118
28572W        W45420   7.851   3.753   3.237 -0.0297 -0.1689  0.2811
28573W        W45421  16.386   9.741  15.093  0.1913 -0.1004 -0.1207
28574W        W45422   4.036   1.913  14.437  0.0480  0.0921  0.3139
28575W        W45423   3.862   4.455   3.717  0.1052 -0.0568 -0.0044
28576W        W45424  14.178   9.778   2.106  0.2255 -0.0977  0.1466
28577W        W45425  10.969  16.369   4.254 -0.0061  0.0355  0.0318
28578W        W45426   3.198  12.848  16.109  0.1671  0.1114  0.1220
28579W        W45427   4.737   3.231  14.206  0.0486 -0.0005  0.0762
28580W        W45428   7.147   0.288   4.343 -0.0481 -0.0061  0.3669
28581W        W45429   9.935   4.974   1.085 -0.2988 -0.0783  0.0285
28582W        W45430   2.459   2.441  15.067 -0.0632 -0.1389  0.3904
28583W        W45431  14.849  10.147  12.255  0.1861  0.3041  0.0968
28584W        W45432   9.741   7.704  14.838 -0.1587  0.0158 -0.1373
28585W        W45433  16.456  15.667   1.704  0.1549 -0.0393  0.0990
28586W        W45434   9.826  17.238  13.956  0.3357 -0.0698 -0.0818
28587W        W45435  10.447  11.574   4.411  0.1209 -0.5019  0.2440
28588W        W45436   9.582   6.875   6.008 -0.0095 -0.0464  0.4975
28589W        W45437   1.515  15.309   0.260 -0.4703  0.0182 -0.0521
28590W        W45438  16.608  11.658  12.179  0.0783 -0.0506  0.0059
28591W        W45439   8.014   7.336   0.943  0.1315 -0.1477  0.1304
28592W        W45440  13.828  17.575  11.094 -0.0205  0.1020 -0.4420
28593W        W45441  14.062  12.575  11.322  0.0889 -0.1510  0.3349
28594W        W45442   9.077   5.721  11.949 -0.1752 -0.2708  0.2371
28595W        W45443   7.932   6.253  13.449 -0.0771 -0.1544  0.0011
28596W        W45444  16.002  17.578   4.014  0.1633 -0.1155 -0.2949
28597W        W45445   4.334  11.832   1.024  0.0255 -0.0147  0.2614
28598W        W45446   3.660   3.641  14.214  0.1668 -0.3562  0.2204
28599W        W45447  16.950  11.799  11.861 -0.0154  0.0553  0.0717
28600W        W45448   4.795  12.221  12.860  0.2962  0.3177 -0.1124
28601W        W45449   5.697   5.876   4.248  0.1702 -0.1480 -0.1878
28602W        W45450   9.790   0.732   4.963 -0.1385 -0.1658 -0.3105
28603W        W45451   0.960   4.546   0.823  0.0653  0.1022  0.1316
28604W        W45452   9.798  13.626   0.652  0.0391 -0.1983 -0.0997
28605W        W45453  15.569  10.685   1.169  0.2096  0.0691  0.0231
28606W        W45454   9.297   0.491  12.489 -0.0308 -0.0314 -0.0412
28607W        W45455  12.434   6.699  15.435 -0.1644  0.2314 -0.2933
28608W        W45456  14.897   4.011  13.591 -0.1537  0.1395  0.0289
28609W        W45457  11.801   1.830  13.404 -0.1558 -0.3814 -0.0034
28610W        W45458   6.679   2.440  16.233  0.4102  0.1602 -0.0965
28611W        W45459   9.031   5.756   3.252  0.0282  0.1368  0.0250
28612W        W45460  15.385   4.905  14.569  0.0720  0.2775 -0.0526
28613W        W45461   5.254   7.385   0.479  0.0823 -0.1866  0.1352
28614W        W45462   8.051  15.155   3.110  0.1667 -0.1197  0.1081
28615W        W45463   4.581   6.472   0.513 -0.1694  0.3213  0.3417
28616W        W45464  16.233   2.476   1.181 -0.0931  0.1250 -0.0853
28617W        W45465  11.341  10.465  12.282  0.0338  0.1341 -0.0278
28618W        W45466   0.923   1.404  14.806  0.5362  0.0813 -0.0021
28619W        W45467  16.459   5.481   1.937 -0.2903 -0.0783  0.0742
28620W        W45468   8.605   8.902  12.076  0.0359  0.0870  0.0043
28621W        W45469   4.489  11.104  11.993  0.0302 -0.0793  0.0618
28622W        W45470  11.694   6.490   5.173 -0.0957  0.0214 -0.0221
28623W        W45471  17.421   2.025   0.790 -0.1043  0.2545  0.1150
28624W        W45472  12.912   3.415  16.661 -0.1162  0.2227 -0.2974
28625W        W45473   1.195   2.368  13.876 -0.2598 -0.0571  0.0742
28626W        W45474   5.564   4.247  15.163 -0.0287  0.0112 -0.1124
28627W        W45475   8.890   2.418   5.777  0.2052  0.0354  0.0270
28628W        W45476   3.965  16.547   3.390 -0.0146  0.1158  0.0590
28629W        W45477  15.783  11.808  15.715  0.2264 -0.0209 -0.0210
28630W        W45478   4.626   3.150   0.409  0.0829 -0.2565  0.0590
28631W        W45479   8.554   8.396  14.916 -0.1830 -0.0447 -0.3008
28632W        W45480  13.760  15.330  12.096  0.1210 -0.0820  0.0071
28633W        W45481  13.895   3.521  14.728  0.0574 -0.4064  0.0448
28634W        W45482   3.637   2.751  13.107  0.2048 -0.2221  0.0142
28635W        W45483   8.629  16.372   0.264  0.2770  0.0778  0.3156
28636W        W45484  14.201  16.204   2.473 -0.2040 -0.0947  0.0829
28637W        W45485  11.143  14.683   0.833 -0.0943  0.0902 -0.1607
28638W        W45486   9.866   1.602   0.168  0.2931  0.0384 -0.3086
28639W        W45487  14.038   7.256  14.389 -0.1766 -0.0429  0.2017
28640W        W45488  15.794   4.180   0.682 -0.0604 -0.3746  0.1613
28641W        W45489   6.006   8.408  11.590 -0.2157  0.0746  0.0930
28642W        W45490  14.955   5.115  15.710 -0.1568 -0.2483  0.0361
28643W        W45491  13.039  11.947   0.954  0.0467 -0.1410  0.3114
28644W        W45492   4.804   2.180   0.052  0.0522  0.0834  0.0720
28645W        W45493  15.641   1.849   0.346 -0.2787 -0.0595  0.1926
28646W        W45494  12.068  10.058   0.061  0.1066 -0.0915 -0.2712
28647W        W45495  17.109  16.132  13.041  0.1024 -0.1502  0.1768
28648W        W45496  15.225   1.552   5.449 -0.0592  0.0739  0.2105
28649W        W45497   4.114   4.697  12.878  0.0847 -0.0290 -0.0184
28650W        W45498  14.444   6.719   1.567 -0.0989  0.0507  0.1789
28651W        W45499   0.467   5.885  14.817 -0.0951  0.0388 -0.0247
28652W        W45500  16.143   7.511  11.938  0.0837  0.0327  0.0944
28653W        W45501   9.554   7.337   2.603  0.1582 -0.1315 -0.1060
28654W        W45502  15.819   0.905   2.267  0.3114  0.0808 -0.0552
28655W        W45503   7.358   3.040   5.681 -0.0271  0.1981  0.3304
28656W        W45504   5.493   2.873  12.548 -0.1087  0.0432 -0.0862
28657W        W45505   1.764  12.677  12.308  0.1102  0.2009 -0.2662
28658W        W45506  11.957  10.228   4.698 -0.2707 -0.2578  0.0473
28659W        W45507   4.966  10.103  14.133  0.2210  0.0552  0.1382
28660W        W45508   5.983   5.345   0.139 -0.2100 -0.3477  0.1744
28661W        W45509   5.147  14.101  13.800  0.0237  0.0992  0.0022
28662W        W45510  16.618   2.946  13.912  0.0852 -0.1028 -0.0601
28663W        W45511   1.049   9.917   0.809 -0.0761 -0.0311 -0.0390
28664W        W45512   5.412  13.368  14.137  0.3109  0.0310 -0.0696
28665W        W45513  16.849   1.529  16.442 -0.1907  0.0054 -0.1153
28666W        W45514   4.987  14.570   3.154  0.1746  0.2299  0.0902
28667W        W45515  15.523  15.875  16.213 -0.1306  0.1404  0.2366
28668W        W45516   0.016   0.258  13.787  0.3667 -0.0422  0.2069
28669W        W45517  14.170  14.449   5.335 -0.0387  0.1356 -0.1138
28670W        W45518   5.274  14.935   3.385  0.3871 -0.1771 -0.1527
28671W        W45519  12.262   1.746  16.587 -0.0709 -0.0927 -0.1263
28672W        W45520   5.254  10.291  14.529  0.0720  0.0750 -0.2832
28673W        W45521   1.543   4.045   0.182 -0.0644 -0.1837  0.1167
28674W        W45522   9.065   6.337   1.069  0.1236 -0.0606 -0.3794
28675W        W45523  15.035   9.441   4.259  0.1546  0.2180  0.2648
28676W        W45524  11.163  15.606   1.067 -0.2349  0.0790 -0.0578
28677W        W45525  12.865   6.498   0.832 -0.2044 -0.0186  0.2500
28678W        W45526  10.536   7.233   4.050 -0.1631 -0.0090 -0.1369
28679W        W45527  14.303   5.083   1.286 -0.0922  0.0430 -0.0941
28680W        W45528   8.806   4.515   5.054  0.1445  0.0840  0.0237
28681W        W45529   8.775   8.975  11.634 -0.1444 -0.1789  0.1875
28682W        W45530   0.195   7.547   4.516 -0.2287  0.0290  0.0361
28683W        W45531   5.274   8.168   2.539  0.0959 -0.1648 -0.3348
28684W        W45532   5.728   5.723   1.364  0.2001 -0.1309  0.2542
28685W        W45533   3.119   3.941   4.612 -0.1234 -0.1005  0.1974
28686W        W45534   3.150  17.229   0.127 -0.1087  0.3818 -0.3544
28687W        W45535   1.292  16.373   0.907 -0.0683  0.0601  0.0269
28688W        W45536   3.471   3.456  16.250  0.2563 -0.1490 -0.0638
28689W        W45537  13.781  15.312   1.487  0.1260 -0.0394  0.1537
28690W        W45538  11.819  17.400  12.669 -0.0946  0.0216 -0.0520
28691W        W45539   9.129  17.139  15.206  0.0391  0.3054  0.1029
28692W        W45540   5.400  11.905   1.222 -0.0296  0.0041  0.2674
28693W        W45541  16.412  15.487  15.213 -0.0857 -0.0593 -0.0306
28694W        W45542   3.237  17.382   1.718  0.1293  0.2836  0.0693
28695W        W45543   1.085   7.528  16.493  0.0288 -0.0431  0.3994
28696W        W45544   0.324   6.548   2.025  0.0004  0.0502 -0.0380
28697W        W45545   1.261   3.899  16.422  0.2656  0.0143 -0.0711
28698W        W45546  14.430  10.775  12.623 -0.1338  0.1386 -0.1806
28699W        W45547  14.973  11.158   2.312  0.1055  0.2279  0.1003
28700W        W45548  16.174   3.590  11.711  0.1877  0.1777  0.0965
28701W        W45549  15.080  15.892   2.263 -0.2048 -0.1194  0.0559
28702W        W45550   0.981   2.232   0.475 -0.0666 -0.0656  0.2954
28703W        W45551  11.224   1.180   2.944 -0.0822 -0.1678  0.0016
28704W        W45552   7.987  17.432  11.829  0.0737 -0.1744 -0.2433
28705W        W45553  11.642  12.631  14.219  0.1669  0.1422 -0.1524
28706W        W45554  17.694  16.105   6.535 -0.1955 -0.0539 -0.1245
28707W        W45555   9.224  10.488  15.131 -0.1861 -0.2481 -0.4677
28708W        W45556   5.469   2.960   5.305  0.1869  0.1549 -0.2041
28709W        W45557   8.631  13.614   4.054 -0.0826 -0.0499  0.1547
28710W        W45558   8.754   5.874   4.172 -0.0572 -0.1833  0.1021
28711W        W45559  16.781   7.463   6.276  0.2547 -0.0987 -0.1046
28712W        W45560   3.663   4.245  12.211 -0.0275  0.0265 -0.0443
28713W        W45561   6.938   8.204  10.520  0.2266  0.0849  0.1284
28714W        W45562   5.556  11.740   2.481  0.0662 -0.0970  0.1480
28715W        W45563  12.016   7.150  16.604  0.0312 -0.0524 -0.3399
28716W        W45564   9.418   8.450   3.793  0.0916  0.0180 -0.4908
28717W        W45565  12.367   5.664   3.007 -0.1116 -0.0057  0.0425
28718W        W45566   4.709   5.888  15.231  0.1069  0.1397  0.0893
28719W        W45567   7.049   4.131  15.438 -0.0807 -0.1527 -0.2647
28720W        W45568  11.999   8.189  10.146  0.1116 -0.4063 -0.1305
28721W        W45569   5.359   6.187  15.075 -0.0516  0.0614 -0.0465
28722W        W45570   1.320  14.480   2.213 -0.0847  0.1317  0.1040
28723W        W45571  12.037  12.852  12.657  0.0276  0.0203  0.2782
28724W        W45572  15.050  10.770   3.445  0.4138 -0.1475  0.0339
28725W        W45573   8.433   0.262   4.708  0.3829 -0.2723 -0.2637
28726W        W45574  11.617  14.241  13.542  0.1003 -0.1931 -0.1633
28727W        W45575  11.886  14.226   5.472 -0.2089 -0.1840 -0.0945
28728W        W45576   4.526   4.829  15.935 -0.4981  0.3710  0.1562
28729W        W45577  17.351   0.949  16.454 -0.0924 -0.2328 -0.1818
28730W        W45578   5.958  16.310  14.092  0.0505 -0.2015 -0.2091
28731W        W45579   6.040  13.758   1.005  0.1118  0.0777 -0.3871
28732W        W45580   0.598  14.357   4.603  0.2996  0.1975  0.2694
28733W        W45581  16.332   5.186  14.427 -0.1206  0.1869  0.0054
28734W        W45582   2.616  17.430   3.947  0.0553 -0.3706 -0.2432
28735W        W45583   1.940   2.071   4.845  0.1260 -0.0561  0.2571
28736W        W45584   7.835  11.460   1.817  0.0218 -0.2724 -0.4126
28737W        W45585  11.704   9.978  15.471 -0.2723  0.1520  0.2613
28738W        W45586  16.244  12.855  15.753  0.1839 -0.1978  0.1436
28739W        W45587   3.344   6.885   0.632 -0.1380  0.0897 -0.0263
28740W        W45588   2.029   3.059  12.657  0.3059  0.2471  0.0746
28741W        W45589   0.210  13.914  12.520  0.1001 -0.0557  0.0548
28742W        W45590   6.191  14.568  13.859  0.2569  0.2528  0.1156
28743W        W45591   0.251   8.699   5.107  0.3318 -0.0965  0.1588
28744W        W45592   3.197   3.029   0.048  0.0678  0.3951 -0.3424
28745W        W45593  16.654   7.770   4.455 -0.3236 -0.0560  0.0092
28746W        W45594   7.517  11.322   2.317 -0.1845  0.0931 -0.1481
28747W        W45595  16.163  14.367  16.279 -0.3878  0.2806  0.0827
28748W        W45596  12.119   6.715  15.819  0.1762 -0.1305  0.0375
28749W        W45597  14.550  15.737   5.284 -0.0191  0.1165 -0.1120
28750W        W45598   9.312  12.480  11.643  0.0518  0.1987  0.0665
28751W        W45599  12.883   3.917  13.745 -0.2032 -0.1090  0.1650
28752W        W45600  16.580   6.158  15.663 -0.2533  0.1791 -0.3620
28753W        W45601   4.379  11.493  12.845  0.1859 -0.0550 -0.2231
28754W        W45602  17.582  17.068   2.346 -0.0350 -0.1434 -0.2414
28755W        W45603  11.959   5.035   0.306 -0.0877  0.0576 -0.0435
28756W        W45604   4.656  16.182  11.330 -0.1680  0.1754  0.2898
28757W        W45605  14.415  12.491   2.574  0.1048  0.1111  0.0633
28758W        W45606   9.604  16.683  12.029 -0.2487  0.0786 -0.0619
28759W        W45607  10.214   8.131  14.527  0.0685 -0.2276 -0.0895
28760W        W45608  13.644   0.359  13.080  0.2041 -0.2302  0.2672
28761W        W45609   3.298   7.173  15.868 -0.0622  0.1427  0.0233
28762W        W45610   9.885  10.716  14.356 -0.2776 -0.3664  0.0968
28763W        W45611   7.822   4.567  14.365 -0.2179 -0.1997 -0.0758
28764W        W45612  13.858  16.938   1.801  0.3627 -0.1619 -0.0918
28765W        W45613  12.101   6.171   5.242 -0.3077  0.2438 -0.2408
28766W        W45614   1.105  14.413   1.137 -0.0249 -0.3223 -0.0888
28767W        W45615  14.758  10.423  11.171  0.0156  0.3440 -0.0646
28768W        W45616   9.242   1.217   4.912  0.1602 -0.1479  0.2275
28769W        W45617   4.362  17.168  12.011 -0.2006  0.0969  0.0314
28770W        W45618  11.627  15.876  12.194  0.0979 -0.3382 -0.1523
28771W        W45619   8.892  10.400  11.479  0.2544  0.3852  0.0144
28772W        W45620   5.612  10.976   2.817 -0.0965 -0.1692  0.2233
28773W        W45621  10.253   2.262   3.845 -0.0105 -0.2926 -0.2050
28774W        W45622   4.679   2.527   4.321  0.1294  0.1470 -0.2169
28775W        W45623  10.221   7.193   0.405 -0.1015  0.3087  0.0755
28776W        W45624   1.253   5.973   1.548  0.1308  0.0981 -0.0529
28777W        W45625   7.592   9.402  11.047  0.4009 -0.0417 -0.0179
28778W        W45626   1.014  11.732   0.041  0.1820  0.1349  0.2937
28779W        W45627   1.190   7.398  11.937  0.1648  0.1753  0.1648
28780W        W45628  10.864   4.431   4.555  0.1576 -0.2559  0.3360
28781W        W45629   7.269   3.571  16.200 -0.0380  0.0850 -0.1148
28782W        W45630   6.389   0.760   4.334 -0.0986 -0.1202  0.0945
28783W        W45631   6.581  13.279   4.969  0.0027  0.2339  0.3597
28784W        W45632  16.085  12.966  13.325 -0.1455 -0.0518 -0.0749
28785W        W45633   6.962  16.692   0.525 -0.0714 -0.2239 -0.0930
28786W        W45634  13.724   4.031  12.719 -0.3129  0.1837  0.0205
28787W        W45635  11.189  17.231   4.881  0.0343 -0.1830 -0.1009
28788W        W45636  12.924   2.597  11.731  0.2225  0.1322 -0.1035
28789W        W45637   5.645   6.208  16.424  0.0526 -0.1184 -0.0207
28790W        W45638  13.134  16.250   2.163 -0.0956 -0.1694  0.1019
28791W        W45639  14.993  14.024   3.501 -0.0227 -0.3728 -0.1039
28792W        W45640   6.678   5.964   4.834  0.0939 -0.0213 -0.2836
28793W        W45641   0.202  15.592  12.271  0.1675  0.0833  0.0560
28794W        W45642  16.919   4.260   3.807  0.2571  0.0367 -0.1054
28795W        W45643   3.124  16.131  14.461  0.0778  0.2546 -0.0404
28796W        W45644  13.510   4.780  13.365  0.0523 -0.0390  0.1204
28797W        W45645   7.235  11.803  12.357 -0.3356  0.2092 -0.0371
28798W        W45646   8.129   9.082  12.945 -0.2142 -0.1431 -0.0704
28799W        W45647   1.752  14.720  13.955 -0.0461 -0.0836  0.1299
28800W        W45648   9.566   6.653   4.973 -0.0359  0.1403  0.0169
28801W        W45649  14.610   2.288   2.009 -0.0130 -0.1813  0.2438
28802W        W45650   9.206   5.655  13.287 -0.3320 -0.3462 -0.0849
28803W        W45651   5.973   2.544   4.195  0.0384 -0.0388 -0.0088
28804W        W45652   9.395   6.228  16.021 -0.1882 -0.0039  0.2495
28805W        W45653  13.005   6.100  15.218  0.1040 -0.0266 -0.1584
28806W        W45654  16.722  12.251   6.077  0.0768 -0.0534 -0.0186
28807W        W45655  13.679   0.268   5.532  0.2919 -0.3427  0.0641
28808W        W45656   8.594   1.870   0.413  0.1117 -0.0226 -0.1112
28809W        W45657  11.458   5.246  12.499 -0.1945  0.0132 -0.0743
28810W        W45658   4.083   7.286  11.761 -0.1514  0.0423  0.2883
28811W        W45659   9.206  12.105   0.868 -0.4152 -0.2011 -0.0220
28812W        W45660  15.983   9.327  11.392  0.0769  0.0567 -0.0072
28813W        W45661   4.839   7.205   0.957 -0.2523 -0.0055 -0.2628
28814W        W45662  11.672  15.506   0.922  0.0027  0.0534  0.0388
28815W        W45663  11.683  15.624   3.056  0.1536  0.1927 -0.3144
28816W        W45664  13.361  12.821  13.839  0.0620  0.2619  0.0788
28817W        W45665   8.542  12.080  13.213 -0.0858 -0.1264 -0.1601
28818W        W45666   7.990   2.634   1.621  0.1070 -0.3168  0.2501
28819W        W45667   1.845   2.330   3.542  0.4151 -0.4622 -0.3233
28820W        W45668  16.830  16.116  10.953 -0.1346 -0.0897  0.1562
28821W        W45669  10.564   4.444   5.079 -0.0525 -0.0858  0.0488
28822W        W45670  16.926   3.676   2.094 -0.1148 -0.2084  0.0553
28823W        W45671   5.231   6.855  14.133 -0.1014 -0.0261 -0.0291
28824W        W45672  13.564   8.837  15.846 -0.0236  0.2055  0.0868
28825W        W45673  12.643   5.975   3.354 -0.0937 -0.0802 -0.1718
28826W        W45674   4.954  17.403  11.461 -0.2454  0.1194  0.1047
28827W        W45675   2.029  14.320   4.582  0.0991 -0.0832 -0.1593
28828W        W45676   2.573  10.568   3.459 -0.1000  0.2328  0.1028
28829W        W45677   1.753   6.075   1.004 -0.4270 -0.1908  0.3833
28830W        W45678  14.468  12.350  15.047 -0.1081 -0.1893 -0.1890
28831W        W45679   3.059  10.051   4.673 -0.1300 -0.0845  0.0477
28832W        W45680  11.282   0.415  13.753  0.0350 -0.2047  0.0702
28833W        W45681   9.519   2.174   1.396 -0.3039  0.3240 -0.1723
28834W        W45682  13.356  14.358  14.314 -0.0453 -0.0700 -0.2886
28835W        W45683  10.671  13.841  15.820 -0.1489  0.0582  0.0342
28836W        W45684  15.508   7.945  11.486 -0.0126  0.1835  0.0445
28837W        W45685   7.324   6.096   4.102 -0.2899 -0.0243 -0.0276
28838W        W45686   1.208  13.002  14.763 -0.0418  0.1335 -0.0299
28839W        W45687  11.600  13.580   0.259 -0.3001  0.2506  0.0584
28840W        W45688   1.449   1.656   0.688 -0.1288 -0.1897  0.0191
28841W        W45689   8.030   3.312  10.801  0.0992  0.0498 -0.0548
28842W        W45690   4.344   5.334  11.667 -0.1764  0.1513  0.0621
28843W        W45691  15.734   7.971   0.419 -0.0322 -0.1322 -0.2282
28844W        W45692  16.058  10.100  15.349 -0.0037  0.0573 -0.0163
28845W        W45693  17.361   6.827   2.051  0.3014 -0.0212 -0.2257
28846W        W45694   0.936   9.597   0.293 -0.2426 -0.0871 -0.0003
28847W        W45695   2.215  10.288   3.695  0.0780  0.2971 -0.1361
28848W        W45696  17.057   1.563  13.235 -0.1159 -0.0460  0.0991
28849W        W45697   3.643  12.879   2.030 -0.1041 -0.1772 -0.0031
28850W        W45698   6.311  12.950  15.486  0.0361  0.0022 -0.0518
28851W        W45699   0.893   3.971   5.329 -0.0138  0.3238  0.0344
28852W        W45700   3.944  11.816  14.235 -0.2696  0.1490  0.3305
28853W        W45701  11.136   0.323  15.079 -0.0144 -0.0257 -0.1667
28854W        W45702   3.044   8.488  11.415  0.4063 -0.1426  0.1590
28855W        W45703   3.639   7.963   0.840 -0.1581 -0.0176  0.3327
28856W        W45704   3.697   2.879   2.028 -0.2327 -0.1427 -0.0532
28857W        W45705  17.396   3.896   1.436 -0.1155  0.0891 -0.1833
28858W        W45706   2.056   5.535  14.423 -0.1290 -0.4089  0.1385
28859W        W45707   0.136   8.314   0.528  0.3206  0.1026  0.1916
28860W        W45708   7.659   4.122  13.893  0.4307 -0.0804 -0.4406
28861W        W45709   6.361   6.061  12.074 -0.2589  0.1785 -0.0595
28862W        W45710  15.091   1.909  14.483 -0.0670 -0.1764  0.1526
28863W        W45711   6.408   3.727  15.927  0.0195  0.2994  0.1692
28864W        W45712  10.114  15.403   1.066 -0.0631 -0.0778 -0.0597
28865W        W45713  11.936   8.306   4.646  0.0595 -0.0793  0.0494
28866W        W45714  13.418  14.985  11.932  0.1039 -0.4234 -0.0495
28867W        W45715   0.949   6.845  13.535 -0.1889  0.1846 -0.2512
28868W        W45716  16.820   8.373  12.726  0.3988 -0.1865 -0.3405
28869W        W45717   6.276   1.372   3.159  0.2080  0.0857 -0.2157
28870W        W45718  15.181   3.580   2.450  0.0356 -0.2148  0.0118
28871W        W45719   6.515   4.751   5.709  0.1714 -0.0749  0.2208
28872W        W45720  11.519   2.054  15.921 -0.0516 -0.3035 -0.2284
28873W        W45721  17.293   2.993   4.354 -0.2357 -0.0039 -0.3859
28874W        W45722  10.900   1.087   5.451  0.1378 -0.0198  0.1086
28875W        W45723   9.011  16.949   2.450 -0.0239 -0.1812 -0.0612
28876W        W45724   0.213  11.943  13.660 -0.1402  0.2627 -0.3147
28877W        W45725  12.603  13.743   0.341 -0.1214  0.3201  0.2568
28878W        W45726   9.667   1.133   1.545  0.1543  0.2432  0.3609
28879W        W45727   4.747   3.575   1.952  0.1629 -0.0297 -0.2317
28880W        W45728   3.549   0.262  16.214 -0.1372  0.0532 -0.2614
28881W        W45729   0.714  12.313  10.884 -0.0096  0.1575  0.1439
28882W        W45730  11.710   4.846  16.067 -0.0077 -0.3100 -0.1122
28883W        W45731   2.598  11.013  11.307  0.0518  0.0390 -0.1080
28884W        W45732  15.495  12.655  13.966 -0.0964 -0.0416 -0.0333
28885W        W45733   9.660  10.292  14.511  0.0795 -0.1264 -0.0158
28886W        W45734   1.529  10.884   4.695 -0.0908  0.1585  0.2203
28887W        W45735   7.466   1.348  11.787  0.3572 -0.2256  0.1512
28888W        W45736   0.578   1.251   4.974  0.1384  0.0374 -0.1254
28889W        W45737   5.212   1.990   3.654 -0.4255  0.2259  0.1766
28890W        W45738   0.524  13.460  13.548  0.0061  0.0523 -0.1847
28891W        W45739   0.566  15.217  16.667 -0.2406  0.1290 -0.0257
28892W        W45740  11.984  11.506  13.609  0.2275  0.0178  0.1739
28893W        W45741   9.224   8.974  15.649 -0.2891 -0.0987  0.1821
28894W        W45742   6.220  11.222   5.181  0.0726 -0.2201  0.1175
28895W        W45743   4.794   4.008  11.508  0.0464  0.1015  0.0156
28896W        W45744  10.742  14.783   3.068  0.0733  0.4357 -0.1505
28897W        W45745  13.866  14.561  12.732 -0.0107 -0.6555  0.1749
28898W        W45746  11.824   6.897   2.734  0.0063 -0.0857 -0.1732
28899W        W45747   1.252   1.658   3.062 -0.0408 -0.0476  0.3178
28900W        W45748   0.414   8.734   2.223  0.1433  0.2192  0.1222
28901W        W45749  17.616   7.523   0.239  0.0890 -0.1052  0.0700
28902W        W45750   8.366  17.234   3.615 -0.0112 -0.2350 -0.2394
28903W        W45751  17.654   1.364  16.018  0.2200 -0.0986  0.4640
28904W        W45752   3.757  17.563  11.591  0.0531 -0.0251 -0.0352
28905W        W45753  13.746   4.956   4.756  0.0309 -0.1863  0.0681
28906W        W45754   1.126   9.448  16.354  0.0411 -0.1015  0.2271
28907W        W45755  11.600   1.332  15.572 -0.0125 -0.1244 -0.0073
28908W        W45756   4.065  13.034   4.598 -0.0158 -0.2724  0.0835
28909W        W45757  14.491   2.860   2.058  0.1896 -0.2398 -0.1668
28910W        W45758  10.726   8.992  14.147 -0.3091 -0.3877 -0.1080
28911W        W45759   8.994  16.082  11.649 -0.1689  0.1616  0.1576
28912W        W45760  10.210   0.309  16.357  0.1563 -0.0725 -0.1530
28913W        W45761   5.319   5.412  15.676 -0.0239 -0.1669  0.1470
28914W        W45762  14.502  12.476   5.033 -0.3224  0.3081 -0.1008
28915W        W45763   9.709  10.802  11.602  0.1170 -0.0684 -0.0884
28916W        W45764  16.428  10.753  13.805 -0.0939 -0.2507  0.0222
28917W        W45765  11.166  11.093   4.778 -0.1078  0.0432 -0.2206
28918W        W45766  13.768   3.449   0.910 -0.2364  0.1178 -0.0152
28919W        W45767  13.376  13.720  16.055  0.0682  0.0208  0.0186
28920W        W45768  17.655  15.304  11.854 -0.4066  0.2887 -0.2691
28921W        W45769  17.034   1.839   0.170 -0.0866  0.0119 -0.1972
28922W        W45770  15.377   7.146   4.955 -0.1700 -0.1214  0.0130
28923W        W45771  11.225   8.451   0.913  0.0386  0.1782 -0.1359
28924W        W45772   1.221  10.110   1.674  0.1677 -0.0966  0.0335
28925W        W45773  16.170   9.556   0.461  0.2090 -0.4443 -0.1097
28926W        W45774   9.581  16.959  15.581 -0.1371  0.1762 -0.0159
28927W        W45775   6.291  13.994  11.295  0.0053 -0.3600  0.1460
28928W        W45776  14.228   4.302  14.911  0.3149  0.0481  0.1389
28929W        W45777   7.765  11.504  15.769 -0.0952  0.0111  0.0422
28930W        W45778  11.716  10.241   4.265 -0.0859  0.0176 -0.1773
28931W        W45779   0.778   4.851   5.105 -0.0023 -0.0708 -0.0223
28932W        W45780  14.990   8.010  16.410 -0.0803  0.3270  0.1114
28933W        W45781   6.018   5.966   2.157  0.0754  0.1340 -0.1997
28934W        W45782   5.123  14.280   5.825 -0.2776 -0.0505  0.1056
28935W        W45783   3.176  11.766   2.010  0.1833  0.2496 -0.1447
28936W        W45784   7.782   8.243   1.158  0.0924 -0.0089 -0.1199
28937W        W45785   3.039  14.877  16.051 -0.2528 -0.1185  0.2263
28938W        W45786  16.030  15.669   1.952 -0.0738  0.0475  0.1547
28939W        W45787  15.369  17.209  14.009  0.3924 -0.1478 -0.3139
28940W        W45788  17.288  12.480  14.989 -0.1899  0.1719 -0.1543
28941W        W45789   1.609   0.797  11.835 -0.1557  0.0082  0.1436
28942W        W45790  13.136  15.121   4.142 -0.1472  0.1807  0.0574
28943W        W45791  13.093   7.899  14.791 -0.0172  0.1425 -0.2323
28944W        W45792   0.765   5.292  14.422  0.1056 -0.0949 -0.0958
28945W        W45793  14.631  13.574   3.263 -0.0083 -0.2111  0.2434
28946W        W45794   2.352   1.939   1.386  0.1171 -0.0259 -0.0786
28947W        W45795  16.207   6.543   4.211  0.0554  0.0474  0.3128
28948W        W45796   8.975  17.666   5.527 -0.0552 -0.2643  0.2512
28949W        W45797   6.391  11.000  14.708  0.2706  0.1389 -0.2427
28950W        W45798   0.824  11.885  15.768 -0.2009  0.0367 -0.2974
28951W        W45799  13.066  13.200  14.738  0.0164  0.1780 -0.1602
28952W        W45800  16.451   9.258  16.363  0.0787  0.4210  0.0025
28953W        W45801  16.936  10.027   0.709 -0.3746  0.1176  0.1531
28954W        W45802  10.268  10.583  11.410  0.4102 -0.0641  0.2106
28955W        W45803   5.273  11.632  16.423 -0.0564 -0.1561  0.0451
28956W        W45804  14.507   1.899   3.558  0.2684  0.2125  0.4678
28957W        W45805   5.606  13.479  11.584  0.0900 -0.0914  0.1446
28958W        W45806   8.763   9.431  12.247 -0.0819  0.0275 -0.2474
28959W        W45807  13.470   0.991  16.285  0.0939 -0.1962  0.0901
28960W        W45808   8.424   3.257   4.470 -0.0216 -0.1407 -0.1060
28961W        W45809  12.432   1.272   1.133  0.1729 -0.1874 -0.2324
28962W        W45810   7.321  11.947   1.828  0.2373  0.2138  0.1974
28963W        W45811   0.904   9.759  14.023 -0.3053 -0.2106  0.2865
28964W        W45812  11.121  11.469   0.678  0.0730  0.2152  0.1570
28965W        W45813  13.626  10.015   3.989 -0.0119  0.0030 -0.2266
28966W        W45814   1.884   7.266  14.988 -0.0441 -0.0993 -0.1731
28967W        W45815   0.965   5.850   3.994 -0.2247 -0.0822  0.0407
28968W        W45816  13.331  17.364  12.349 -0.0492  0.1080  0.1969
28969W        W45817   9.912   9.300  13.922  0.0356 -0.1372 -0.0442
28970W        W45818   3.552  16.673  12.599  0.1005  0.1801  0.2536
28971W        W45819  13.376   7.965   2.955  0.0413 -0.2510 -0.0954
28972W        W45820  10.961  16.333   3.269 -0.0816  0.1683 -0.0328
28973W        W45821  17.234  14.284  12.950  0.4380  0.2010 -0.1567
28974W        W45822   6.416   6.781   2.695 -0.1060  0.1088  0.1145
28975W        W45823  16.922   0.739  12.553  0.1315  0.1204  0.1513
28976W        W45824   4.692  17.030   5.572 -0.0189 -0.0928  0.0437
28977W        W45825   9.390   2.158   2.745 -0.0784  0.2171 -0.0866
28978W        W45826   5.901  12.116   4.928  0.0816  0.1208 -0.1502
28979W        W45827   6.361   5.392   2.903  0.0646 -0.1469 -0.0282
28980W        W45828  10.356  10.391   4.979  0.0283 -0.1361 -0.0089
28981W        W45829   2.127  17.078  15.316 -0.1477 -0.2368 -0.0727
28982W        W45830  10.485   7.461   3.205 -0.0657  0.0484 -0.1567
28983W        W45831   0.547   9.637  11.734  0.1106 -0.0729 -0.1482
28984W        W45832   7.789   9.572  14.647 -0.0889  0.2038  0.0723
28985W        W45833   8.683  11.784  14.028  0.1183  0.0089 -0.3466
28986W        W45834   6.494  12.399  13.226  0.0882  0.1533 -0.0677
28987W        W45835   1.218   4.462  11.534  0.0509 -0.1829  0.0748
28988W        W45836   4.128   8.671   5.440  0.0178 -0.0492  0.1407
28989W        W45837  14.317  17.665  11.418 -0.3820  0.0372  0.2516
28990W        W45838  15.260   6.777  13.912  0.2281  0.2362 -0.0532
28991W        W45839   6.228   2.665   3.163 -0.1640  0.2863 -0.0853
28992W        W45840   7.814   3.950  12.943  0.1927 -0.2504  0.0711
28993W        W45841  16.537   9.420  12.432 -0.2370  0.0093  0.0099
28994W        W45842  15.020   2.676  11.757  0.0104 -0.1166 -0.3496
28995W        W45843   1.044   1.019  13.026  0.2453  0.0984  0.1018
28996W        W45844  14.418  16.189  13.025  0.1165  0.0291  0.0929
28997W        W45845  17.341   0.473   4.430 -0.0008 -0.1889 -0.1522
28998W        W45846   5.339  16.333   0.745 -0.1269 -0.3216  0.1991
28999W        W45847   4.203  13.555  12.389 -0.0998 -0.0936  0.1154
29000W        W45848   6.689  16.361   3.745  0.3974  0.2076  0.1775
29001W        W45849  15.838   4.852  11.544 -0.0653  0.0053  0.3543
29002W        W45850  13.960   5.103  13.436 -0.0106  0.1199 -0.0344
29003W        W45851   4.550   7.635   4.634 -0.0418  0.0195  0.0801
29004W        W45852  16.365   4.998   1.764  0.0101 -0.1279  0.1033
29005W        W45853  14.500  12.940   1.658  0.0684 -0.1362  0.2094
29006W        W45854   3.076   5.803   3.390  0.1975  0.3324 -0.3593
29007W        W45855  12.657  15.656   0.055  0.1860 -0.2487  0.2355
29008W        W45856  16.143   4.390  15.918 -0.1027  0.0012  0.0285
29009W        W45857   9.959   1.780  11.119 -0.0790  0.2149 -0.3361
29010W        W45858   4.884   0.505  10.832 -0.0471 -0.0682 -0.0841
29011W        W45859   9.731  13.889   0.185 -0.0460  0.0351 -0.0132
29012W        W45860  11.113  17.405  13.435  0.1340 -0.0666  0.3503
29013W        W45861   1.609   2.674   1.431  0.1432  0.0339 -0.1618
29014W        W45862  12.888   3.329   4.773  0.0196  0.1766  0.0205
29015W        W45863  15.464   9.542  15.301 -0.1839  0.1152  0.1983
29016W        W45864   9.189   4.392   1.798 -0.2032  0.4294 -0.1468
29017W        W45865   6.950   4.986  10.975  0.1347  0.2022  0.1206
29018W        W45866  15.157   8.186   3.250 -0.0816  0.0246  0.1492
29019W        W45867  12.918  12.863   2.019 -0.2350 -0.0012 -0.3601
29020W        W45868   9.370  13.788   4.720  0.1094  0.0336 -0.1570
29021W        W45869  15.105  11.956   5.485  0.1731 -0.0304 -0.1042
29022W        W45870  15.398   6.643  15.533 -0.0562  0.0539  0.0028
29023W        W45871  11.933  13.442  14.633  0.1702 -0.1986 -0.1199
29024W        W45872   2.884  10.015  11.747  0.0424  0.1470  0.2346
29025W        W45873   8.649   1.337   3.428 -0.1025 -0.0421 -0.0120
29026W        W45874   8.869  15.263   1.268  0.1053  0.1432  0.1512
29027W        W45875  13.410   2.329   4.011 -0.2028 -0.1820  0.2874
29028W        W45876   3.577  10.339   1.637 -0.0182 -0.5920 -0.0343
29029W        W45877   0.576   9.333  14.633  0.1047 -0.0673  0.2948
29030W        W45878  12.409   2.869  15.871 -0.0077 -0.1146 -0.0743
29031W        W45879  14.529   6.047   5.447 -0.0147 -0.0689 -0.0367
29032W        W45880  15.467  15.756  12.530  0.0738  0.2494 -0.2990
29033W        W45881  10.983   0.673  11.554 -0.0405  0.0107  0.1778
29034W        W45882   8.521  10.016  13.266 -0.3269 -0.0658  0.1004
29035W        W45883  15.608  10.649   2.086 -0.0922 -0.0772  0.0258
29036W        W45884  12.624   2.592  14.667 -0.1328  0.0288  0.3208
29037W        W45885  15.448   2.867   1.513  0.0017  0.2967 -0.3599
29038W        W45886   9.073  12.725   3.903 -0.1477 -0.1095  0.1561
29039W        W45887   5.859   9.929   0.182  0.0494  0.3369  0.1082
29040W        W45888  16.036  14.921  14.514 -0.1306  0.1283  0.3326
29041W        W45889   7.356  13.595   2.031 -0.2128  0.0986 -0.2189
29042W        W45890   7.534  14.202  14.006 -0.0522  0.2548  0.0108
29043W        W45891   5.709   7.333  13.961  0.0868  0.2907 -0.4793
29044W        W45892   1.180   5.021  14.578  0.1448 -0.0053 -0.0394
29045W        W45893   0.066  11.637   3.114  0.0084  0.1776 -0.1705
29046W        W45894  10.004  17.587   3.325 -0.4953 -0.0985  0.1159
29047W        W45895  13.215   5.237   3.832 -0.0411  0.1120 -0.0375
29048W        W45896   5.654   8.183   0.143  0.0638 -0.2279 -0.1075
29049W        W45897   1.441  11.644   3.993  0.1442  0.0804  0.0212
29050W        W45898   5.504  15.217   5.093  0.1119 -0.0056 -0.4086
29051W        W45899   7.788   0.087   3.634 -0.2895  0.3649 -0.3542
29052W        W45900   1.911   0.322  12.794  0.0222 -0.0763 -0.0962
29053W        W45901  11.377  12.153   4.721  0.1694 -0.3772  0.2026
29054W        W45902   6.958   0.878  12.401 -0.0777  0.2141 -0.1701
29055W        W45903   4.442   7.408   0.729  0.0736 -0.2982 -0.2019
29056W        W45904  11.094  12.425  14.948  0.0206  0.1955  0.1117
29057W        W45905   1.678   2.423   2.796  0.1648  0.1802  0.1134
29058W        W45906   8.921   2.901   4.202 -0.1447 -0.1022  0.1597
29059W        W45907  15.110  16.863  13.123 -0.1452 -0.1728 -0.0721
29060W        W45908   1.437  11.909  16.361  0.0600  0.0063 -0.0595
29061W        W45909   5.204   9.889  11.521  0.0279  0.0924 -0.0455
29062W        W45910  11.144   1.222   2.005  0.2943  0.2177 -0.2546
29063W        W45911  15.393  10.366   5.807  0.0212 -0.2297 -0.0891
29064W        W45912  13.008   1.999  14.203 -0.0630  0.0677 -0.0505
29065W        W45913   5.460  14.559   2.923 -0.0404 -0.0945  0.0256
29066W        W45914   4.791  15.004  11.274  0.1939  0.1415  0.0291
29067W        W45915  10.539   1.822  15.821  0.0238 -0.2208  0.0749
29068W        W45916   7.158  13.867   2.960  0.1002  0.1407 -0.0091
29069W        W45917  16.147  17.209   3.723 -0.1514  0.1102  0.1765
29070W        W45918  16.572   5.255  14.872  0.1037 -0.1372  0.3348
29071W        W45919  17.646   3.082  14.829 -0.0743  0.1437  0.0402
29072W        W45920   7.248   1.568  13.227  0.1218 -0.0385  0.1962
29073W        W45921  11.852  14.598  15.791  0.2170 -0.1618 -0.0049
29074W        W45922  10.272   2.009  12.773 -0.0780 -0.0180 -0.0327
29075W        W45923   4.221   3.902  15.424  0.2603  0.3234 -0.0337
29076W        W45924  12.844   5.005   4.792  0.1189 -0.0525 -0.1723
29077W        W45925  14.142   5.065  15.842  0.1613  0.2485 -0.2791
29078W        W45926  14.824  13.244  13.927  0.0588  0.0998  0.0903
29079W        W45927  17.565   0.195   4.844 -0.2706  0.1387  0.1315
29080W        W45928   2.072   9.165   3.171  0.0977  0.0499 -0.1254
29081W        W45929  12.025  15.526   1.315 -0.0594  0.0362 -0.0859
29082W        W45930  16.978   2.730   3.888  0.2107  0.1459  0.0294
29083W        W45931   3.526   2.732  16.530  0.1030 -0.0366  0.1614
29084W        W45932  15.529   3.954   3.657 -0.1267 -0.0364 -0.1236
29085W        W45933  11.576  14.587  12.949  0.1297  0.0067  0.2625
29086W        W45934   3.023   8.228   1.395  0.4049  0.1627 -0.0671
29087W        W45935   2.020  11.449  15.666  0.2485 -0.2878  0.2997
29088W        W45936   0.776   8.812   1.883  0.2510 -0.0678 -0.0447
29089W        W45937   6.347  17.318  15.603  0.0213 -0.1182 -0.1436
29090W        W45938   0.913   6.946  12.199  0.1247 -0.0929  0.1325
29091W        W45939   1.613   6.192   1.918  0.0718 -0.2335  0.0567
29092W        W45940   4.239   5.994   2.555 -0.2127  0.3550  0.0112
29093W        W45941   2.054   5.201  16.261  0.2225 -0.2409 -0.0716
29094W        W45942   5.165   7.647  15.322  0.2419  0.0071 -0.0513
29095W        W45943   8.861   2.733  14.011  0.2661 -0.2955 -0.1650
29096W        W45944   2.502   3.779  13.689  0.2429  0.2640 -0.2295
29097W        W45945   0.423   9.527  13.665 -0.1303 -0.1752 -0.0492
29098W        W45946   9.481   0.623   5.440 -0.3895  0.3356 -0.0163
29099W        W45947  11.446   6.301   1.721  0.4771  0.0755 -0.0575
29100W        W45948   0.540   3.508   1.746  0.4101 -0.1672 -0.1215
29101W        W45949  16.314  17.606  13.442  0.0019 -0.0649  0.0251
29102W        W45950   3.415   1.667  10.691 -0.2445  0.3131 -0.1240
29103W        W45951   9.332  13.725   0.478  0.1312  0.1467  0.5680
29104W        W45952   7.548  13.560   0.970 -0.0977  0.0716 -0.0323
29105W        W45953   6.665   7.801   3.659  0.1492  0.0634 -0.1301
29106W        W45954   9.635   3.167  13.736  0.3186 -0.0038 -0.1852
29107W        W45955  10.050   7.770   3.378 -0.2511  0.0961 -0.2318
29108W        W45956   2.171   0.480  14.538  0.1795  0.0885  0.1354
29109W        W45957  12.867  13.483   4.903  0.0049 -0.2060 -0.0147
29110W        W45958   0.624   5.292   2.198  0.1183  0.0798 -0.0561
29111W        W45959  11.227   7.702  11.425  0.3944  0.1730  0.1384
29112W        W45960   1.154  14.043  14.202 -0.0310 -0.1048  0.0595
29113W        W45961   0.395   1.648   0.029  0.0810  0.1609 -0.0806
29114W        W45962   4.842  13.468  13.373  0.1488  0.0050  0.0526
29115W        W45963   8.971   0.189   1.833  0.0392  0.0268  0.0959
29116W        W45964  16.480   1.830   0.027  0.0215  0.2927  0.3787
29117W        W45965   0.453   5.260   2.833  0.0879 -0.0875  0.0934
29118W        W45966  14.621  16.254   2.775  0.0348  0.0363  0.1783
29119W        W45967   7.499   5.586  15.059  0.1129 -0.1372 -0.1725
29120W        W45968  13.574   0.590   1.981 -0.0220 -0.1333  0.0271
29121W        W45969  17.502   3.269   1.245 -0.0969 -0.2269 -0.0090
29122W        W45970  16.496   2.414   4.604  0.2723 -0.0193 -0.1942
29123W        W45971  16.903   5.277   2.429 -0.2394 -0.0474  0.2139
29124W        W45972   7.382  14.652   3.515 -0.2784 -0.1609  0.2209
29125W        W45973  11.260  11.757  14.731  0.2105 -0.2889 -0.1537
29126W        W45974  13.724  17.339   3.817 -0.1010  0.1079 -0.0551
29127W        W45975  13.596   9.750  13.441  0.2703 -0.1284  0.1498
29128W        W45976  10.062  13.576   3.798 -0.0190  0.0938  0.1094
29129W        W45977   1.209   3.273  13.803  0.1856 -0.3020  0.2808
29130W        W45978  13.300   4.214   0.485 -0.1690 -0.3271 -0.1670
29131W        W45979  15.051   3.154  15.877 -0.1568 -0.1173 -0.2185
29132W        W45980   2.019  10.458  16.186  0.0738 -0.1340  0.4040
29133W        W45981  16.007   4.109   1.640 -0.0315  0.1205  0.1121
29134W        W45982   7.433  11.974  11.194  0.0203 -0.0202 -0.0953
29135W        W45983   2.542  10.118  13.575 -0.1451 -0.1413  0.2260
29136W        W45984   4.531  13.705   5.266 -0.0765 -0.0063 -0.2706
29137W        W45985   0.948  14.868   3.466  0.0113  0.3043 -0.0678
29138W        W45986   1.440  13.342  16.045  0.3510  0.3034 -0.3330
29139W        W45987   3.919   1.949  13.415  0.3181 -0.1172 -0.1451
29140W        W45988   2.766   6.682   4.738  0.0648 -0.0471  0.0509
29141W        W45989   9.562   0.355  14.724 -0.1171 -0.2469  0.1701
29142W        W45990  15.355  11.871  12.200 -0.1917 -0.2199  0.3414
29143W        W45991   4.927   3.430   0.081 -0.0779  0.0402  0.2272
29144W        W45992  14.560  11.497  14.004 -0.0700  0.1682 -0.0266
29145W        W45993   1.671  15.757   0.712 -0.0499  0.0987  0.1913
29146W        W45994  16.615  14.302  14.203  0.1071  0.0108  0.0067
29147W        W45995  16.447  11.491  16.483  0.0270  0.0347 -0.1299
29148W        W45996   8.664  11.915   5.549 -0.1403 -0.1385  0.1701
29149W        W45997  10.157  13.944   4.194  0.0567  0.1532  0.0328
29150W        W45998  16.401  10.564  16.079  0.1088 -0.3312 -0.0898
29151W        W45999  12.306   1.833   4.458  0.1047  0.0410  0.1927
29152W        W46000   5.026   6.371   1.826 -0.2809  0.0794  0.1440
29153W        W46001   4.706   2.225   0.582  0.0436 -0.1054  0.1910
29154W        W46002   6.186   6.063  14.000  0.0733 -0.2220 -0.0911
29155W        W46003  10.041   6.542   0.890 -0.2032 -0.1674 -0.0062
29156W        W46004  11.283   6.991  11.304 -0.1405 -0.2596 -0.0168
29157W        W46005  15.772   8.292  13.726  0.0813 -0.2701 -0.2290
29158W        W46006   0.344  15.245  12.590  0.3715  0.2297 -0.3569
29159W        W46007   6.669   2.489   0.889  0.1195 -0.0657  0.1260
29160W        W46008   6.156  15.182   3.873  0.0837 -0.0221 -0.0638
29161W        W46009   2.220   4.152   3.011 -0.2649 -0.1200  0.4563
29162W        W46010   5.067  16.436   1.106  0.0813  0.0915 -0.2127
29163W        W46011   2.585   2.636   4.334 -0.1373 -0.1749  0.0809
29164W        W46012  13.023  11.672   2.767  0.3004  0.2124  0.2889
29165W        W46013  14.245  13.464   3.886 -0.0970 -0.1399 -0.0181
29166W        W46014   9.481  12.876  13.761  0.1592  0.3096  0.0348
29167W        W46015   1.168  11.987  12.846 -0.0580 -0.0707  0.3177
29168W        W46016   6.744   9.979   5.401 -0.1474 -0.0918 -0.2704
29169W        W46017   9.007  16.685  12.906  0.0349 -0.1286 -0.0634
29170W        W46018   4.667  12.165  11.793  0.0191  0.0412  0.3533
29171W        W46019  10.248   2.213  15.627 -0.0172 -0.1603 -0.0410
29172W        W46020   2.738   8.771   2.587  0.1123 -0.4129  0.2752
29173W        W46021   4.086  14.903   0.270 -0.0234 -0.1464 -0.1610
29174W        W46022  16.127  16.069   0.395  0.0416 -0.0979 -0.2944
29175W        W46023   5.975   6.846   4.308  0.2687 -0.1040 -0.1247
29176W        W46024  15.212   6.579   4.752 -0.1678  0.0758  0.2856
29177W        W46025   3.865  15.853   1.812 -0.0394  0.0281 -0.0750
29178W        W46026  12.765   1.324  13.369  0.1967 -0.0386  0.0932
29179W        W46027   4.840  13.473   1.350 -0.0815  0.1653 -0.2449
29180W        W46028   9.244   7.967   4.825 -0.2275 -0.0350 -0.1854
29181W        W46029   8.143  14.071  15.813 -0.2860  0.0807 -0.0423
29182W        W46030   3.212   9.751   2.178 -0.0591 -0.1834  0.0251
29183W        W46031   4.223   1.862  16.512 -0.2140 -0.0972  0.1584
29184W        W46032  15.861   0.740  14.239  0.1812  0.0999  0.1411
29185W        W46033   0.334   7.461   5.367 -0.1156  0.2748  0.0845
29186W        W46034  12.814   7.027   0.808 -0.0264  0.1328 -0.0380
29187W        W46035   3.071  13.357  13.662 -0.3736 -0.1695 -0.1240
29188W        W46036  16.042   5.601   2.312 -0.0141  0.2702 -0.0122
29189W        W46037   3.625  12.798  13.071  0.1541  0.1408 -0.2578
29190W        W46038   8.501  17.633  11.645  0.1394 -0.3339  0.3718
29191W        W46039  10.958   8.081   1.125 -0.0147  0.0491  0.2301
29192W        W46040  12.756   8.919   3.682  0.0179  0.2700 -0.1076
29193W        W46041   0.233  11.044   5.168 -0.1433 -0.4479 -0.1137
29194W        W46042   3.913   1.601   1.966  0.1704  0.0655  0.2270
29195W        W46043   0.890   3.853   4.825 -0.0494 -0.0925 -0.0001
29196W        W46044   8.842  16.662  12.447 -0.0972 -0.0390  0.1451
29197W        W46045  12.022   7.885   3.923  0.1217  0.1286  0.1352
29198W        W46046   8.137  11.101   2.023  0.1565  0.0631  0.1909
29199W        W46047  13.158  16.565   1.204 -0.2898 -0.0529 -0.0753
29200W        W46048   9.137  15.618  13.315  0.5264  0.1862  0.0129
29201W        W46049   0.569  11.464   1.785 -0.0904  0.0024 -0.2824
29202W        W46050  11.770  14.736   4.297  0.3381  0.2499 -0.0822
29203W        W46051  15.368   2.543  11.368 -0.3015  0.0056  0.4830
29204W        W46052   6.350   7.297   0.301  0.2664 -0.0240 -0.0939
29205W        W46053   6.529  10.860  13.911  0.0909  0.1988  0.1164
29206W        W46054   3.453   1.519  12.477 -0.1802  0.1199 -0.2002
29207W        W46055   3.325   6.363   2.412 -0.2336 -0.0626  0.1266
29208W        W46056  15.966   3.726  14.477  0.0057 -0.2774  0.0523
29209W        W46057  15.051  14.356   3.880 -0.0594 -0.4095 -0.0965
29210W        W46058   7.861   7.861  14.323 -0.1617 -0.0043  0.1658
29211W        W46059   3.477   9.229  13.796 -0.1571  0.0800 -0.0024
29212W        W46060   7.928   3.478   1.672 -0.2820  0.1601  0.2170
29213W        W46061  14.268   6.029   2.274  0.0299  0.0669 -0.0693
29214W        W46062   2.960  10.092  13.205 -0.0677 -0.1583  0.0601
29215W        W46063   7.368   7.588  13.438 -0.2564  0.1251 -0.2953
29216W        W46064   0.504  10.022  13.838 -0.0041  0.1666  0.0140
29217W        W46065  11.931   8.475   0.190  0.1304  0.0055 -0.0559
29218W        W46066  11.432  13.522  13.022  0.3347 -0.0512 -0.1090
29219W        W46067   5.272  12.641   1.584  0.0938  0.2707 -0.2070
29220W        W46068   6.957   5.237   1.712 -0.1754  0.0340  0.1314
29221W        W46069  15.466   7.154  15.347  0.0295 -0.2044  0.0876
29222W        W46070   3.729  11.815   2.884  0.0169 -0.0172 -0.1691
29223W        W46071   0.048  13.465   3.499 -0.0229  0.0554 -0.0771
29224W        W46072  14.251  12.213  14.605 -0.1050 -0.0260 -0.1784
29225W        W46073  12.846   1.579  16.627  0.1219 -0.1995 -0.1539
29226W        W46074   0.763   7.041   3.049 -0.1517 -0.0783 -0.0757
29227W        W46075  14.008  14.325   4.896  0.3296 -0.2657 -0.3391
29228W        W46076   1.743   4.082  13.588 -0.1420  0.1302  0.1212
29229W        W46077  12.515   6.980   0.175 -0.0115  0.0916  0.1196
29230W        W46078   1.511   0.761  12.684 -0.0177 -0.0761 -0.0420
29231W        W46079   4.422   9.109  13.953  0.1340 -0.0119  0.1403
29232W        W46080  14.765  11.859  14.292  0.0892 -0.0642  0.0632
29233W        W46081   1.446  13.202  15.290  0.1036  0.0203  0.6598
29234W        W46082   7.198   9.756   2.383 -0.1664  0.1156 -0.1464
29235W        W46083   0.668   1.534   5.398  0.4173 -0.0682  0.3746
29236W        W46084   0.043  14.426  10.854  0.1202  0.3336 -0.2423
29237W        W46085  14.550   4.250  12.128 -0.2508  0.0550 -0.3537
29238W        W46086   2.481   3.464  11.964 -0.0901 -0.1053  0.0388
29239W        W46087   6.745   6.533   4.634 -0.0665  0.2666  0.0908
29240W        W46088   2.499  16.518   1.853 -0.0319 -0.3707  0.1342
29241W        W46089   6.873   4.316   6.039  0.1189  0.0676 -0.3252
29242W        W46090   9.970   4.009   1.418  0.2095  0.1549  0.1095
29243W        W46091   5.548   6.485   1.437  0.1238 -0.0505 -0.0115
29244W        W46092   9.377   3.079  13.164 -0.2219 -0.1032 -0.0978
29245W        W46093  11.287   8.982  14.249 -0.0702  0.0580 -0.2429
29246W        W46094  11.381   1.388  16.112 -0.0330 -0.0039  0.1370
29247W        W46095   8.455   6.155  12.106  0.0068  0.0512 -0.2435
29248W        W46096   1.029   6.485   3.280  0.0558 -0.1880 -0.1942
29249W        W46097   7.717  13.370  14.976 -0.0495 -0.2857 -0.0020
29250W        W46098   0.868   6.388  14.213  0.3896 -0.0698  0.0717
29251W        W46099   9.991  16.730  12.352  0.0307 -0.1087 -0.1320
29252W        W46100   0.659  15.343  15.818 -0.2158 -0.1118  0.1602
29253W        W46101   3.504   8.204  12.278  0.2681 -0.4944  0.2407
29254W        W46102   3.404   4.353   1.911 -0.1491 -0.1016 -0.2073
29255W        W46103   0.589   1.740  12.042  0.1534 -0.1813  0.2286
29256W        W46104   5.883  10.511   1.939 -0.0913  0.3489 -0.0256
29257W        W46105   5.407   1.815   2.113  0.1422  0.0217 -0.3108
29258W        W46106   8.212   5.750  11.832  0.0745 -0.0725 -0.2709
29259W        W46107   9.707   0.913  11.506 -0.1372  0.1054 -0.4770
29260W        W46108   1.460   6.446  15.279 -0.0429  0.1802 -0.1573
29261W        W46109  11.858   6.492  14.364 -0.0938  0.1546 -0.0091
29262W        W46110   8.317  17.102   2.109 -0.0573 -0.0532  0.0718
29263W        W46111  13.236   3.672   2.068 -0.2412 -0.1506 -0.1227
29264W        W46112  12.266   5.570  15.136 -0.3052  0.0564  0.0990
29265W        W46113   4.208   7.489  15.066 -0.1176 -0.0062 -0.1699
29266W        W46114  13.986   9.684  11.712  0.2482 -0.0440 -0.3562
29267W        W46115   1.682   6.973  13.128  0.1430  0.0125  0.2053
29268W        W46116   9.669  15.220   4.988  0.0702 -0.0223 -0.0834
29269W        W46117   4.471  14.206  12.324 -0.1017  0.3705 -0.3483
29270W        W46118  12.454   7.486  15.832 -0.0979  0.0077  0.3434
29271W        W46119  14.525   6.688  13.149  0.4504 -0.0754 -0.0712
29272W        W46120   2.456   9.487   2.164 -0.2589 -0.3818  0.0187
29273W        W46121  13.311  14.352   0.552 -0.2231  0.1418  0.1150
29274W        W46122   6.148   7.471  12.969  0.0138  0.0380 -0.0920
29275W        W46123   0.191   0.311   3.540 -0.1308 -0.0567 -0.0264
29276W        W46124   4.256  12.615   4.401  0.0677 -0.0733 -0.0854
29277W        W46125  11.133   2.457   5.462 -0.0199  0.0365  0.1078
29278W        W46126   8.001   9.009   1.622 -0.0623  0.1742  0.2167
29279W        W46127   5.085   4.455   0.270  0.3286 -0.4254 -0.1410
29280W        W46128   9.412   2.673   2.591  0.1460 -0.2334  0.1305
29281W        W46129  15.782  16.990  13.768 -0.0714 -0.0617  0.4343
29282W        W46130  15.706   8.761  11.592 -0.3265 -0.0340 -0.1820
29283W        W46131   0.136  15.603   3.999 -0.4512  0.0580  0.1963
29284W        W46132  16.110   2.281   3.886 -0.1758 -0.2707  0.3313
29285W        W46133   5.049   1.290  15.662 -0.1314 -0.0346 -0.0159
29286W        W46134   5.693   8.220   1.082  0.1748  0.0043 -0.2207
29287W        W46135  16.267  15.766   3.348 -0.1842  0.2139 -0.4090
29288W        W46136   9.440   3.707   5.265 -0.3878  0.0419  0.0434
29289W        W46137  15.567   9.173  12.538 -0.1353  0.0041 -0.0154
29290W        W46138   0.373   6.580  14.368 -0.1522  0.1481 -0.2571
29291W        W46139   3.709   0.622   1.344  0.0679 -0.0434  0.2763
29292W        W46140   5.190  12.360  14.688 -0.0089  0.0734 -0.0331
29293W        W46141   0.133  13.717   1.682 -0.0433  0.1600  0.0397
29294W        W46142   2.651   6.966   1.866  0.4405 -0.0751  0.1689
29295W        W46143   6.121   3.555   1.671  0.2126  0.0628 -0.2050
29296W        W46144  14.487   3.879  14.861  0.3325 -0.2416 -0.2675
29297W        W46145   8.741  13.977   5.364  0.1221 -0.0507  0.0300
29298W        W46146  11.645  12.262  13.298  0.2293  0.0239  0.0709
29299W        W46147   7.330  15.608  16.531 -0.0313  0.2605  0.0806
29300W        W46148   0.474   4.773   2.576 -0.0293 -0.2659 -0.3523
29301W        W46149  17.058   7.326  14.800  0.2292 -0.1053 -0.1208
29302W        W46150   2.681  15.814   4.650  0.0027 -0.0645 -0.6950
29303W        W46151   8.570  13.647   4.921 -0.2397  0.1781 -0.1250
29304W        W46152   5.952   7.103   1.312  0.0814 -0.2529 -0.1017
29305W        W46153   3.970  14.109  11.606 -0.0301  0.0135 -0.3089
29306W        W46154   0.124  11.127   2.766  0.2340  0.1389  0.0505
29307W        W46155   2.655   1.110  13.813 -0.1616 -0.1693  0.0412
29308W        W46156   8.521   1.900   1.255  0.1535 -0.1854 -0.0538
29309W        W46157   3.630   5.076   3.316 -0.1451  0.2048 -0.0742
29310W        W46158  16.634   1.384   3.719 -0.0203 -0.2861  0.0527
29311W        W46159   7.185   2.996   0.057  0.0764 -0.0255  0.1181
29312W        W46160  12.644   4.433   4.081  0.1467 -0.1249  0.2132
29313W        W46161   9.796  14.311   2.805 -0.1222 -0.2737  0.2370
29314W        W46162   5.995   1.175  13.853  0.0807  0.1149 -0.0286
29315W        W46163   5.774   0.416   1.675  0.0398  0.1015 -0.0919
29316W        W46164  17.376  14.030  13.507  0.2102  0.0819  0.2393
29317W        W46165   1.427   8.517   2.350  0.0686 -0.0899 -0.0113
29318W        W46166  10.827   4.956  16.107  0.0580  0.1276  0.2267
29319W        W46167  13.967   9.845  12.364  0.2766  0.0039  0.1687
29320W        W46168   2.057   4.745  12.731  0.0628  0.0885 -0.1510
29321W        W46169  12.468   9.504   3.395  0.1493  0.0486 -0.0228
29322W        W46170  11.335  16.555  12.214  0.0358 -0.1126 -0.0434
29323W        W46171   6.994  14.221   1.980 -0.0327  0.0132 -0.2332
29324W        W46172  11.430  10.389  11.765 -0.0764 -0.2368  0.2753
29325W        W46173  17.442  10.739  11.450 -0.0215  0.1300  0.0456
29326W        W46174   1.403  17.288   2.646  0.0022 -0.1532 -0.1195
29327W        W46175   4.661   8.547  16.168 -0.1524 -0.0425  0.0030
29328W        W46176   2.593   5.877   5.283  0.3191  0.0005  0.0793
29329W        W46177   7.633  13.638  15.389  0.0475  0.1761 -0.0256
29330W        W46178  11.713  15.330   1.721 -0.2234 -0.1605  0.1015
29331W        W46179  16.832   6.628  15.839 -0.1976  0.0995 -0.0431
29332W        W46180  11.515   3.378  11.481 -0.1243  0.0942  0.0650
29333W        W46181   3.169   4.684  15.737  0.0952  0.0170  0.0023
29334W        W46182   9.418  16.071   1.335  0.2484  0.1649 -0.0032
29335W        W46183   9.565   3.911   2.678  0.0094 -0.0117 -0.3175
29336W        W46184   0.379  14.756  13.916  0.3489  0.0066 -0.1084
29337W        W46185   6.004  10.508  12.333  0.0412  0.1879  0.1218
29338W        W46186  15.680   9.598   0.235 -0.0924 -0.2581 -0.2762
29339W        W46187   6.842   9.112   2.662  0.1317 -0.0289 -0.0345
29340W        W46188  14.195  15.568   0.163 -0.3473 -0.0362 -0.0759
29341W        W46189   7.164   1.257   3.874  0.1747 -0.1145  0.0881
29342W        W46190   3.731  17.538  15.956 -0.0562 -0.0496  0.0038
29343W        W46191   4.504   6.272   1.745 -0.0632  0.2574 -0.1873
29344W        W46192   7.454   7.495  12.944 -0.4825 -0.0018 -0.2015
29345W        W46193   9.324  14.891   0.891 -0.0667  0.3384 -0.1930
29346W        W46194   9.942   8.372   0.980  0.1424  0.1666 -0.2485
29347W        W46195  10.298   6.195  14.962  0.2444 -0.0493  0.1503
29348W        W46196   4.493  10.619  12.234  0.3189  0.1414  0.2409
29349W        W46197  10.429   6.175   1.726 -0.0304 -0.0824 -0.1934
29350W        W46198  17.377  14.780   3.914  0.2108  0.1573 -0.0130
29351W        W46199   0.400   9.289   2.832  0.2809 -0.0668  0.0495
29352W        W46200   3.479  14.577  12.962  0.0483  0.1636  0.0114
29353W        W46201  11.269  13.017   4.933  0.2759 -0.0379 -0.0678
29354W        W46202   9.328   3.223   4.366  0.5896 -0.0046 -0.1285
29355W        W46203  17.281  17.163  11.586  0.0321  0.2468  0.3010
29356W        W46204   6.792   9.091  13.087  0.3340 -0.0877 -0.0838
29357W        W46205   8.924   3.858  13.848 -0.3184  0.0595 -0.1935
29358W        W46206   4.728  16.091  11.832  0.0821  0.0819  0.0067
29359W        W46207   7.597   2.098   1.914 -0.0669 -0.1364  0.0855
29360W        W46208   5.927  10.360  12.807 -0.0613  0.1456  0.0771
29361W        W46209   4.176  13.204  15.818 -0.1741 -0.2265  0.2778
29362W        W46210   5.787   6.820  14.000  0.1435 -0.0107  0.0121
29363W        W46211  16.224   7.424  13.449  0.2472  0.2141  0.2611
29364W        W46212   1.593   7.491  15.338 -0.3541 -0.2476 -0.0088
29365W        W46213   2.641  12.622  12.121  0.0226 -0.0485  0.1579
29366W        W46214   0.663   7.954   3.205  0.0347  0.0764 -0.0820
29367W        W46215   3.310   3.006   5.750  0.0122 -0.2159 -0.0947
29368W        W46216  17.461  10.161  13.554 -0.0966  0.1017 -0.1164
29369W        W46217   1.909  15.730  14.064 -0.2724  0.1317  0.0674
29370W        W46218   8.982  13.661  16.340 -0.0679 -0.0311  0.2766
29371W        W46219  10.246   6.311  12.985 -0.2041 -0.0857 -0.3019
29372W        W46220   2.791   7.748  14.529 -0.1633 -0.0092 -0.0169
29373W        W46221   1.734   1.009  13.125  0.0451  0.1493  0.0817
29374W        W46222   7.671   0.569   3.642  0.0242 -0.1229  0.1463
29375W        W46223  12.998   9.756   3.184 -0.0915  0.0864  0.4233
29376W        W46224  13.244  16.096  12.696 -0.0689  0.1085 -0.2381
29377W        W46225   5.966  15.778  14.291 -0.3519  0.0064  0.2640
29378W        W46226  14.662   9.074   2.126 -0.0258  0.0714  0.1457
29379W        W46227  17.065   5.881   2.358 -0.2031 -0.1636 -0.0617
29380W        W46228  17.542   8.569   3.183  0.1117  0.1712 -0.0056
29381W        W46229   7.505   7.641  11.525  0.0921  0.1187  0.4535
29382W        W46230   7.435   8.396   3.456 -0.0894  0.3290  0.0083
29383W        W46231   4.087   2.413  13.197  0.0159 -0.2250 -0.3909
29384W        W46232   4.225  16.064  15.380  0.0756  0.3092 -0.0038
29385W        W46233   8.207   5.874  13.173 -0.1943  0.0387  0.0378
29386W        W46234  15.972  17.444  13.794 -0.0145 -0.0892  0.1208
29387W        W46235   7.074  14.875  14.488 -0.1175 -0.3330  0.0036
29388W        W46236   7.920   3.751  14.689 -0.2320 -0.2710 -0.2137
29389W        W46237   7.038  14.740   5.724 -0.0809  0.0643 -0.0063
29390W        W46238   2.069   5.975  16.416  0.1980 -0.0517  0.0138
29391W        W46239   7.320   6.568   4.314  0.1522 -0.0379 -0.0920
29392W        W46240  10.196  12.761   3.305 -0.2394 -0.0436  0.0084
29393W        W46241  13.197  16.278   0.428 -0.2122 -0.3019  0.1525
29394W        W46242   3.749   6.924  12.151  0.2143  0.0790  0.2951
29395W        W46243  15.265  16.222  14.122 -0.0722 -0.1434  0.1316
29396W        W46244  10.830   3.090   0.981  0.0607 -0.0258  0.1958
29397W        W46245   0.553  11.653   3.335  0.0288 -0.3284  0.3025
29398W        W46246   2.754   7.680   4.154 -0.0023  0.2078  0.2134
29399W        W46247  12.618  13.141  11.440 -0.3405  0.0680 -0.2857
29400W        W46248  16.566   5.710  12.203  0.1260  0.1397  0.0409
29401W        W46249  14.787   9.487  12.975 -0.1997  0.4566 -0.0273
29402W        W46250  13.604  16.698  15.440  0.1571  0.0344 -0.0075
29403W        W46251  10.525  10.038  14.717  0.1363  0.2647 -0.0173
29404W        W46252   1.326   0.651   4.649 -0.4253  0.1647 -0.0580
29405W        W46253   5.444  12.140  10.962  0.0103 -0.2767 -0.0171
29406W        W46254   8.279  10.557  15.862  0.0948  0.1070 -0.0734
29407W        W46255   2.809   6.509  10.659 -0.2231  0.2343 -0.2665
29408W        W46256   8.686   5.417   0.062  0.1226  0.3287  0.0859
29409W        W46257  12.838  17.401   1.326 -0.1055  0.0399 -0.0364
29410W        W46258  12.388  15.258  15.213  0.0960  0.0896 -0.3090
29411W        W46259   5.666   5.594   3.442  0.2377 -0.0128  0.2773
29412W        W46260   9.318   2.261   0.805  0.0022  0.0289 -0.2435
29413W        W46261   7.288  13.959   6.063  0.0083 -0.0893 -0.0057
29414W        W46262  12.094   6.723   3.836 -0.1749  0.2334 -0.2647
29415W        W46263   5.540   3.272   0.946 -0.0275  0.1418  0.3638
29416W        W46264   3.853   2.956   2.568 -0.0217 -0.0868  0.1248
29417W        W46265  13.067  14.537  13.024  0.2228 -0.0357 -0.4994
29418W        W46266   0.380   6.640  15.449 -0.0088 -0.1682  0.1238
29419W        W46267  10.350  16.848  14.838  0.1783 -0.4356  0.0820
29420W        W46268   9.606   7.660   4.558  0.0882 -0.1627  0.1431
29421W        W46269   0.924  16.632  16.615 -0.2882 -0.0475 -0.2973
29422W        W46270   0.671   8.640   0.208  0.4354  0.0796 -0.1422
29423W        W46271  10.768  12.469   1.664  0.0428 -0.1885  0.1001
29424W        W46272   2.641  12.698  12.759  0.1620  0.0657  0.0350
29425W        W46273  17.676   2.768  13.868  0.0759  0.0961 -0.1161
29426W        W46274   0.711  13.533   0.988 -0.0725  0.0856  0.2985
29427W        W46275  14.210   7.345   0.535 -0.0022 -0.1702 -0.4940
29428W        W46276  10.213  14.922  16.022  0.1880  0.0046 -0.0195
29429W        W46277   5.402  12.038  11.464  0.3231 -0.1385 -0.0075
29430W        W46278  13.002  13.966   4.585  0.1967  0.0722 -0.0331
29431W        W46279   8.907  14.071  12.669  0.1066 -0.0756 -0.0347
29432W        W46280   1.966   6.224  13.826 -0.0079 -0.0540  0.0507
29433W        W46281   8.315  13.862  12.344 -0.2653 -0.2295 -0.1933
29434W        W46282   0.447  10.815   6.054 -0.1624  0.2346 -0.0452
29435W        W46283   4.431   2.318   1.356  0.1078  0.1528 -0.2122
29436W        W46284   4.295   0.389  16.513 -0.0224  0.0932 -0.0711
29437W        W46285   5.220   5.119   5.105  0.1209  0.1508 -0.1567
29438W        W46286  11.364  11.453   1.937  0.1695 -0.2836  0.1127
29439W        W46287   9.055   1.001  12.995  0.0807  0.0129  0.1507
29440W        W46288  10.281   1.945   5.813  0.0271  0.1686 -0.0077
29441W        W46289   6.777   7.047  11.962  0.0722 -0.1609 -0.1833
29442W        W46290   0.124   1.704   2.440  0.0080 -0.0063  0.1562
29443W        W46291  10.351   5.704  14.549 -0.0711  0.2179 -0.0675
29444W        W46292   5.045   6.661   3.170 -0.1695 -0.0661  0.0005
29445W        W46293   9.963  12.993  14.220 -0.0897 -0.1872 -0.2277
29446W        W46294   0.344  11.620  12.262  0.1180 -0.2055  0.2019
29447W        W46295   1.286   1.551  15.175 -0.0231 -0.0038 -0.1457
29448W        W46296  15.648   7.200  14.248 -0.1790  0.0648  0.0825
29449W        W46297   1.150   1.707   6.413 -0.4995  0.4505  0.1296
29450W        W46298   7.930   3.268  13.649 -0.2730  0.0004  0.0062
29451W        W46299  12.198  12.685   4.768  0.2636 -0.0654 -0.0793
29452W        W46300  16.458   6.256   5.017 -0.0609 -0.1423 -0.2950
29453W        W46301  15.644  15.110  15.670 -0.1456 -0.1342 -0.0878
29454W        W46302  10.547  10.568  10.619 -0.0330 -0.1036  0.4373
29455W        W46303   5.843  13.045   3.839  0.2321  0.1474 -0.0563
29456W        W46304   8.256   8.340   0.061  0.1385 -0.0478  0.1373
29457W        W46305   3.607   7.738   4.325  0.1657 -0.0698  0.1418
29458W        W46306  14.514  10.517   0.943  0.0269  0.2222 -0.1602
29459W        W46307   7.047   4.583  12.740  0.0099  0.2718  0.1350
29460W        W46308   7.502   6.531   0.341  0.2251  0.0640  0.1173
29461W        W46309   8.253   6.889  14.786  0.1390 -0.1928  0.3403
29462W        W46310   1.145  12.555  12.777  0.1331 -0.2307  0.2205
29463W        W46311  11.037  13.909  14.277  0.2180  0.2760 -0.1226
29464W        W46312   9.937  10.227   5.742  0.0218  0.0745 -0.1584
29465W        W46313   1.861   0.602   3.221 -0.0082  0.1862 -0.1421
29466W        W46314  16.692   9.895   1.200  0.0055 -0.1367  0.3634
29467W        W46315   5.824   7.666   3.245  0.1437  0.0586 -0.0172
29468W        W46316   5.232   1.677  13.860  0.0650  0.2542 -0.1272
29469W        W46317   8.627   5.946   0.362 -0.0908 -0.0283  0.1319
29470W        W46318   4.812   5.068   3.456 -0.1063  0.0026  0.1728
29471W        W46319   6.171   1.960  15.730 -0.0836 -0.1111  0.0264
29472W        W46320   2.286  10.366   4.204 -0.1991 -0.1348 -0.0386
29473W        W46321  16.997  15.117  13.111  0.2650 -0.1971  0.2489
29474W        W46322   3.167   2.219   2.409 -0.0477 -0.0083 -0.0149
29475W        W46323  13.457  16.280  14.696 -0.1871  0.0906  0.0087
29476W        W46324  12.563   3.346   3.528 -0.4128 -0.0041 -0.1728
29477W        W46325   3.042   3.461   0.440 -0.1065  0.1042 -0.2066
29478W        W46326   5.884   5.819   0.366 -0.3140 -0.2284 -0.2536
29479W        W46327  10.184  11.345  15.421  0.1597 -0.0593 -0.2531
29480W        W46328   3.567   5.436   5.211  0.0170 -0.1655 -0.0125
29481W        W46329   2.142   3.413  12.315  0.1664 -0.0968 -0.0850
29482W        W46330   3.765   6.142   2.389  0.1235  0.0082 -0.0428
29483W        W46331   6.312   5.012  12.332 -0.1886  0.0467  0.1225
29484W        W46332   8.642   1.580  14.755  0.0960  0.1665  0.1867
29485W        W46333   4.715  10.721  15.189 -0.2103 -0.1636  0.0672
29486W        W46334   4.315  11.615   3.145 -0.1508  0.2105 -0.2106
29487W        W46335  10.304  14.866  11.928  0.0204  0.2214  0.1205
29488W        W46336   6.794   7.444   3.252  0.1090  0.1736 -0.2306
29489W        W46337  11.376  13.939  13.878  0.1478  0.1821  0.2436
29490W        W46338   4.470  16.125  12.311 -0.2698 -0.0918 -0.0602
29491W        W46339  15.109  15.004  15.367  0.3026  0.1190 -0.2133
29492W        W46340   5.206  14.224  15.639  0.1268 -0.1473  0.1446
29493W        W46341  17.494   6.229  15.008 -0.0193 -0.2765  0.1757
29494W        W46342   5.969  15.297  13.099  0.5595 -0.0007  0.2785
29495W        W46343   4.334   7.621  12.043  0.0411  0.3272 -0.0635
29496W        W46344  13.393   0.336  13.855 -0.0477  0.0587 -0.0421
29497W        W46345   1.697   3.295   3.681 -0.0572 -0.1477 -0.1256
29498W        W46346  15.458   6.307  13.032 -0.0028  0.1985 -0.3202
29499W        W46347   1.166  13.092  11.313 -0.1175  0.1828  0.0594
29500W        W46348  16.902   4.214  13.007 -0.0732  0.1190 -0.1660
29501W        W46349  12.328  15.583   4.098  0.2032  0.0711  0.0093
29502W        W46350   2.434  16.521  13.857 -0.0774  0.1520  0.0001
29503W        W46351  12.794   9.099  12.221  0.1035  0.0605 -0.1111
29504W        W46352  16.116  10.737   4.171  0.1443  0.2330 -0.0152
29505W        W46353   1.869   5.210  12.501  0.0612 -0.0790 -0.4073
29506W        W46354   7.806   3.957  12.393  0.1778 -0.0245 -0.2623
29507W        W46355   8.564   5.777  13.680  0.1867 -0.0789  0.1090
29508W        W46356   2.039  11.242  12.165  0.0872  0.1656  0.1222
29509W        W46357  14.555   1.078  12.450  0.2319 -0.0159  0.0910
29510W        W46358   5.998   0.645   3.829  0.0778  0.4607 -0.1351
29511W        W46359  16.061   8.302   1.223 -0.0351  0.3428  0.0979
29512W        W46360  12.990   5.940  15.690 -0.0349 -0.0774 -0.2679
29513W        W46361   5.923   9.117   4.697 -0.0230  0.1457 -0.1487
29514W        W46362   5.029  17.596   1.425  0.0116  0.0328  0.0139
29515W        W46363  11.115   5.513  15.767  0.0987 -0.0276  0.1203
29516W        W46364   2.995   7.603   0.105  0.1720  0.1057  0.1096
29517W        W46365   3.155   0.397   3.063  0.1930  0.1258 -0.1709
29518W        W46366   6.576   3.505  15.446 -0.2069 -0.0570 -0.1499
29519W        W46367   5.897   5.507  13.960 -0.1933  0.0318 -0.0756
29520W        W46368  10.907   7.002  12.214 -0.0208  0.1715  0.2078
29521W        W46369   4.311   0.862  16.610 -0.0505 -0.3051  0.1379
29522W        W46370  16.030  14.949  10.470  0.0079 -0.1456 -0.1016
29523W        W46371   5.234  12.016   2.171 -0.1422  0.0015 -0.2077
29524W        W46372  11.927   2.177  15.125  0.1167  0.2752  0.0200
29525W        W46373  10.574   6.798   1.717  0.0830  0.0131  0.2350
29526W        W46374   4.056  10.089   2.598  0.2538 -0.1012  0.2535
29527W        W46375  14.162   3.884  10.899  0.1443 -0.2760 -0.1210
29528W        W46376   6.764  12.029   2.490  0.0474  0.0916  0.0006
29529W        W46377   3.276   2.289  13.908 -0.1595  0.2924  0.2477
29530W        W46378  12.500  17.418  12.267 -0.0446  0.0901 -0.0397
29531W        W46379   0.505   1.276   1.637  0.0002 -0.1554  0.1975
29532W        W46380  12.140   8.008  10.621 -0.3201 -0.2097 -0.0274
29533W        W46381   3.457   5.779   3.743  0.0054  0.1545  0.0036
29534W        W46382   3.087  15.603   4.429 -0.1341  0.1768 -0.2301
29535W        W46383   2.001  12.173   1.982 -0.4354 -0.0005 -0.1071
29536W        W46384   9.859   6.412  13.261  0.1318  0.2312  0.1109
29537W        W46385   6.344  15.278  12.664  0.1074  0.4562  0.1921
29538W        W46386   5.075  12.056  15.090 -0.0388  0.2275 -0.0710
29539W        W46387  12.835   5.029   3.510  0.1257  0.2023 -0.0970
29540W        W46388  11.200   1.423   1.489 -0.0094 -0.0786  0.0530
29541W        W46389   0.548  14.731  11.589  0.1567 -0.1701 -0.1964
29542W        W46390  14.508  12.259  11.065  0.0445  0.1781 -0.1536
29543W        W46391  13.162   9.947  12.588  0.0968 -0.1760  0.1858
29544W        W46392   2.392   5.614   4.867 -0.1296 -0.3298  0.3330
29545W        W46393   8.966   1.860  13.435  0.0847 -0.0106  0.1239
29546W        W46394   7.416   8.917   1.658  0.0625 -0.0181  0.1384
29547W        W46395   1.196  14.785  14.633  0.0039 -0.1320  0.0697
29548W        W46396  10.341   1.392   1.475  0.0097 -0.1559  0.1366
29549W        W46397   4.139   6.709  11.922 -0.2374  0.1667 -0.0779
29550W        W46398   6.939   6.196  16.302  0.2274  0.1641 -0.0722
29551W        W46399   8.208   1.619  15.366 -0.1246 -0.4341  0.1338
29552W        W46400   8.424  11.738  16.236  0.0901  0.3533 -0.1379
29553W        W46401  17.358   4.980   4.192  0.1168  0.3200 -0.3265
29554W        W46402   1.917   7.088   6.295  0.1102  0.3856 -0.1111
29555W        W46403   9.764   7.225   4.760 -0.2740 -0.0908 -0.0267
29556W        W46404  11.653   3.360  12.448  0.2214 -0.0222 -0.1034
29557W        W46405   7.131  11.441   3.509  0.2086  0.0262  0.1321
29558W        W46406   1.328   1.200  11.928  0.0329 -0.0567 -0.6208
29559W        W46407  16.197  12.606   1.791 -0.0542 -0.2773  0.0811
29560W        W46408   5.489   1.739  12.716 -0.0562  0.1775  0.1037
29561W        W46409   2.290  13.259  13.877 -0.1233 -0.0556 -0.0723
29562W        W46410   9.983  13.342  14.732  0.1880  0.0863 -0.1418
29563W        W46411   8.251   3.393   2.092  0.0905 -0.5676 -0.0898
29564W        W46412  12.215   6.213  15.671 -0.1025 -0.0257  0.2817
29565W        W46413   1.804  14.988   1.194  0.1747 -0.1128 -0.0297
29566W        W46414   6.609  14.137   1.614  0.2835  0.1715 -0.2363
29567W        W46415   6.353  10.753   2.627 -0.1317 -0.0787  0.0670
29568W        W46416   2.351   1.101   3.927 -0.0647 -0.1066 -0.0050
29569W        W46417   0.566   2.902   3.019 -0.1950  0.0298  0.2724
29570W        W46418  10.605   6.551  15.240 -0.1189  0.1538  0.3048
29571W        W46419  13.528   4.463   4.037  0.0912 -0.0607 -0.0191
29572W        W46420   9.729  16.104  14.934 -0.2790  0.0203 -0.0039
29573W        W46421  11.416   4.286  13.459 -0.2188  0.1329  0.0340
29574W        W46422   7.672   5.742  15.504  0.1776  0.0209 -0.1435
29575W        W46423   3.113  10.118  13.681  0.0954 -0.1321 -0.2318
29576W        W46424  10.017  17.574  11.747 -0.0423  0.1729  0.1632
29577W        W46425   1.763  11.791   2.772 -0.0822 -0.2173  0.1546
29578W        W46426  17.631  16.636   4.874  0.2276 -0.0299 -0.1523
29579W        W46427  14.588   9.972   3.679 -0.1146  0.2430 -0.0826
29580W        W46428   2.227  10.719  13.216  0.0468  0.1138  0.0786
29581W        W46429   0.936   1.390   2.630 -0.1277  0.1827 -0.0087
29582W        W46430   5.784  15.199   0.865  0.2170  0.0981 -0.0086
29583W        W46431   0.143  13.272  14.980  0.0734  0.0237 -0.1950
29584W        W46432   0.274   6.592  13.128  0.2040  0.1082 -0.0600
29585W        W46433   8.252  11.714   4.267  0.0705  0.2704 -0.3459
29586W        W46434   7.743  13.886   4.368  0.0133 -0.0735  0.2762
29587W        W46435   1.369   8.394   1.401 -0.4323 -0.1913 -0.2829
29588W        W46436  10.338   3.518   2.917  0.0962 -0.0466  0.5732
29589W        W46437   1.203  16.680  15.316  0.0412 -0.2410 -0.0565
29590W        W46438  14.275   4.043   2.445 -0.0258  0.0989  0.1068
29591W        W46439  12.284   5.914   2.309 -0.2476  0.1128  0.2241
29592W        W46440   9.559   7.135   0.453  0.1999  0.0938 -0.2130
29593W        W46441  14.686  17.040  12.998  0.0324 -0.0787  0.3467
29594W        W46442   2.391  17.046   4.604  0.1857 -0.0691  0.2937
29595W        W46443  10.718  14.278   2.206 -0.1504  0.1515  0.3832
29596W        W46444   6.937  12.738  13.119  0.0886 -0.2615  0.1993
29597W        W46445   7.864  16.545  13.063 -0.1783 -0.1051 -0.1129
29598W        W46446   0.000  11.679  14.587 -0.0893  0.0124  0.1428
29599W        W46447   9.822   5.329   3.689  0.3100 -0.1816 -0.0475
29600W        W46448  16.905   6.467  11.556  0.4697  0.0817  0.1851
29601W        W46449  15.560   1.738  14.344 -0.1163 -0.3124  0.2019
29602W        W46450   7.029  11.200   3.949 -0.0249 -0.1819  0.0886
29603W        W46451   2.857  10.174   2.094  0.1306  0.1612  0.0035
29604W        W46452   8.878  12.576  11.486 -0.0968 -0.4425  0.1253
29605W        W46453  10.694  10.022   1.716  0.0965  0.1558  0.1184
29606W        W46454   4.472  16.854   2.633 -0.2659 -0.2665  0.0399
29607W        W46455  16.539   6.654   2.197 -0.0884 -0.2418  0.0201
29608W        W46456  12.617  12.074   4.105 -0.1429 -0.0638 -0.3350
29609W        W46457  16.772  15.244   1.584  0.1068  0.1288 -0.2114
29610W        W46458  11.641   6.467   3.961  0.0117  0.0426 -0.0495
29611W        W46459   9.449   0.676   3.958  0.0182  0.1010 -0.3165
29612W        W46460   2.532   5.340   2.173 -0.1354  0.0763  0.1822
29613W        W46461   8.950   1.958   5.363 -0.0809  0.0555  0.2914
29614W        W46462   5.743   5.631  12.564  0.0537  0.1202  0.1906
29615W        W46463  17.438  16.917  13.408 -0.0397  0.2279 -0.0463
29616W        W46464   6.978   7.003  14.903  0.2993  0.1133  0.0444
29617W        W46465  12.771   4.149   4.590  0.1063 -0.3567 -0.1882
29618W        W46466  16.239  11.776  15.559  0.2603  0.1535 -0.0850
29619W        W46467   3.849  12.226  10.821 -0.0010  0.2053 -0.0897
29620W        W46468   7.511   4.749   4.667 -0.1285 -0.0345 -0.2041
29621W        W46469  10.032   4.746  14.450  0.4161  0.1597  0.0332
29622W        W46470  14.857   0.549   2.534  0.2590 -0.2944  0.4401
29623W        W46471  13.624   5.430   1.901 -0.0854 -0.1183 -0.0602
29624W        W46472   7.561   4.555  12.539  0.0038  0.1276  0.1275
29625W        W46473   8.110  13.614   0.182 -0.1032 -0.3155  0.1244
29626W        W46474   6.044  15.938   5.369  0.2475  0.0354  0.0071
29627W        W46475  16.436  15.917   4.782  0.0848  0.3735 -0.2227
29628W        W46476   0.690   1.967   0.805 -0.3162 -0.1861 -0.2041
29629W        W46477   2.730   8.556  14.549 -0.3158  0.1404 -0.0085
29630W        W46478  11.196   1.184   4.050 -0.1015  0.0245 -0.0296
29631W        W46479   1.175  15.412  12.853 -0.1703  0.0652 -0.0307
29632W        W46480   0.999   1.040   4.805  0.1904 -0.2141  0.0547
29633W        W46481   2.364  16.078   4.386  0.1156 -0.1489 -0.2188
29634W        W46482  13.004   4.089   1.218  0.2317  0.1277 -0.0501
29635W        W46483   2.827  13.427  12.259  0.1674  0.0362  0.1058
29636W        W46484  15.868   3.854   2.555 -0.0883 -0.0550  0.1258
29637W        W46485   0.290  12.072   2.771 -0.0477  0.0261  0.0508
29638W        W46486   2.430   1.408   0.816 -0.0244  0.1734 -0.0949
29639W        W46487   6.139  14.444   6.617 -0.0273  0.0893  0.3837
29640W        W46488   0.792   9.820  12.280 -0.0528 -0.0806  0.0184
29641W        W46489  14.624  14.367   3.610  0.2384 -0.0771  0.1116
29642W        W46490   5.187   9.567   3.218 -0.3716 -0.2178  0.0045
29643W        W46491   0.491  13.018   2.544  0.0013 -0.0011  0.0546
29644W        W46492   7.584  15.641  14.735 -0.3549  0.1090  0.0205
29645W        W46493   5.108  11.583   1.507 -0.1799  0.2041  0.1433
29646W        W46494   1.244   7.943  11.952 -0.2152  0.1024 -0.1987
29647W        W46495  11.383  10.355   1.296 -0.2309 -0.1199 -0.3405
29648W        W46496   9.555  13.086   2.588  0.0725 -0.0491 -0.2494
29649W        W46497   7.675   5.387  12.811  0.0374  0.2349  0.0461
29650W        W46498   1.024   9.451  14.401  0.0070 -0.2661  0.0742
29651W        W46499   9.993   2.563  14.279  0.0254  0.3440  0.1477
29652W        W46500  15.244  14.641   2.329 -0.0895  0.2457 -0.0641
29653W        W46501  11.291  13.034  13.019  0.0491 -0.1484  0.2718
29654W        W46502  17.263  11.934  14.803 -0.1898 -0.1179 -0.0245
29655W        W46503   8.445   2.010  13.472  0.1041 -0.0924 -0.1071
29656W        W46504   5.982  14.752   4.820 -0.2095  0.0385  0.1474
29657W        W46505   4.063  15.997  14.816  0.0536  0.2339  0.0657
29658W        W46506  12.337   0.650  14.607  0.1819 -0.1606 -0.1381
29659W        W46507   7.200   0.682  14.252 -0.0013 -0.2036  0.0782
29660W        W46508   1.132   0.372   4.107  0.1919  0.1890 -0.0165
29661W        W46509  14.970  12.583  15.686 -0.0162  0.2089 -0.1449
29662W        W46510  15.385   8.016  14.426 -0.1854  0.0989 -0.1850
29663W        W46511  14.507   5.548   5.269 -0.1649  0.4123 -0.0072
29664W        W46512  11.947  15.362  12.815  0.0895  0.0936  0.0282
29665W        W46513  15.180  15.552   2.697 -0.3736 -0.0183  0.1709
29666W        W46514   3.106  10.387   1.337 -0.0398 -0.0840  0.0174
29667W        W46515  17.664   2.986   5.379  0.0970 -0.3874  0.0853
29668W        W46516  17.487  17.143  12.519  0.1949 -0.0875  0.2008
29669W        W46517   5.059  10.302  15.091  0.0569 -0.4841 -0.1265
29670W        W46518   2.997   6.985  11.887 -0.1687  0.0907  0.0321
29671W        W46519  13.398  14.298  13.323 -0.0006 -0.2381  0.1186
29672W        W46520   2.353   0.093   0.011 -0.0595  0.1604 -0.0559
29673W        W46521   5.835   4.941  13.162 -0.3410 -0.0624 -0.1724
29674W        W46522  16.093  17.458   5.899 -0.0048 -0.2175 -0.0354
29675W        W46523   3.180  12.627   0.682  0.0671 -0.2244  0.1080
29676W        W46524   1.689   3.878  14.369  0.0310  0.0811 -0.4626
29677W        W46525   4.182  13.728   3.216 -0.1495 -0.0220  0.1469
29678W        W46526  10.008   2.962  15.882 -0.4851 -0.2216 -0.0806
29679W        W46527   9.365   4.145   2.299 -0.0536 -0.0379  0.1334
29680W        W46528   5.463   1.630  13.422  0.0392  0.0538 -0.0901
29681W        W46529   2.789  12.074   1.340  0.1549 -0.0731 -0.2798
29682W        W46530  16.303   8.105   4.307 -0.0675 -0.0463 -0.0085
29683W        W46531   1.176   1.281   0.526  0.0080  0.0652 -0.1602
29684W        W46532   6.270  10.024  13.688  0.0455 -0.1075  0.2678
29685W        W46533   5.866   0.826  15.561  0.0525  0.0110  0.1250
29686W        W46534  16.732   5.668   2.823 -0.1225  0.1389  0.2878
29687W        W46535   1.550   0.377   0.889  0.1581  0.1758 -0.1677
29688W        W46536   8.781  10.675   0.926 -0.3180 -0.1302 -0.1654
29689W        W46537   8.951  13.733   2.947  0.0401 -0.0778 -0.0130
29690W        W46538   9.618   9.827  16.274  0.1831 -0.0468  0.0394
29691W        W46539   0.017   2.312   3.615  0.2485 -0.0347 -0.1415
29692W        W46540  17.580  12.585  11.922  0.1153  0.1085 -0.0882
29693W        W46541   7.737   6.509  16.443 -0.0899  0.2004  0.1261
29694W        W46542   4.277  17.634   1.160 -0.0734 -0.3837 -0.0170
29695W        W46543   0.198   7.903   4.002  0.0834 -0.0193  0.0228
29696W        W46544   5.865  17.075  11.743 -0.5403 -0.1919 -0.0490
29697W        W46545  14.152   9.846  11.259 -0.2693 -0.0026  0.0190
29698W        W46546   4.281   7.565  12.632  0.1794 -0.1847  0.5289
29699W        W46547  16.721  13.700  14.654  0.0257 -0.2298 -0.0158
29700W        W46548  11.740  16.579   0.258  0.1312 -0.0283 -0.3165
29701W        W46549   1.156  13.552   4.930  0.1127 -0.2481 -0.0987
29702W        W46550   7.149  10.322  13.176  0.0714 -0.2514  0.0868
29703W        W46551   4.096  15.276  16.615  0.1964 -0.2798 -0.1863
29704W        W46552  10.028   9.111  11.495 -0.1696 -0.0410  0.0721
29705W        W46553   9.102  12.865   4.464  0.0294 -0.0088  0.0255
29706W        W46554   3.978   4.665   3.308 -0.0102 -0.1232 -0.2066
29707W        W46555  14.229   9.929   1.636 -0.0573 -0.1171 -0.0688
29708W        W46556  17.560  14.982   6.061  0.2381  0.0157  0.0898
29709W        W46557   7.918  14.434   2.507  0.0838 -0.0012 -0.1086
29710W        W46558   2.327  16.511  12.533  0.1116 -0.0789 -0.1106
29711W        W46559  10.677   1.740  14.742 -0.1696  0.2559 -0.1506
29712W        W46560  10.477   3.424  16.021 -0.0816 -0.0876 -0.1817
29713W        W46561  12.210   5.219   5.760 -0.1908  0.2169  0.1765
29714W        W46562   5.140  15.022   2.174  0.1664  0.0582  0.1796
29715W        W46563  10.679   9.024   4.783 -0.1309 -0.0384 -0.0068
29716W        W46564   0.972   9.277   1.735 -0.1882  0.4999  0.1110
29717W        W46565   9.195   4.126   3.498  0.2026  0.0413  0.0433
29718W        W46566  15.738   1.427   2.257 -0.1658  0.1336 -0.0661
29719W        W46567   8.146   4.032  13.320 -0.1791  0.0181 -0.0275
29720W        W46568  10.074  17.164  12.120  0.1514 -0.0685  0.2529
29721W        W46569  13.848   3.507   2.915  0.1386 -0.4550  0.1854
29722W        W46570  12.812  16.700  15.212 -0.1245  0.1964 -0.0845
29723W        W46571  15.986  10.792  11.455  0.1736  0.0864  0.1132
29724W        W46572   0.712   4.158   2.551 -0.1685  0.0773  0.3042
29725W        W46573   8.136  15.752   4.482 -0.0664  0.1468  0.0074
29726W        W46574  11.825  12.516   6.046  0.0584 -0.1135 -0.0084
29727W        W46575   3.401  10.563   5.597 -0.0394  0.0060  0.1920
29728W        W46576   1.048   5.799  13.491 -0.1478  0.0353  0.1116
29729W        W46577   6.799  12.399  16.378  0.0862  0.1829 -0.0910
29730W        W46578   6.992   4.785  13.832  0.0949 -0.0125  0.0689
29731W        W46579  14.778  12.501   3.666 -0.1619  0.0697 -0.0313
29732W        W46580   6.446   3.582  13.741 -0.1186  0.1095  0.1868
29733W        W46581   2.007  15.013   3.537 -0.0197 -0.1646 -0.1832
29734W        W46582   6.637  12.648   1.656  0.0548 -0.0552 -0.0953
29735W        W46583  12.293  10.005   3.440 -0.3006  0.0085 -0.3002
29736W        W46584  17.666  13.014   5.260 -0.0801 -0.2008 -0.0436
29737W        W46585   5.658   4.806   2.305  0.1740  0.1621 -0.1057
29738W        W46586   7.497   5.246  15.625  0.0182 -0.1759 -0.0488
29739W        W46587   6.921   2.454  14.894  0.3000 -0.0712  0.1253
29740W        W46588  16.704  17.324   2.874  0.0729 -0.1066 -0.1896
29741W        W46589  14.539  10.979   2.106  0.2637  0.1985 -0.1882
29742W        W46590   9.260  17.294   2.637 -0.0438  0.1132 -0.0951
29743W        W46591   3.496  10.875   3.980 -0.1346  0.1660  0.2244
29744W        W46592  15.322   9.716  16.588  0.0633  0.0351 -0.2844
29745W        W46593   4.786   9.559   1.460 -0.0228  0.1098 -0.2309
29746W        W46594   5.767   7.500   0.330  0.0062 -0.2508  0.1517
29747W        W46595   6.196   6.091   4.960  0.2123 -0.2745  0.1330
29748W        W46596  14.775   8.738  15.105  0.0882  0.2141 -0.2372
29749W        W46597  15.271   8.199   0.127 -0.0139 -0.1667  0.1381
29750W        W46598   5.652   5.373   5.184 -0.0966  0.2555 -0.1888
29751W        W46599   4.313  10.943   1.468 -0.3723 -0.1631  0.0799
29752W        W46600  12.150  15.166  15.927 -0.1643  0.0508 -0.0776
29753W        W46601  17.053  13.214  12.469  0.1015 -0.2980 -0.2424
29754W        W46602   5.954   1.806  12.675 -0.0729 -0.1912 -0.3607
29755W        W46603  14.328  15.734  13.451 -0.3017  0.1051  0.0705
29756W        W46604  14.700   2.928  15.151 -0.1065  0.1566  0.1348
29757W        W46605   4.132  15.087  15.646 -0.0062  0.1366  0.1032
29758W        W46606  14.547  16.544  13.902  0.2036 -0.1488  0.4312
29759W        W46607  16.628   8.127   1.272  0.0820  0.1197  0.0545
29760W        W46608  14.204  13.322   1.790 -0.3125 -0.1641 -0.3690
29761W        W46609   7.724  13.396  16.618 -0.0138  0.3206 -0.2617
29762W        W46610  11.953  16.642   4.017  0.1241 -0.0859  0.2352
29763W        W46611   5.959  11.960   1.348 -0.4095  0.0271 -0.2626
29764W        W46612   1.097  17.529   5.477  0.2875 -0.1508 -0.0391
29765W        W46613   9.616   4.429  13.743 -0.1687 -0.4857 -0.3053
29766W        W46614  12.094  14.037  11.861 -0.1981 -0.3236  0.0031
29767W        W46615  10.654   6.379  13.434 -0.1361  0.1662 -0.3383
29768W        W46616  12.241   3.790   2.628 -0.2452 -0.1893 -0.0296
29769W        W46617  17.446   9.597  14.227  0.0215  0.0741 -0.2591
29770W        W46618  15.312  16.912  13.606  0.3228 -0.0056  0.0996
29771W        W46619   0.102  11.917  11.857 -0.2160  0.0319  0.2135
29772W        W46620   0.346   5.617   1.978  0.1842  0.1647 -0.1462
29773W        W46621  16.231   0.814  16.277  0.0272  0.1020  0.0995
29774W        W46622  10.668   1.946   3.665  0.1009  0.0164 -0.1020
29775W        W46623  14.528  14.667   1.065  0.1214  0.2570 -0.2379
29776W        W46624   7.475   2.610   0.473  0.0629  0.0219  0.0049
29777W        W46625  11.020  12.069  12.123 -0.1296 -0.4583 -0.0189
29778W        W46626   4.680  11.883   4.935 -0.0781 -0.0273 -0.1303
29779W        W46627   3.743  11.754  13.308  0.1977  0.1106  0.2777
29780W        W46628  12.204  12.210   0.117 -0.3017 -0.1446  0.0532
29781W        W46629   6.872   8.390   0.065 -0.1393  0.0731 -0.0076
29782W        W46630  14.036  15.928  12.172 -0.1647 -0.1301  0.0266
29783W        W46631   9.689  14.909  12.340 -0.3117 -0.0333 -0.3141
29784W        W46632   9.757   3.008   1.355  0.1433  0.2222 -0.0262
29785W        W46633   1.616  17.126  14.077  0.0860  0.1316 -0.1161
29786W        W46634  16.498   7.754   5.549 -0.1556  0.1227  0.0181
29787W        W46635   4.302   3.033  11.201  0.0167 -0.3271  0.1102
29788W        W46636   8.448  15.191  14.544  0.3092  0.0175  0.3194
29789W        W46637   4.830   8.549  11.807  0.0630  0.1607  0.0986
29790W        W46638   7.018   1.311  14.258  0.0841  0.0903 -0.1038
29791W        W46639  15.101  11.789  12.822 -0.2487  0.0317  0.1961
29792W        W46640  15.126  15.046  11.398 -0.0966 -0.0707  0.2512
29793W        W46641   4.009  16.438   2.912  0.0743 -0.3383  0.1120
29794W        W46642  16.561   4.940   3.045  0.1218 -0.2122  0.0347
29795W        W46643   4.242  17.142   1.125 -0.1518 -0.1943 -0.3980
29796W        W46644  13.114   8.591   1.292 -0.0054  0.1409 -0.0081
29797W        W46645  11.236  14.954   5.013  0.2800  0.2783 -0.0311
29798W        W46646  12.823  12.187   3.676 -0.0565  0.3075  0.0300
29799W        W46647   1.730   3.240   4.171  0.2582 -0.0931  0.1554
29800W        W46648   4.611  17.300  14.744  0.0360  0.1435  0.0393
29801W        W46649  14.880  12.660  16.486  0.3618 -0.5175  0.0147
29802W        W46650  15.096  16.170   2.825  0.1481 -0.0533  0.0100
29803W        W46651   6.073  16.469  15.531  0.1307 -0.1597  0.1737
29804W        W46652  16.727  16.009  16.282 -0.1977 -0.1678  0.5476
29805W        W46653   0.531   7.574   3.528 -0.2499  0.3240  0.0896
29806W        W46654  16.314   2.597   5.024  0.3637 -0.1832  0.0026
29807W        W46655  15.266  15.885   5.871 -0.0071 -0.2393  0.0759
29808W        W46656   0.503   5.900   6.149  0.1584 -0.0189 -0.0533
29809W        W46657  12.757  13.968   5.140  0.3001 -0.1348 -0.0748
29810W        W46658   1.668  11.552   2.109 -0.2184  0.0221  0.0119
29811W        W46659   3.649  14.847  13.872  0.0301  0.1387  0.1431
29812W        W46660  14.221   0.932  14.749 -0.3128  0.3862  0.3737
29813W        W46661   2.818   6.632  14.956 -0.0479 -0.1092 -0.0625
29814W        W46662   6.405   0.963   2.286  0.2774  0.1228 -0.0695
29815W        W46663  11.859  13.560  13.836  0.0931 -0.1683 -0.0269
29816W        W46664   8.121   6.870   1.056  0.0037  0.0725 -0.0332
29817W        W46665  11.642  16.662  15.967  0.3396 -0.0137  0.1709
29818W        W46666   9.649   7.865  14.310 -0.3314 -0.2074 -0.0917
29819W        W46667  11.532   9.669  13.196 -0.2240  0.0713  0.1069
29820W        W46668  11.193   7.304   4.842 -0.0030  0.0080  0.1430
29821W        W46669  10.573  13.228  13.577  0.1056  0.0982  0.0758
29822W        W46670   0.564   5.607   4.194  0.1540  0.3162 -0.0177
29823W        W46671  12.826   4.376  15.645 -0.0031 -0.0068  0.1320
29824W        W46672   4.456   2.311   1.988 -0.0034  0.0272 -0.0377
29825W        W46673  14.277   0.812  14.273  0.3539  0.1564 -0.0255
29826W        W46674   7.820   8.742  12.757 -0.3110 -0.1486  0.2844
29827W        W46675  16.463   2.160   0.778 -0.1526 -0.1747 -0.0499
29828W        W46676   2.839   3.992  13.366 -0.0026 -0.1282  0.0257
29829W        W46677   1.438   1.712   1.292 -0.0758  0.1430  0.3625
29830W        W46678   7.441   4.345   1.726 -0.0887 -0.0541  0.0290
29831W        W46679  15.387  15.949  11.574  0.0626 -0.0737 -0.1350
29832W        W46680  14.512   6.293  13.474  0.0639 -0.0615  0.0299
29833W        W46681  10.236   4.123  12.652  0.1259  0.1350  0.0866
29834W        W46682  15.474   8.970   5.009  0.0145  0.2523 -0.0022
29835W        W46683   0.778  16.994  14.301 -0.2602 -0.2733 -0.1454
29836W        W46684   8.591  13.909  14.227  0.3359  0.1200 -0.0350
29837W        W46685   2.594   2.307  13.425 -0.4229  0.2535 -0.2728
29838W        W46686   2.137   6.649  16.131 -0.1954 -0.2316 -0.1118
29839W        W46687  17.694  10.076  15.001 -0.1988  0.1652 -0.1958
29840W        W46688  17.495  13.895  16.156 -0.0703 -0.2674 -0.0952
29841W        W46689  10.944   6.783   5.314 -0.0906  0.1072  0.0778
29842W        W46690   1.206  15.043   2.598 -0.0236  0.1345 -0.2093
29843W        W46691   1.775  15.477   4.936  0.1260 -0.1639  0.1229
29844W        W46692   0.517  13.190  13.040 -0.0405 -0.0836 -0.0047
29845W        W46693  13.771   0.014   1.116  0.1245 -0.0544 -0.0211
29846W        W46694  12.450  11.387  13.826 -0.2850 -0.1160 -0.0583
29847W        W46695  10.219   5.520  13.352 -0.0584 -0.0213 -0.1690
29848W        W46696   5.145   4.043   2.946  0.2427  0.0346  0.1536
29849W        W46697  17.433  15.306   3.840 -0.1090 -0.1460 -0.1713
29850W        W46698   1.125  16.527   4.688  0.1103  0.1682  0.1126
29851W        W46699  10.463   8.173   3.575  0.3305 -0.0262 -0.1910
29852W        W46700  12.273  17.528   2.584 -0.1713 -0.2306 -0.0043
29853W        W46701   9.658   3.778  12.062  0.2142 -0.1356  0.0112
29854W        W46702  17.354   2.481  13.607  0.0631 -0.2550 -0.0324
29855W        W46703   7.236   4.820   1.710 -0.2913 -0.3341  0.1117
29856W        W46704   0.363   4.548  14.739 -0.1517  0.0132 -0.2382
29857W        W46705   6.283   9.937  16.537  0.1866 -0.1119 -0.3662
29858W        W46706   2.381   0.426  10.851 -0.0145  0.1738 -0.1179
29859W        W46707   1.928  13.296   2.812  0.4269 -0.1028  0.2077
29860W        W46708  17.391   3.964  11.147  0.2414  0.2250  0.1554
29861W        W46709  16.408   2.481  15.171  0.0349  0.0973 -0.1006
29862W        W46710   3.227   9.678  13.835 -0.1632 -0.1442 -0.0634
29863W        W46711   4.403   3.992  14.061 -0.0877 -0.1820 -0.0125
29864W        W46712   3.399   9.231  13.260 -0.0988 -0.1682 -0.0137
29865W        W46713   9.064  15.907   2.215  0.3198 -0.1071  0.0436
29866W        W46714   7.940   8.472   2.489  0.2035 -0.1723 -0.2517
29867W        W46715  10.871  11.453  14.720 -0.0581  0.0100  0.3723
29868W        W46716  15.962  12.749  13.807 -0.1055 -0.2734  0.2582
29869W        W46717  13.860   7.907  13.265 -0.0819  0.0013 -0.1409
29870W        W46718   1.644   8.410   0.950  0.1623  0.1300 -0.2975
29871W        W46719  17.215   9.673  14.669  0.3612  0.0023 -0.1264
29872W        W46720   0.292   3.454  15.771  0.1716 -0.0578  0.1604
29873W        W46721   1.421   8.546   2.949  0.1188  0.2334 -0.1149
29874W        W46722  15.933  10.479   2.410 -0.4068 -0.1591 -0.0622
29875W        W46723   6.622   5.037  16.215  0.0178  0.0884  0.2626
29876W        W46724   1.013   1.970   1.218 -0.0195  0.0574 -0.0778
29877W        W46725  16.452   2.041  12.029 -0.0745 -0.1843  0.0546
29878W        W46726   4.377  13.511   0.613  0.0964  0.1840  0.5452
29879W        W46727   0.580   9.569   1.572 -0.2244  0.1158 -0.0942
29880W        W46728   6.404   8.428  15.154 -0.6007  0.0677 -0.0044
29881W        W46729   1.556   4.878  13.967  0.1336  0.0662  0.1025
29882W        W46730   2.996   7.544   5.898 -0.0101 -0.0092 -0.0926
29883W        W46731  13.292  17.632   0.991 -0.0990 -0.3130 -0.0178
29884W        W46732  16.553  15.517  13.826  0.0279 -0.0234 -0.3959
29885W        W46733   5.328  12.896  13.325  0.0077 -0.0787 -0.0355
29886W        W46734  13.952  16.750   3.812  0.0913 -0.0156 -0.0965
29887W        W46735   2.197  12.610   2.173  0.0055 -0.0889 -0.1429
29888W        W46736  11.565  14.077  13.052 -0.0111  0.0895  0.3455
29889W        W46737   6.395   6.447   3.356 -0.1811 -0.0050  0.0648
29890W        W46738  12.086  15.394  14.017 -0.0698  0.3545  0.0614
29891W        W46739   6.457  13.310   0.367 -0.1200 -0.0351 -0.0561
29892W        W46740   4.243   8.717  13.648  0.0192 -0.0412 -0.0240
29893W        W46741  10.912   6.640  14.799  0.2478 -0.2159 -0.1601
29894W        W46742   5.271  10.471  13.519 -0.1362 -0.1910  0.4189
29895W        W46743  15.863  13.769   4.811 -0.0409 -0.0383  0.2758
29896W        W46744   8.313   2.069   0.811  0.0918 -0.1437  0.2928
29897W        W46745   8.338   9.841  11.871  0.1916 -0.2042 -0.0711
29898W        W46746  13.538  10.695   2.425  0.0672  0.2604 -0.1883
29899W        W46747   9.577   6.882  16.592  0.0672  0.2062  0.2451
29900W        W46748   1.244  15.512   3.401  0.0539  0.1246 -0.2183
29901W        W46749  17.086   6.795   3.841 -0.0672 -0.2892 -0.3771
29902W        W46750  15.779  11.045   3.992 -0.1811 -0.0267 -0.1559
29903W        W46751   0.393  16.867   5.110 -0.1271 -0.0571 -0.0821
29904W        W46752   3.302   6.043   0.016  0.1356 -0.1832  0.1286
29905W        W46753  14.504  11.028  13.977  0.1635 -0.2193 -0.1231
29906W        W46754   3.999   1.382   3.562  0.0030  0.0473  0.0596
29907W        W46755   0.709   3.310  13.598 -0.2106 -0.1293 -0.0051
29908W        W46756   5.255   1.382   1.554  0.0663  0.0489  0.1671
29909W        W46757   5.013   2.299  15.895 -0.0877 -0.1009  0.0455
29910W        W46758   0.287  12.316   2.010  0.1587 -0.2787  0.0182
29911W        W46759   2.437   9.240   4.569  0.1656 -0.1012 -0.1162
29912W        W46760  12.612   9.629   2.398  0.0733 -0.0480  0.1968
29913W        W46761  10.855   4.144   4.056 -0.0889 -0.0328 -0.0139
29914W        W46762   5.768   0.421   4.739 -0.0923 -0.0673  0.0183
29915W        W46763  17.277   3.404  11.212  0.0344 -0.0842  0.1869
29916W        W46764  16.585   2.472  12.260  0.3712  0.0636 -0.2095
29917W        W46765   6.456  17.138  13.671 -0.0272  0.2137 -0.1670
29918W        W46766  11.232  16.410  16.154 -0.1910  0.1144  0.0468
29919W        W46767  13.024  16.030  14.610  0.0405  0.0513 -0.1618
29920W        W46768  15.725   4.798   5.922 -0.1252  0.0078  0.2064
29921W        W46769  12.004   4.166  16.631 -0.2465 -0.1450  0.0680
29922W        W46770  11.389  10.957   3.636 -0.3186 -0.3119 -0.1930
29923W        W46771   7.045   3.705   3.245 -0.1587 -0.0466 -0.1743
29924W        W46772  10.067  15.350   4.318  0.1321  0.1658 -0.1334
29925W        W46773  11.930  12.352   1.179 -0.1235 -0.0325  0.3253
29926W        W46774  13.187   6.760  16.655 -0.0010  0.2956 -0.3064
29927W        W46775  10.963   8.317   1.584 -0.1601 -0.2726 -0.3817
29928W        W46776   4.290  13.301   5.048 -0.1826  0.0154  0.2317
29929W        W46777  15.533   4.467  14.310 -0.0896 -0.1962  0.0104
29930W        W46778   6.669   9.269   1.097 -0.1486 -0.3404 -0.1583
29931W        W46779   7.522   2.477   5.653 -0.5306  0.0862  0.0465
29932W        W46780   3.060   7.742  10.301  0.0467 -0.2465 -0.1364
29933W        W46781   8.249   4.557   1.915 -0.1945 -0.2181 -0.0089
29934W        W46782   0.427  10.894  14.590  0.0618  0.0207  0.0299
29935W        W46783   0.015  12.844   2.590 -0.0420  0.0188 -0.2359
29936W        W46784  14.914   1.128  13.325 -0.3964 -0.1505 -0.0198
29937W        W46785   2.859   5.765   4.359  0.2834 -0.2395 -0.1039
29938W        W46786  17.510   9.259   0.576 -0.0899 -0.2802 -0.0221
29939W        W46787   5.809   0.358   2.962 -0.1203 -0.2999 -0.1392
29940W        W46788   5.630   4.820   5.238 -0.2973 -0.0501  0.2544
29941W        W46789   3.896   7.296   4.371  0.1998 -0.1566 -0.0093
29942W        W46790  10.168   5.719   2.763 -0.1074 -0.1789 -0.1454
29943W        W46791   6.333   4.730  11.810 -0.0612 -0.5015  0.2106
29944W        W46792   3.266   1.174  11.897  0.1493 -0.2415 -0.0038
29945W        W46793   4.949  12.589  12.499  0.0469  0.0900 -0.0458
29946W        W46794  10.141  14.446  12.995 -0.1340 -0.3081  0.0960
29947W        W46795   2.328  14.530  12.336 -0.1240 -0.0015  0.1512
29948W        W46796  14.245   0.667   0.692  0.0188  0.2141  0.0598
29949W        W46797  17.685  14.257  15.006  0.2628  0.0407  0.2033
29950W        W46798  14.448   4.620   3.256 -0.3144 -0.1265  0.2687
29951W        W46799   7.050  15.204   4.233 -0.2652 -0.0292  0.1143
29952W        W46800   7.575  10.151   4.788 -0.0319  0.2800 -0.1020
29953W        W46801   0.735   6.267  14.659 -0.0557  0.1922  0.3459
29954W        W46802  15.829  15.844   1.032 -0.2002 -0.0934  0.1350
29955W        W46803  12.168   1.167   3.182  0.0810 -0.1626  0.1210
29956W        W46804  10.166  11.627   3.238  0.2681  0.5615  0.0925
29957W        W46805   3.210   3.196   6.254 -0.3688  0.0135 -0.0415
29958W        W46806   3.242   0.325  10.984 -0.1916  0.0012 -0.2838
29959W        W46807   7.107  17.492  15.787  0.1685  0.0635  0.1271
29960W        W46808  12.181   9.539   0.082 -0.2436  0.1950 -0.2189
29961W        W46809   9.159   5.905   0.729  0.2686  0.3260  0.0060
29962W        W46810  11.591   9.540  11.481  0.0157  0.0222 -0.2693
29963W        W46811   2.355  17.468  16.130 -0.2262 -0.5075 -0.1559
29964W        W46812   2.018  13.104  12.420 -0.0991  0.2090  0.2317
29965W        W46813   3.752  16.241   1.010  0.0339 -0.3231 -0.2612
29966W        W46814   7.163   4.415  12.298  0.5000 -0.0488  0.1431
29967W        W46815  14.193  14.583   2.829  0.1849 -0.0938  0.0966
29968W        W46816   5.664   7.324   4.669 -0.0327 -0.0357  0.1484
29969W        W46817  13.620  12.824  13.082 -0.2196 -0.3458  0.2021
29970W        W46818   9.925  16.937  13.370 -0.0171  0.2249  0.0387
29971W        W46819  10.212  11.168   0.952 -0.0276  0.0635 -0.0469
29972W        W46820  17.416   5.029  13.627 -0.0612  0.0267 -0.1181
29973W        W46821   6.878   4.448  16.496  0.1690  0.0373  0.0556
29974W        W46822  11.460   9.989  12.800 -0.4232 -0.1042 -0.1484
29975W        W46823   8.814   2.980   5.024  0.0328  0.0832  0.0212
29976W        W46824  12.214  11.844   1.602  0.0821  0.1368 -0.0333
29977W        W46825  15.641   8.607   3.336 -0.2086 -0.0318  0.0049
29978W        W46826   0.131   5.200   2.426 -0.3080  0.0809 -0.0759
29979W        W46827  12.564  10.569   5.833 -0.0604 -0.0086 -0.5062
29980W        W46828   0.258  12.294  13.249 -0.1634 -0.1852  0.3005
29981W        W46829  17.387   6.020  13.197 -0.0607  0.3258 -0.1437
29982W        W46830   9.239  13.434  16.017 -0.4524  0.1694  0.2439
29983W        W46831  11.297  15.821  10.976 -0.1258  0.2707 -0.2002
29984W        W46832   7.467   8.465  12.052 -0.4377  0.2216  0.1007
29985W        W46833   0.761   7.081   4.068 -0.1322  0.0934 -0.0459
29986W        W46834   5.847   7.110  13.210 -0.1213  0.2350  0.0941
29987W        W46835   0.970  16.865   3.450  0.0611  0.0204  0.0691
29988W        W46836  14.869   6.890  14.566  0.0089 -0.0919 -0.1279
29989W        W46837  10.305   2.311  15.089  0.2910  0.0134  0.0035
29990W        W46838  14.758   4.381   5.785  0.0618 -0.0426  0.2009
29991W        W46839   7.432  16.874  13.905  0.0068 -0.5602  0.0702
29992W        W46840   4.066   6.378   1.265 -0.1465  0.1946  0.0038
29993W        W46841  10.705   5.307   2.357 -0.3377 -0.0843  0.1733
29994W        W46842  11.327  17.094  11.121  0.0942 -0.1882  0.0771
29995W        W46843  10.837  15.803  15.170  0.1873 -0.1621  0.0593
29996W        W46844  17.224   3.887  13.214  0.2296  0.1349 -0.0147
29997W        W46845   2.343   4.250   3.582  0.2257 -0.0301 -0.1338
29998W        W46846   6.346   0.591  14.623  0.0301 -0.2474 -0.1737
29999W        W46847   3.749  10.571  11.692  0.0518 -0.1047  0.0138
30000W        W46848  11.371  16.041   0.327 -0.0479  0.1279  0.1586
30001W        W46849   1.604  10.287  12.981 -0.2046 -0.0044  0.1668
30002W        W46850   2.588   4.797  15.038  0.0392 -0.1112 -0.2156
30003W        W46851  14.345  10.996   2.602 -0.0458 -0.3854 -0.0640
30004W        W46852   2.241  11.340  16.112  0.3051 -0.1064 -0.3580
30005W        W46853  17.400   5.833  12.663  0.0446 -0.0429 -0.0102
30006W        W46854   8.739   3.788   3.822  0.0867  0.1037 -0.0102
30007W        W46855   0.399   3.897   5.599 -0.0858  0.0891  0.0177
30008W        W46856   0.955   3.614   1.472 -0.0022  0.1491  0.2845
30009W        W46857  16.071  16.840  12.953  0.2171 -0.1890  0.0061
30010W        W46858  10.930  11.505   4.516 -0.0506 -0.0101  0.1973
30011W        W46859  11.731   5.026   2.729  0.1912  0.1617 -0.1850
30012W        W46860   6.272   4.172  15.913  0.0840 -0.3366  0.1543
30013W        W46861   1.767   9.333   0.545 -0.1129 -0.0655 -0.0226
30014W        W46862  15.578   2.999   4.732  0.0909 -0.1714 -0.1518
30015W        W46863   7.260   0.553  11.707  0.2323  0.2444  0.2556
30016W        W46864   3.234   9.011   3.856  0.0628 -0.0543  0.1496
30017W        W46865  15.238  10.166  12.936 -0.3101 -0.6794  0.0868
30018W        W46866   8.497  11.027  15.093  0.0127 -0.0057 -0.1041
30019W        W46867   8.588   5.991   3.647 -0.0347  0.3132 -0.2892
30020W        W46868   1.214   3.554  14.289 -0.2660  0.0750  0.1954
30021W        W46869   1.354   6.599  11.593 -0.1235 -0.0949 -0.4538
30022W        W46870  17.464   7.385   3.267  0.0139 -0.0967  0.0622
30023W        W46871  17.143   2.831  14.861 -0.0825  0.2744 -0.0089
30024W        W46872   2.781  11.567   3.811 -0.1169 -0.0040 -0.2466
30025W        W46873  10.110   1.639   0.665 -0.0271  0.1706  0.1595
30026W        W46874   6.151  15.966  11.874  0.0002  0.3754 -0.1775
30027W        W46875   0.395   7.026  12.922  0.1635 -0.2899  0.2538
30028W        W46876  16.911   0.371  14.952  0.0955  0.0148  0.3844
30029W        W46877   8.288  11.132   6.091 -0.3716  0.0758 -0.1317
30030W        W46878   9.964  10.174   5.197 -0.0260 -0.2415 -0.1845
30031W        W46879   9.438  10.363   2.970  0.1464  0.4274  0.1256
30032W        W46880   1.667  16.736   2.107 -0.0984 -0.3010 -0.1198
30033W        W46881  15.970   1.695   5.044  0.4535  0.0256  0.0743
30034W        W46882   6.135   4.800   2.397 -0.0332  0.1945 -0.3381
30035W        W46883  15.795   6.749  16.267  0.0746  0.0685  0.0072
30036W        W46884   3.885   3.111  10.889  0.0179  0.4692 -0.2660
30037W        W46885  10.187  15.070   1.710 -0.0495  0.4099  0.0554
30038W        W46886   7.266   0.999  11.456 -0.0550 -0.0951 -0.2219
30039W        W46887   4.897   5.769   0.133  0.0321 -0.0962 -0.2277
30040W        W46888   4.163  16.130   0.061  0.0804 -0.0289  0.1483
30041W        W46889   2.278   5.747   5.741 -0.0224 -0.1225  0.3321
30042W        W46890   4.716   9.488  12.766 -0.1405  0.2678  0.1279
30043W        W46891   3.686   5.845   1.978  0.0840  0.0087 -0.1244
30044W        W46892   5.920   6.977  12.327 -0.2011  0.1958  0.2155
30045W        W46893   2.104   2.715   2.666  0.2071 -0.0687  0.2551
30046W        W46894  15.464   8.617  12.453 -0.1365  0.1118  0.2264
30047W        W46895  15.274   7.642  15.101 -0.0353 -0.0634 -0.0910
30048W        W46896   9.253   2.104  16.085 -0.1584  0.2480  0.1546
30049W        W46897  10.861   3.913  16.541 -0.1329 -0.3485 -0.1082
30050W        W46898  14.651   4.283  15.173 -0.0651 -0.0490 -0.0614
30051W        W46899   4.628  16.479  13.419 -0.1770 -0.0886 -0.0590
30052W        W46900  11.078   6.348   2.666 -0.0135  0.1318  0.1850
30053W        W46901  12.502   6.061  15.288  0.0638  0.2413 -0.1316
30054W        W46902   3.339   0.785  12.958  0.1845 -0.0812  0.2240
30055W        W46903  11.038   2.750   2.692  0.1466 -0.0833  0.0217
30056W        W46904   6.388   2.154   2.896  0.0549  0.2961  0.1247
30057W        W46905   0.338  15.959   4.964  0.2443  0.0460  0.1198
30058W        W46906   2.774   9.420  11.000 -0.0989 -0.2365  0.0924
30059W        W46907   8.797  12.317   1.721  0.1862  0.2903 -0.1479
30060W        W46908  15.239   1.554  13.495 -0.2359  0.0320  0.2248
30061W        W46909   0.345   0.383  13.196  0.1566  0.1054  0.2051
30062W        W46910  12.851  15.349  16.402 -0.0535  0.2318  0.1768
30063W        W46911  15.319  12.291  13.040  0.1421  0.0301  0.2672
30064W        W46912  13.346   3.919   3.492 -0.0870 -0.0283  0.1616
30065W        W46913   4.815   4.476   4.288  0.2683  0.0628  0.3467
30066W        W46914  14.671  13.580  15.049  0.0758  0.1496 -0.0862
30067W        W46915   3.236   7.569  13.462  0.0772 -0.2063 -0.1944
30068W        W46916  15.429  14.725   3.846  0.1941  0.2052  0.0103
30069W        W46917   3.040  14.665  11.625 -0.2406  0.2664 -0.0889
30070W        W46918   4.736  17.640   0.511 -0.0828  0.0593 -0.2363
30071W        W46919  14.362   8.682  16.150 -0.1107  0.0873 -0.2928
30072W        W46920  12.866  15.613   5.861  0.3994 -0.1418 -0.1645
30073W        W46921   0.313   9.217  12.505 -0.1287 -0.0541  0.0028
30074W        W46922   6.725   2.919  14.685 -0.1963  0.2107  0.0051
30075W        W46923  13.998   3.812  16.498 -0.2014  0.2890  0.2035
30076W        W46924  13.033   8.723  16.645  0.2240  0.0150 -0.1531
30077W        W46925   8.277  16.478  10.132 -0.1357 -0.0234  0.0983
30078W        W46926   1.393   3.489   1.704 -0.0123  0.0414  0.1148
30079W        W46927   5.546  14.918   2.443 -0.0658  0.1333  0.2528
30080W        W46928   6.445   7.688  12.613  0.1622 -0.2105  0.3803
30081W        W46929  14.422   7.379  16.155  0.0182  0.0177 -0.3452
30082W        W46930   9.459  10.283   5.874  0.1090  0.1020 -0.0490
30083W        W46931  17.446   3.273  13.941  0.3274 -0.0571  0.1930
30084W        W46932  13.054   7.962   0.490 -0.2447 -0.2768  0.1645
30085W        W46933   3.969  15.908  13.944 -0.1005  0.0054 -0.2482
30086W        W46934  11.772  14.447  10.960  0.1431  0.1731  0.0765
30087W        W46935   8.586  12.946  13.557  0.0967  0.0261  0.1062
30088W        W46936  16.814  14.580  12.035 -0.1083 -0.4093 -0.1389
30089W        W46937  10.822  13.418   0.440 -0.1322 -0.0414 -0.0179
30090W        W46938  13.300   3.211   0.272 -0.0838 -0.0244 -0.0709
30091W        W46939   9.628   0.293   4.830 -0.2638 -0.1344  0.1100
30092W        W46940   2.563  10.388   5.332 -0.0780  0.3397  0.0816
30093W        W46941   9.436   1.422   3.691  0.1768  0.0272  0.0937
30094W        W46942  17.641  13.088  12.328  0.1989  0.1597  0.0236
30095W        W46943   3.830   4.026   2.104 -0.2917  0.1268 -0.0782
30096W        W46944  16.274  12.099   4.641 -0.0167  0.0276 -0.1242
30097W        W46945  16.762   6.304  13.664  0.0778 -0.1497  0.2046
30098W        W46946   8.867   5.519  15.688 -0.2611 -0.0316  0.0984
30099W        W46947  11.030  16.252  13.696 -0.2177 -0.1027  0.0903
30100W        W46948  17.585  12.279  12.839 -0.0036  0.0131 -0.0279
30101W        W46949   4.310  11.439   4.568 -0.1995  0.0304  0.3667
30102W        W46950   4.737   1.155  12.531  0.1644 -0.0247 -0.0313
30103W        W46951   3.834  12.824  16.651 -0.0946 -0.0136  0.1183
30104W        W46952  15.680   0.713  15.558  0.0319 -0.0121 -0.1757
30105W        W46953  10.339   6.498   1.323  0.2310 -0.2223  0.0925
30106W        W46954   4.469   7.281  13.135  0.0608  0.2359  0.0094
30107W        W46955   6.165  14.502  13.303  0.3235  0.0737  0.2579
30108W        W46956  11.394  16.401  15.082  0.1707  0.1395 -0.2333
30109W        W46957  16.713  11.538   5.148  0.4133  0.2295  0.3058
30110W        W46958   5.050   6.925  11.074  0.3962 -0.0942  0.0370
30111W        W46959   4.206   6.848   3.492  0.0707 -0.0129  0.1337
30112W        W46960  17.383   0.849   2.685 -0.1994 -0.1785 -0.2708
30113W        W46961  14.905  13.741   1.321  0.1037  0.1777 -0.1884
30114W        W46962  14.973   7.767  14.672  0.0808  0.2523 -0.0950
30115W        W46963  11.452  15.864   1.836  0.0940 -0.3105  0.1349
30116W        W46964   8.007   4.620  11.739  0.1705 -0.0311 -0.0666
30117W        W46965  11.349   4.515  15.837  0.3586  0.1721  0.0728
30118W        W46966   7.981   0.396   4.951 -0.3780 -0.3487 -0.0150
30119W        W46967   4.008   1.996   3.311  0.3849 -0.1207  0.1705
30120W        W46968   9.292  16.695   1.168 -0.2478  0.0079  0.1224
30121W        W46969   6.593   0.314  15.132  0.1311 -0.3390 -0.1136
30122W        W46970   9.214  12.376   1.467 -0.0149 -0.1557  0.0353
30123W        W46971   4.427  12.417   2.948  0.2932  0.2188 -0.2251
30124W        W46972   5.023   2.358   3.979  0.3982  0.3334  0.1525
30125W        W46973  17.075   0.863   0.161  0.1894 -0.1104  0.0984
30126W        W46974   2.985  13.872  13.595  0.1262  0.1152 -0.1364
30127W        W46975   1.160   0.632   1.638 -0.1282  0.0121  0.0834
30128W        W46976   2.885  16.099   5.565 -0.3339 -0.0012 -0.0882
30129W        W46977  12.641   3.955   2.332 -0.3269  0.1120 -0.1630
30130W        W46978  14.367  13.102  16.289  0.0647  0.0454  0.1655
30131W        W46979   2.007   9.857  12.070  0.0724  0.1075 -0.2309
30132W        W46980  10.619   6.889   4.947 -0.2642  0.0077 -0.1213
30133W        W46981   0.505   8.382   3.072 -0.1212  0.0992  0.1559
30134W        W46982  16.180  10.434  12.932  0.2678  0.0233  0.1271
30135W        W46983  12.443  16.438   0.673 -0.2834 -0.0746  0.1951
30136W        W46984   0.841  12.572   4.280 -0.0223  0.2867  0.1817
30137W        W46985   9.474  16.180   2.014  0.2042  0.0808 -0.2933
30138W        W46986  11.756  11.638  15.295 -0.3512  0.2398  0.0763
30139W        W46987  14.335   1.408  11.629  0.0175  0.2835 -0.2038
30140W        W46988  14.322  10.875  16.540  0.2297  0.0525  0.1295
30141W        W46989  13.977   2.058   0.606 -0.1877 -0.0143  0.0079
30142W        W46990   7.086  11.177  13.327 -0.0456 -0.0375 -0.1612
30143W        W46991  17.579  14.795  14.621  0.0334  0.2279 -0.0611
30144W        W46992  12.791   0.143  14.688  0.3891  0.2374  0.0790
30145W        W46993  11.401  11.808  16.397 -0.1449 -0.1982 -0.0636
30146W        W46994   8.177   4.703  15.256  0.1496  0.1315  0.1762
30147W        W46995  10.563   5.785   1.452 -0.1941 -0.1616  0.2024
30148W        W46996   3.020  16.339  15.688 -0.0696  0.0093 -0.0299
30149W        W46997   4.460   5.872   5.202 -0.0219 -0.0448 -0.0942
30150W        W46998   4.533   3.762  10.832 -0.1369 -0.0128  0.2739
30151W        W46999  14.108   9.315  11.380  0.1869 -0.2463 -0.1605
30152W        W47000   9.116  15.415   0.791  0.0549  0.2329  0.2070
30153W        W47001  15.920  10.936   6.044 -0.0677  0.1220 -0.3750
30154W        W47002   8.948  14.014   4.904 -0.1664 -0.1704  0.4701
30155W        W47003   5.954   7.706  14.792  0.1525  0.0513 -0.2411
30156W        W47004   1.577   5.382  15.851  0.1902 -0.0863  0.1520
30157W        W47005   7.311   5.724   3.275  0.2513 -0.1959 -0.0797
30158W        W47006   0.172   7.313  13.752  0.0559 -0.0381 -0.0343
30159W        W47007   5.614  12.340   1.416  0.2110  0.0738 -0.3223
30160W        W47008   4.030   4.176  12.980  0.3175 -0.2458  0.1045
30161W        W47009   5.744   0.014   5.130 -0.1519 -0.0905  0.1928
30162W        W47010   0.447   2.836  13.641  0.3219  0.1269 -0.1054
30163W        W47011  10.621  15.327   1.828  0.0168  0.2861  0.4338
30164W        W47012   3.258   0.579  16.526 -0.1692  0.2486  0.0557
30165W        W47013  11.899   2.407   3.583  0.0149 -0.1195 -0.0897
30166W        W47014   6.230  16.556   3.429  0.0341 -0.2728  0.1889
30167W        W47015   5.569  13.642  15.739  0.2436  0.2418  0.0747
30168W        W47016   3.978  13.953   0.380 -0.0861 -0.0079  0.4289
30169W        W47017   4.774  14.990   1.397 -0.3956 -0.1118 -0.0911
30170W        W47018   4.788  14.324  13.554  0.0885 -0.1160  0.0743
30171W        W47019   2.744  10.467  13.899  0.0280 -0.1784 -0.1913
30172W        W47020  12.901  13.359   0.686  0.0435  0.0496 -0.5157
30173W        W47021   7.555  14.142  13.370  0.0527 -0.1086  0.1523
30174W        W47022  12.765   6.813   4.514 -0.0505  0.0115 -0.2134
30175W        W47023   8.550   9.474   1.628  0.2069 -0.0533  0.0004
30176W        W47024  10.380   9.247  12.493  0.2918  0.2844 -0.3137
30177W        W47025  16.130  13.142   0.636 -0.0199 -0.0679 -0.2379
30178W        W47026   4.543  15.657   4.929 -0.0381  0.3408 -0.0147
30179W        W47027  11.370   1.723   4.091  0.0902  0.0376 -0.0230
30180W        W47028  14.958  16.700  11.675 -0.1459  0.0706 -0.3088
30181W        W47029   6.728   8.849  11.735  0.1026 -0.3874  0.0333
30182W        W47030   0.373  16.437   4.853  0.0270 -0.0129 -0.1607
30183W        W47031   1.185   3.397   3.289 -0.2185 -0.1976  0.1779
30184W        W47032   8.433  16.124   2.834  0.1628  0.1445  0.0769
30185W        W47033  15.856  16.369   2.565  0.1303  0.1428  0.2127
30186W        W47034   6.821   9.324  13.555  0.0037  0.1246 -0.0132
30187W        W47035  17.123  16.404  11.348  0.2824 -0.0299  0.0298
30188W        W47036  11.087   1.211  13.307  0.0319 -0.1353  0.1534
30189W        W47037  17.351   0.532  15.534 -0.0602  0.1790  0.2804
30190W        W47038  14.704   4.313   1.617  0.0745 -0.2799  0.4309
30191W        W47039   5.949  13.306  15.485  0.2277  0.1352 -0.1662
30192W        W47040   7.548  13.401   1.481  0.0010 -0.0314 -0.1104
30193W        W47041   4.705   5.845   2.883 -0.0118  0.2177 -0.3612
30194W        W47042   5.364   4.913   1.050 -0.0695  0.1085  0.0849
30195W        W47043   8.869   6.254   3.349  0.0427  0.0686 -0.0161
30196W        W47044   9.423   8.520  13.068  0.0678 -0.0823  0.0403
30197W        W47045  10.439   7.664  10.043 -0.0203  0.3471  0.2570
30198W        W47046   9.908   7.372  12.931 -0.0733 -0.1374  0.0659
30199W        W47047  15.844   6.136   0.841 -0.1103 -0.1570 -0.1455
30200W        W47048   3.614  11.571   2.260  0.0717  0.4008 -0.3947
30201W        W47049  11.701   7.158   0.708 -0.1293  0.1439  0.0820
30202W        W47050  12.206  17.054  14.703 -0.1621  0.1320  0.0535
30203W        W47051   7.251  10.335  13.673  0.3441 -0.0041  0.0175
30204W        W47052   5.945  16.988  15.656  0.1000 -0.1248  0.2039
30205W        W47053  16.683   7.056  14.457  0.0023 -0.0194 -0.2859
30206W        W47054   9.302   5.386   3.621  0.0411  0.2817 -0.0913
30207W        W47055   2.745  17.383   1.731  0.1278  0.1507 -0.2099
30208W        W47056  11.311   9.239  15.247  0.0086 -0.1803  0.3818
30209W        W47057  10.391   4.230   1.300 -0.1816  0.0181 -0.0456
30210W        W47058   5.109   8.496   0.725 -0.2952  0.0586 -0.1811
30211W        W47059   8.857  10.796  14.356 -0.1139 -0.3574 -0.1237
30212W        W47060  12.991   5.191  15.100  0.2545 -0.2402 -0.0622
30213W        W47061  11.917  10.849  14.688 -0.0228 -0.2861  0.3131
30214W        W47062  13.067  14.413   5.275 -0.1426  0.1909  0.2926
30215W        W47063  13.509   3.377  14.047 -0.0119  0.1823  0.0876
30216W        W47064   0.300   8.794  14.535  0.1334 -0.0517  0.0119
30217W        W47065  13.765  13.101   2.683 -0.1187  0.2784  0.1268
30218W        W47066  17.411  12.501   4.111 -0.1650 -0.3301  0.1492
30219W        W47067  12.945   2.280  12.782  0.0462  0.5074 -0.0756
30220W        W47068  15.910  12.442   1.328  0.1881  0.1483 -0.2693
30221W        W47069   2.392   9.899   0.872 -0.3198  0.0483  0.2247
30222W        W47070   3.927   4.250  11.125 -0.1065 -0.0412 -0.0231
30223W        W47071  16.226  16.364  14.493 -0.0195  0.1598 -0.4742
30224W        W47072  14.069  10.279   1.064  0.1483  0.2916 -0.1585
30225W        W47073  11.745  17.086   0.629  0.1176  0.2462 -0.1674
30226W        W47074   4.252   5.913   3.223 -0.1557 -0.3014 -0.1084
30227W        W47075   3.162  11.144   1.460  0.1384 -0.1842 -0.2992
30228W        W47076   0.281  17.324   0.609 -0.1593 -0.0723  0.1633
30229W        W47077   0.951   5.523   1.320 -0.0560  0.1880  0.0672
30230W        W47078   9.711   0.179   2.769 -0.0606  0.0488  0.1728
30231W        W47079  14.698   5.986  12.741 -0.1751  0.1290  0.2446
30232W        W47080   6.146   5.558   5.000 -0.0096  0.0635 -0.2092
30233W        W47081  17.536   8.012  13.069  0.2783  0.1494  0.0574
30234W        W47082   0.132  11.999  16.407  0.0304  0.0752 -0.1725
30235W        W47083   8.190  15.472   1.994  0.0295 -0.2582 -0.2034
30236W        W47084   7.927   6.958  12.043 -0.0911 -0.2177  0.3132
30237W        W47085  11.366   4.841  14.584  0.1174  0.1828 -0.1912
30238W        W47086   5.562  10.130  12.326 -0.0341 -0.1429 -0.0244
30239W        W47087   7.096   9.430   4.898  0.1068 -0.0414  0.1024
30240W        W47088  11.950  13.511   2.600  0.0425  0.3172 -0.2701
30241W        W47089   4.794  16.833   1.212  0.0516 -0.0935  0.1127
30242W        W47090   3.467  16.606   1.580 -0.1367 -0.2295 -0.2201
30243W        W47091   6.960   9.038  16.436  0.0228 -0.2540 -0.1625
30244W        W47092   9.054   3.158   0.793  0.0480 -0.0301 -0.0750
30245W        W47093   4.677  12.130   1.839 -0.0162  0.1209 -0.1242
30246W        W47094   0.752  15.701   3.053 -0.2298 -0.0264  0.0417
30247W        W47095   2.991  16.421   2.725  0.1064  0.0441 -0.0942
30248W        W47096   3.782   8.199   4.592 -0.0558 -0.1492 -0.0262
30249W        W47097   8.814   2.316  15.932  0.2819 -0.6138  0.1473
30250W        W47098   9.659   5.498  16.424 -0.2006  0.2534  0.0525
30251W        W47099  16.961   2.155   4.108  0.2032  0.1874 -0.0527
30252W        W47100   9.314   0.609   1.581 -0.0809 -0.1063  0.1955
30253W        W47101  12.013   0.301   2.624 -0.0832 -0.0489  0.0844
30254W        W47102  16.715  10.734   2.716 -0.1610  0.0784  0.1168
30255W        W47103   8.069  13.116   0.232  0.0626 -0.2107 -0.0379
30256W        W47104  10.958  17.684  12.907  0.6036 -0.0460 -0.1597
30257W        W47105  11.158  10.263  13.146 -0.0952  0.0653  0.0196
30258W        W47106   2.996   4.047   5.333 -0.0777  0.0305  0.1493
30259W        W47107   8.208   1.655  15.845 -0.2200  0.1062 -0.1549
30260W        W47108  13.917   1.441  16.071 -0.1082 -0.1327 -0.2198
30261W        W47109  11.081  13.083   2.272  0.2817  0.0024 -0.2326
30262W        W47110   0.083   2.341   4.427  0.2402  0.3065  0.2464
30263W        W47111  16.535  17.412  15.518 -0.1210 -0.0297  0.2024
30264W        W47112   7.034  14.296  13.867 -0.2993 -0.1122 -0.0127
30265W        W47113   9.495  10.627  12.080  0.1799 -0.0782  0.2567
30266W        W47114   3.551   0.847   1.759 -0.0618  0.0431  0.0006
30267W        W47115  15.208   3.382   3.508  0.0476 -0.0719  0.1994
30268W        W47116   3.771   5.366  16.333 -0.0969  0.0804  0.2848
30269W        W47117  12.963   9.373   3.481  0.1438 -0.0526 -0.0042
30270W        W47118   4.765   6.830   1.349  0.0666 -0.0810 -0.0152
30271W        W47119   3.200  14.709   1.432  0.0788  0.2804  0.0232
30272W        W47120   2.545   0.283   1.453 -0.2334 -0.1437 -0.0927
30273W        W47121  14.041  10.746   4.544  0.1125 -0.2815 -0.2036
30274W        W47122  10.314   2.374   4.904 -0.0789 -0.3593 -0.3055
30275W        W47123   2.344   8.809   4.922  0.2024 -0.2780  0.0239
30276W        W47124   5.915   2.031  16.594 -0.0821  0.0560  0.5427
30277W        W47125  14.277  16.389  11.025  0.2721 -0.2062 -0.2732
30278W        W47126   1.263   2.686   6.477  0.2079 -0.2349  0.1669
30279W        W47127   6.744   3.527   5.124  0.1492 -0.0913 -0.1002
30280W        W47128   3.211  10.440  14.823 -0.2844  0.0980 -0.1565
30281W        W47129  10.300  17.056   6.282 -0.3626  0.0782 -0.0538
30282W        W47130  11.931  13.799  12.363  0.1918 -0.0526 -0.1507
30283W        W47131  16.861   4.581  14.173 -0.2505  0.1244 -0.1339
30284W        W47132   4.900  16.585  15.618  0.0506 -0.1108 -0.1541
30285W        W47133   6.266  11.939   2.282  0.2580 -0.0665  0.1952
30286W        W47134  16.868  11.808   3.473  0.2063  0.1623  0.1081
30287W        W47135  10.448  10.854  14.156 -0.0744 -0.1564  0.0544
30288W        W47136  12.982  16.710   1.759 -0.0857 -0.0760 -0.3565
30289W        W47137   4.969  15.837   3.442  0.2150 -0.1506 -0.1128
30290W        W47138  15.128   8.363  10.943  0.0154  0.1338 -0.0239
30291W        W47139   4.252   8.001  11.056 -0.1384  0.0829 -0.0863
30292W        W47140   6.924   4.682   2.766  0.0095 -0.4307  0.1310
30293W        W47141   9.707  11.933   0.983 -0.0792 -0.0240 -0.1199
30294W        W47142  12.527   1.868   5.523  0.0367  0.0571 -0.0211
30295W        W47143   0.165   6.859  14.814  0.1315  0.0558  0.2206
30296W        W47144  11.947   8.048  12.811  0.0600 -0.0169 -0.1720
30297W        W47145  15.119  13.133  14.314  0.2025 -0.2147  0.1047
30298W        W47146   3.876  17.609   4.088  0.3501  0.0303 -0.2758
30299W        W47147  14.328   9.878  15.849 -0.0035  0.0855  0.3059
30300W        W47148   5.147   6.524  11.809 -0.0615 -0.0522 -0.2046
30301W        W47149   1.503  14.491   0.600  0.0040  0.3467  0.1995
30302W        W47150  10.944   4.215  15.740 -0.1563 -0.2619 -0.0506
30303W        W47151   9.688   7.560  13.861 -0.1170 -0.0226  0.0746
30304W        W47152   1.468  10.985  11.354 -0.2003  0.1342  0.1299
30305W        W47153   7.292   1.181   1.232  0.0726 -0.0706  0.0413
30306W        W47154   9.133   8.219   0.549  0.3271 -0.1998  0.2248
30307W        W47155   8.475   2.152   5.352 -0.2985  0.3333  0.0520
30308W        W47156   8.357  11.192  11.796 -0.0877  0.1498 -0.1568
30309W        W47157   1.813  12.354  13.737  0.2510 -0.1551 -0.1295
30310W        W47158   1.801  12.126  12.086  0.1408  0.4194  0.1093
30311W        W47159  13.267   9.887   5.728  0.2515  0.0326  0.0621
30312W        W47160   8.122  10.321   3.700  0.1650  0.0580  0.3754
30313W        W47161   7.216  16.028   0.813  0.0643  0.1673 -0.2312
30314W        W47162   8.509  16.514   1.080  0.1054  0.1822  0.1241
30315W        W47163   3.431  11.805  15.770  0.1579  0.0087  0.2831
30316W        W47164  12.271  16.309   3.818  0.2763  0.1423  0.0283
30317W        W47165   0.157   5.943   3.915 -0.0075  0.2531 -0.2449
30318W        W47166  12.408  10.179  13.020 -0.3713  0.1064  0.3750
30319W        W47167   8.701   2.968   1.091 -0.0787  0.2163  0.3661
30320W        W47168   9.589  12.868   4.595  0.0097 -0.1788  0.2620
30321W        W47169   6.393   6.583  14.921 -0.0463  0.1120  0.2528
30322W        W47170   5.986   2.451  15.750  0.3420  0.0443 -0.2907
30323W        W47171  11.385  15.959  16.455 -0.0226 -0.2914  0.1637
30324W        W47172   5.741  17.658   3.809  0.1207  0.1554  0.0846
30325W        W47173  11.256  13.792   4.107  0.1169 -0.2205  0.1835
30326W        W47174  14.295  12.346  12.798 -0.0092  0.0901  0.1360
30327W        W47175   7.066   0.280   5.317 -0.0532  0.2686  0.0631
30328W        W47176   4.137  11.416  15.897  0.2410 -0.1070 -0.0630
30329W        W47177   9.859   2.370   1.070  0.0384  0.0706 -0.3349
30330W        W47178  12.820   3.687   3.285 -0.0525 -0.0479 -0.3400
30331W        W47179  10.229  11.841  12.196 -0.2852  0.1966  0.5568
30332W        W47180   1.133  13.654  14.581 -0.2159  0.4997 -0.0387
30333W        W47181  10.242  14.121   2.470  0.0594  0.0917 -0.3648
30334W        W47182  16.392  17.068  12.515 -0.0095 -0.1605  0.0827
30335W        W47183  13.179   5.987   0.405 -0.0309  0.1492 -0.0248
30336W        W47184   7.182   0.833   0.504  0.2660  0.0886  0.1874
30337W        W47185  11.755   2.744   3.261  0.0973 -0.0080 -0.1305
30338W        W47186   2.779   9.768   2.421  0.4850 -0.0330  0.2734
30339W        W47187   9.312   1.247  14.387 -0.0279 -0.2823 -0.1002
30340W        W47188   2.397   5.651  12.911 -0.3759 -0.1443 -0.0069
30341W        W47189   9.294   0.213  12.016  0.1324 -0.2934  0.1696
30342W        W47190  16.666   9.650  14.651 -0.1811 -0.0641 -0.1516
30343W        W47191   6.266   6.071  14.861 -0.2012 -0.2057  0.0217
30344W        W47192   8.719   9.871   3.806  0.0528  0.1807 -0.0277
30345W        W47193   3.576   4.247  12.693 -0.1231 -0.0134  0.1344
30346W        W47194   8.110   2.199  15.315  0.0837  0.2408 -0.0898
30347W        W47195   1.355   0.822   0.664 -0.3556 -0.2669  0.1898
30348W        W47196   9.676   4.986   4.591  0.2747  0.0769  0.0511
30349W        W47197   5.281   4.826   3.426  0.1433 -0.1499 -0.4653
30350W        W47198  15.494   4.007  14.642 -0.0208 -0.4242  0.3021
30351W        W47199   0.606   8.236  13.918 -0.2070  0.1827 -0.2591
30352W        W47200   4.643   3.053   4.209 -0.1991  0.1467 -0.0323
30353W        W47201   0.269  15.014  12.113  0.3210  0.3542  0.2953
30354W        W47202   3.165   6.678  15.760 -0.0126  0.4410 -0.1074
30355W        W47203  10.403  13.742  16.321  0.0485  0.1575 -0.0339
30356W        W47204  11.237   7.165   0.562  0.2885  0.0490 -0.1925
30357W        W47205   8.881  14.886  13.081 -0.0774 -0.1152 -0.1770
30358W        W47206  15.413   7.152  16.421 -0.2371  0.0019  0.1051
30359W        W47207   8.953   6.674   3.564  0.3402 -0.1525  0.1845
30360W        W47208   3.480   4.480   4.128 -0.0402  0.0269  0.0300
30361W        W47209   5.519   2.460  14.418  0.1419  0.0805  0.0208
30362W        W47210   1.884   3.684   2.525  0.0297  0.0102 -0.0960
30363W        W47211   4.311   5.149  14.725  0.0647 -0.2842  0.0741
30364W        W47212   4.541   3.270  16.379 -0.0380  0.2395  0.2161
30365W        W47213  13.221  15.971  15.076 -0.0669 -0.0269  0.0781
30366W        W47214  10.158   9.650   1.203 -0.1688  0.3127 -0.3934
30367W        W47215   3.632   5.618   0.114  0.0911  0.0302 -0.2283
30368W        W47216  15.135   3.685   1.954  0.2298  0.2867 -0.5766
30369W        W47217   1.526  10.612   2.691 -0.0069  0.1328 -0.0930
30370W        W47218   6.894   8.894  12.594  0.0731  0.1288 -0.3082
30371W        W47219  16.044   1.714   3.685  0.0896 -0.5223  0.0313
30372W        W47220   4.034  16.728  12.816  0.0657  0.0604 -0.1065
30373W        W47221   8.550   3.426  15.972 -0.0959 -0.0709  0.2069
30374W        W47222   8.591  13.801  11.887 -0.1495  0.1432 -0.0999
30375W        W47223  13.627  16.713  14.885  0.1876  0.3121  0.1030
30376W        W47224   3.136  13.356  16.171 -0.0023  0.0031  0.0751
30377W        W47225   5.930  11.640  14.329 -0.1364  0.0919 -0.0375
30378W        W47226  17.006   5.969  12.379 -0.2631 -0.0654  0.0978
30379W        W47227  14.798   4.823  13.285  0.0533  0.2379 -0.0686
30380W        W47228   6.674  13.751   0.320 -0.0735 -0.1760 -0.4453
30381W        W47229   2.313  14.175   3.781  0.4684 -0.0820 -0.3583
30382W        W47230   6.618   3.852  14.119 -0.3662  0.2047  0.1344
30383W        W47231  11.368  17.696  14.705  0.2225  0.3617  0.0835
30384W        W47232   1.520  14.567   3.656  0.3466  0.2338  0.2683
30385W        W47233  12.707   4.930   0.880  0.0906 -0.0693 -0.0077
30386W        W47234   9.515  13.881  16.097  0.2804 -0.0335 -0.0074
30387W        W47235   2.646   4.374   2.612  0.0215 -0.1235 -0.0601
30388W        W47236  15.133  10.845   3.944  0.0420 -0.3689  0.0715
30389W        W47237  17.534   5.092   2.916  0.2383 -0.1653 -0.1344
30390W        W47238   5.559  11.089   1.226 -0.1993 -0.1890 -0.0732
30391W        W47239   7.017   0.893   1.588 -0.1146 -0.0326 -0.2156
30392W        W47240  13.946   6.727   1.352 -0.0964  0.0669 -0.3394
30393W        W47241   4.992  10.718  14.746 -0.1709  0.1771  0.3449
30394W        W47242  10.845   1.575   5.007  0.2055 -0.1094  0.0292
30395W        W47243   5.438   4.516  15.991 -0.0961  0.0970  0.2279
30396W        W47244   5.446   4.036   1.187  0.4181 -0.0268  0.0050
30397W        W47245  17.451   5.302   4.578  0.0936  0.2547  0.1222
30398W        W47246  14.632   7.167   1.724  0.2075 -0.2211  0.0836
30399W        W47247  13.311  16.196  14.228  0.0117 -0.0332 -0.0050
30400W        W47248  12.868   7.399   3.622 -0.1605 -0.0427  0.0306
30401W        W47249   7.913   0.368   3.237 -0.1616 -0.2254 -0.0552
30402W        W47250   4.159   2.900  13.024  0.0265  0.2044  0.0659
30403W        W47251   9.477   0.859   1.197  0.3187  0.1728 -0.3602
30404W        W47252  11.631   7.961   3.039  0.4259 -0.0817  0.1664
30405W        W47253   5.989   6.717   0.587  0.1084 -0.0270  0.2700
30406W        W47254  12.459  14.872   4.869  0.4006 -0.2098 -0.0491
30407W        W47255  10.316  13.321  11.909 -0.1243  0.0005  0.1873
30408W        W47256  11.313  14.190   1.602  0.0314 -0.2259  0.0797
30409W        W47257   5.567  11.998   1.816  0.3008  0.0707 -0.1895
30410W        W47258  14.483   9.264   0.510 -0.0140  0.0781 -0.0744
30411W        W47259   4.318   2.226  13.645 -0.0696 -0.1954 -0.0428
30412W        W47260  13.642   1.288   2.300 -0.0270  0.0765  0.3013
30413W        W47261   5.917   2.716  15.340  0.0343 -0.1498  0.3143
30414W        W47262  15.778   9.402  15.666 -0.1577 -0.1655  0.0400
30415W        W47263   5.726  17.312   5.433 -0.0970  0.0339  0.1182
30416W        W47264  10.205   4.824   3.571 -0.1839 -0.3436 -0.0264
30417W        W47265   8.184   4.570   1.433 -0.0902 -0.0195  0.1015
30418W        W47266   5.649   6.224  12.093 -0.1910  0.0315  0.1873
30419W        W47267  16.428  12.813   3.235  0.1152 -0.0273  0.2296
30420W        W47268  13.237   9.724   3.826 -0.0866  0.0475  0.2173
30421W        W47269   7.455  13.962   1.320 -0.1505  0.1413  0.0498
30422W        W47270   8.383   1.350  14.265 -0.2125  0.3817 -0.1190
30423W        W47271  16.973  14.641  16.534 -0.0108 -0.1998  0.0277
30424W        W47272   7.026   3.311   2.906  0.1756 -0.0169  0.6106
30425W        W47273   2.437  11.396   0.813 -0.0153 -0.1369 -0.0086
30426W        W47274  16.124  12.986   6.349  0.0508  0.1064  0.3738
30427W        W47275   7.965   8.365   1.970 -0.3316  0.0328 -0.0215
30428W        W47276   7.427   5.672  15.945 -0.1937  0.4123  0.3010
30429W        W47277  15.592   6.137  15.713 -0.1697 -0.1919 -0.2043
30430W        W47278  13.323   5.735   1.138 -0.1475 -0.2332 -0.3009
30431W        W47279   7.398  14.436  15.489 -0.0699 -0.3501 -0.0251
30432W        W47280  17.191   0.285  11.257  0.0538 -0.1945 -0.2003
30433W        W47281   0.379  16.810   2.095  0.0346  0.2861 -0.5143
30434W        W47282   4.892   5.676  11.414  0.1009 -0.0404 -0.0315
30435W        W47283  17.066  15.410   5.215 -0.0824  0.1967 -0.0014
30436W        W47284  16.219  10.494   4.980 -0.2280 -0.0458  0.4216
30437W        W47285   3.823  14.067  13.257 -0.0471  0.0288 -0.0546
30438W        W47286   5.792  14.733   1.029 -0.0499 -0.2132  0.1250
30439W        W47287   3.502   7.872  16.491  0.0121 -0.2390 -0.0297
30440W        W47288   0.808  11.001  12.952 -0.1588  0.0550  0.1125
30441W        W47289   9.351   7.569   3.120 -0.2215  0.0875 -0.2494
30442W        W47290   8.254   1.304  11.633 -0.1706 -0.1224  0.2067
30443W        W47291   0.760  12.368   2.861 -0.0840  0.2442  0.1519
30444W        W47292  16.180  14.110  15.865  0.3199 -0.1561 -0.1086
30445W        W47293   4.441  11.006  11.397  0.1188 -0.2180  0.0468
30446W        W47294  14.603  17.239   1.059  0.0974 -0.2526 -0.1425
30447W        W47295   7.299  12.578   4.677  0.0701  0.2132  0.1196
30448W        W47296   4.904  16.575   2.741 -0.0965 -0.0447  0.2572
30449W        W47297   1.512  10.228   1.288  0.2746  0.2037  0.2712
30450W        W47298   5.242   3.613  15.725 -0.2730  0.0227 -0.1887
30451W        W47299   6.095   0.551  12.561 -0.0889  0.0743 -0.0399
30452W        W47300   7.066  12.180  14.237 -0.0507  0.3624  0.1325
30453W        W47301   3.175  12.112   0.796 -0.0057 -0.1205 -0.2323
30454W        W47302  12.306  11.269   5.316  0.0056  0.1084 -0.0226
30455W        W47303   9.122   2.535  13.049  0.0742  0.2359 -0.1232
30456W        W47304   2.259   2.746  16.349 -0.1055 -0.0475 -0.3025
30457W        W47305  13.429  11.983  14.117  0.3973  0.1224 -0.2147
30458W        W47306   4.362  16.579  12.078  0.0703  0.0950 -0.1683
30459W        W47307   3.836   8.463   0.859 -0.0790 -0.2732  0.0511
30460W        W47308  13.360   8.904  10.251 -0.0301  0.0290 -0.2970
30461W        W47309   6.070   3.351  15.924 -0.0003 -0.1722  0.2331
30462W        W47310   6.546  15.000   1.346  0.2052  0.2646  0.0597
30463W        W47311  15.208  14.254   3.120  0.0625  0.2589  0.2765
30464W        W47312  16.730  13.632   3.333  0.2212  0.0523 -0.0633
30465W        W47313   2.302  10.014  10.432 -0.0173  0.0021  0.1784
30466W        W47314   2.736   3.414   2.718  0.1629 -0.2407  0.0936
30467W        W47315   0.612   7.446  16.260 -0.3979  0.2821 -0.1361
30468W        W47316  12.745  15.344  13.320 -0.4118 -0.0207 -0.0435
30469W        W47317  13.009  11.273   2.056 -0.0773  0.0665 -0.3989
30470W        W47318  13.531  16.171   0.752 -0.1602 -0.1415  0.2772
30471W        W47319   7.696  12.051  15.875  0.0305 -0.1081 -0.2560
30472W        W47320  14.768   9.155  16.006  0.1828 -0.2162  0.3051
30473W        W47321   2.692  10.494   2.491  0.2485  0.0825 -0.2896
30474W        W47322  10.006   8.205  16.196 -0.1339 -0.0597  0.1235
30475W        W47323  14.140  10.525   0.264  0.1181  0.0754 -0.0546
30476W        W47324   6.365   9.625   2.549  0.0482  0.3223 -0.4197
30477W        W47325  11.125  17.140   2.254 -0.0153 -0.0123  0.3329
30478W        W47326   6.760   8.689  14.833  0.2099  0.0306  0.1443
30479W        W47327   1.886  16.721   0.235 -0.1579 -0.3702  0.2994
30480W        W47328  11.243   4.825   2.718  0.0255  0.2523 -0.1691
30481W        W47329   7.737   1.143   1.549 -0.0424 -0.0598 -0.1374
30482W        W47330  13.393   6.419  16.382 -0.2971  0.0667  0.1792
30483W        W47331   6.055   1.076   1.921  0.2014 -0.2642 -0.1084
30484W        W47332   3.632   0.753   4.376  0.0285  0.2094  0.0390
30485W        W47333   5.269  13.890  15.261 -0.0157  0.0185 -0.3169
30486W        W47334  13.921   0.556   0.341 -0.2972  0.1208 -0.1579
30487W        W47335   4.547   5.322   1.420 -0.1583  0.0382  0.4645
30488W        W47336   9.849   5.059  16.011  0.2111 -0.1712 -0.1824
30489W        W47337   4.884   5.573  10.711  0.0645  0.0163  0.0919
30490W        W47338   9.542   9.338  14.347 -0.0202  0.2356 -0.1216
30491W        W47339   3.073   9.754   0.334 -0.1149  0.1530  0.3068
30492W        W47340  14.984   5.460   2.006 -0.3131 -0.0908 -0.2041
30493W        W47341   2.170   4.403   5.353  0.2296 -0.2945  0.0389
30494W        W47342  15.300  14.856  14.289  0.1385  0.1743  0.0054
30495W        W47343   2.618  15.392  13.406  0.1554  0.4072  0.1548
30496W        W47344   1.644  17.440  14.515 -0.1025 -0.0575 -0.0216
30497W        W47345  13.609   4.583   0.729 -0.1610 -0.1622 -0.0883
30498W        W47346   4.551  11.065  12.514 -0.2263 -0.0303 -0.2785
30499W        W47347   0.924  13.915   4.697 -0.0842 -0.3866 -0.1703
30500W        W47348  13.253   8.055   1.122 -0.0287 -0.3027 -0.1453
30501W        W47349   5.765  17.040   2.731 -0.0136  0.3406 -0.1151
30502W        W47350   0.926   0.340  16.508  0.1452 -0.0713 -0.0391
30503W        W47351  13.464   3.380  11.941  0.1846  0.0923 -0.0069
30504W        W47352   9.576   2.158   0.101 -0.2162  0.2131  0.0737
30505W        W47353   6.119  17.331   5.016 -0.3502  0.0698  0.2926
30506W        W47354   0.915  14.671   0.618 -0.0548 -0.2603  0.0806
30507W        W47355   3.107   1.760   3.483 -0.6171 -0.2018 -0.0432
30508W        W47356   2.386   2.893   3.914  0.3978 -0.0919  0.2350
30509W        W47357  15.196   9.544  14.483 -0.0207 -0.1463  0.2680
30510W        W47358  13.139   0.087   3.200 -0.0776 -0.1935 -0.0280
30511W        W47359  12.662  11.596  16.381  0.0311 -0.0327 -0.1727
30512W        W47360  15.515   1.893  13.729 -0.4369  0.1836  0.2734
30513W        W47361  13.972   2.615  13.084 -0.0325 -0.1183  0.1827
30514W        W47362   1.120   2.178   1.878  0.1101  0.2386  0.1641
30515W        W47363  12.513   5.014  16.150  0.1648  0.1819  0.0681
30516W        W47364   7.052  16.975   1.452  0.0072  0.0159  0.0732
30517W        W47365   5.028   9.724   4.611  0.0120  0.1555 -0.3372
30518W        W47366  12.848   3.871  16.434  0.1307 -0.1465 -0.0636
30519W        W47367   6.658  14.626   1.824  0.5759  0.2126  0.0290
30520W        W47368   7.163  16.721   4.500  0.0800 -0.3342  0.1879
30521W        W47369   2.529  12.207  14.163 -0.2514  0.1536 -0.3789
30522W        W47370  14.069   4.143  12.331 -0.0113  0.3008  0.0054
30523W        W47371  10.035  16.063  13.654  0.1109 -0.0087  0.2257
30524W        W47372   9.245  15.809  16.442 -0.1992  0.0434 -0.0500
30525W        W47373  11.795  14.734  13.405 -0.0529  0.1110 -0.2475
30526W        W47374   7.290  15.372  14.406 -0.0523  0.1519  0.0786
30527W        W47375  10.431  11.341  14.352  0.0350  0.0820 -0.2564
30528W        W47376   8.041   9.876  13.384 -0.1587 -0.1923 -0.0205
30529W        W47377   1.536   5.586  12.043 -0.0887  0.1872 -0.3148
30530W        W47378   4.138  16.797  11.649 -0.0840 -0.1416  0.1837
30531W        W47379   6.788  10.040  12.875 -0.1390  0.1780  0.1522
30532W        W47380  10.546  11.807  11.427 -0.0108 -0.2816  0.3993
30533W        W47381   1.047   9.039   4.098 -0.0823  0.0126  0.1694
30534W        W47382  15.098   7.209   0.235 -0.0910 -0.0879  0.1803
30535W        W47383  11.149   3.487   1.175  0.0511 -0.1771  0.2596
30536W        W47384  10.430   3.070   0.549 -0.1915  0.1542  0.4459
30537W        W47385  10.103  11.057  11.458 -0.1712  0.0710  0.1379
30538W        W47386   6.534   6.469   5.062 -0.3222 -0.1251  0.4609
30539W        W47387  16.443  13.533   1.868  0.0486 -0.0748 -0.2719
30540W        W47388  14.594   6.053  11.814 -0.1105  0.1297 -0.2893
30541W        W47389   0.920  13.700   0.595  0.2114 -0.2437 -0.1717
30542W        W47390  15.371  12.817  12.452 -0.2080  0.0353  0.2000
30543W        W47391   1.871  10.539  14.944  0.2414  0.0358 -0.0079
30544W        W47392   7.180  12.001   2.811  0.1129 -0.1105  0.2399
30545W        W47393  10.043   4.247   3.427  0.0858  0.2860 -0.0802
30546W        W47394   6.303   2.826  15.644  0.1954 -0.4498  0.0280
30547W        W47395  15.202  12.069   2.728 -0.1295  0.0487 -0.1728
30548W        W47396   2.710   8.977   3.656  0.0931 -0.0919 -0.1418
30549W        W47397   0.060   5.732  10.676  0.0761 -0.4141 -0.3130
30550W        W47398   4.623  16.013   2.100  0.1426 -0.0868  0.2306
30551W        W47399   3.837  11.833  12.834 -0.0665 -0.0180 -0.1511
30552W        W47400   9.587  13.409   3.596 -0.0352 -0.0944  0.1262
30553W        W47401  15.093  11.581   0.883  0.3340 -0.1846 -0.0972
30554W        W47402  14.433   1.033  15.955  0.0175 -0.1177  0.1693
30555W        W47403   1.406  13.550   1.499 -0.1086 -0.0042 -0.5042
30556W        W47404   4.506   6.116   0.068  0.0503 -0.1162 -0.1922
30557W        W47405   6.539   5.001   0.855 -0.0034 -0.0243  0.1071
30558W        W47406  13.919  15.054  12.824 -0.0524  0.1661  0.3097
30559W        W47407  12.448   8.709  12.031  0.1782  0.1539  0.5140
30560W        W47408   2.312   1.026   1.187  0.0953 -0.0917  0.0173
30561W        W47409  10.197  15.961   6.185 -0.1456  0.3320 -0.0037
30562W        W47410   8.264   8.172   1.016  0.1128  0.0528 -0.3193
30563W        W47411   8.226   7.254   1.374 -0.1200  0.0493  0.1246
30564W        W47412   1.468   1.965  16.564 -0.4799  0.0149 -0.0358
30565W        W47413   3.134   2.079   1.938 -0.0820  0.0620  0.0869
30566W        W47414   7.118  10.930  15.549 -0.0207  0.0764 -0.0255
30567W        W47415   6.993   6.540  15.776 -0.3203 -0.1639  0.1698
30568W        W47416   8.648   5.608   2.234 -0.1558 -0.1116 -0.3007
30569W        W47417   3.951  10.783  15.720  0.3761  0.0920  0.1213
30570W        W47418   4.899   2.268   1.038  0.1254 -0.0629  0.1839
30571W        W47419  11.439   4.730   3.217 -0.2786  0.1711  0.0117
30572W        W47420  10.584  12.092  14.165 -0.2048  0.3760  0.0986
30573W        W47421   2.186   4.222   4.903 -0.3212 -0.1415  0.0516
30574W        W47422   0.809  12.133  16.400 -0.1247 -0.1800  0.1775
30575W        W47423  15.113   2.299   3.115 -0.0720 -0.0633  0.0803
30576W        W47424  16.011   3.149  14.483  0.1840  0.2551  0.0770
30577W        W47425   5.675  15.367  10.935 -0.2005  0.0701  0.1193
30578W        W47426   0.675  13.856  14.414 -0.1411  0.0891  0.2804
30579W        W47427   0.567  11.893  11.806 -0.4859 -0.1017  0.4262
30580W        W47428   0.236   6.183  15.320 -0.0281  0.1132 -0.1221
30581W        W47429   7.138  14.953   3.117 -0.0661  0.1279  0.0807
30582W        W47430   9.761  10.825  11.134  0.0691 -0.2272 -0.1935
30583W        W47431  13.773   7.459   0.845  0.1307 -0.1836  0.2130
30584W        W47432  11.184   7.308  12.566  0.0159  0.4213 -0.1128
30585W        W47433  15.862   1.085  12.108 -0.1206  0.1099  0.1561
30586W        W47434  17.681  16.865   0.464 -0.0160 -0.0807  0.0481
30587W        W47435  12.930   5.429   1.021 -0.0173 -0.0284 -0.0207
30588W        W47436   7.020  13.391   4.064  0.0713  0.3229  0.2022
30589W        W47437  10.119  13.333   1.055 -0.0347  0.0822  0.0641
30590W        W47438  17.431   4.572   3.015 -0.0519 -0.0471  0.2404
30591W        W47439  15.252   1.276  12.915 -0.1728  0.2373 -0.1533
30592W        W47440  13.684   5.333  15.607 -0.0782 -0.0015  0.0156
30593W        W47441   0.071   8.766  13.669 -0.0442  0.0191  0.3508
30594W        W47442   5.803   4.632  15.722  0.0266 -0.1118  0.1269
30595W        W47443   4.660   9.537  15.732  0.1160  0.0534  0.0614
30596W        W47444  11.550   5.553   0.867 -0.0253 -0.5378  0.0639
30597W        W47445  12.361  13.774  15.344 -0.1899  0.0127 -0.0596
30598W        W47446   5.265  12.079   2.719 -0.1685  0.2612 -0.1732
30599W        W47447   3.739  13.382   0.547 -0.0546 -0.0609 -0.0928
30600W        W47448  16.389   8.621  12.755  0.0839  0.2499 -0.0210
30601W        W47449  16.129   8.309  14.998 -0.0154 -0.1237  0.0633
30602W        W47450  15.237   4.463  13.381 -0.4687  0.0268 -0.0758
30603W        W47451  12.704   1.743   0.869  0.3754 -0.1102 -0.3579
30604W        W47452   0.920  13.325   1.460 -0.1843 -0.1446 -0.1041
30605W        W47453   1.990   2.719   4.267 -0.0278  0.0036  0.0829
30606W        W47454   5.720   6.642  13.457  0.2072 -0.0952 -0.0180
30607W        W47455   9.813   2.189  13.654 -0.1917 -0.0280  0.0956
30608W        W47456   1.821   7.166   3.279 -0.1836 -0.2929 -0.0224
30609W        W47457   9.824   1.529   5.119 -0.1335  0.1276  0.3724
30610W        W47458   7.282  11.704  14.637  0.0805  0.3615  0.3660
30611W        W47459   7.506   8.425   4.498  0.1784  0.0918  0.1762
30612W        W47460  14.922  11.364  16.593 -0.0635 -0.0799 -0.0433
30613W        W47461  12.037   9.746  12.189  0.1328  0.0386 -0.0870
30614W        W47462  14.069  16.669  14.080 -0.2222 -0.1463 -0.2801
30615W        W47463  16.520   5.283  11.742 -0.4190  0.2584 -0.0832
30616W        W47464   6.243  10.036   1.067  0.0161  0.1216  0.0586
30617W        W47465  15.762   7.216  15.985 -0.1372 -0.4320  0.2779
30618W        W47466  11.210   8.659   2.358 -0.1276 -0.0487 -0.1843
30619W        W47467  10.487   6.906  15.589  0.1239  0.0408  0.2899
30620W        W47468  16.952  12.621  12.067  0.3300  0.1746  0.2612
30621W        W47469  10.807   1.542   2.251  0.1065  0.2666  0.1438
30622W        W47470   4.515   1.015   1.810 -0.0676  0.0236 -0.2895
30623W        W47471   2.826   9.573   4.624  0.1236  0.0378 -0.1848
30624W        W47472   5.505   7.369  16.488 -0.0008  0.0324 -0.4125
30625W        W47473   2.981  12.366   2.421 -0.0873  0.1081 -0.0932
30626W        W47474   9.843   0.701   0.358 -0.1779 -0.1525 -0.0576
30627W        W47475  14.813  13.036  11.549 -0.4153  0.0510  0.1294
30628W        W47476   7.962  16.973   5.640 -0.0715 -0.2566  0.1212
30629W        W47477  11.950   5.230  13.916  0.1502 -0.0119 -0.2631
30630W        W47478  10.215   0.326   0.494  0.1561  0.0678  0.0924
30631W        W47479  10.089   1.387  16.404 -0.0503 -0.1461  0.2235
30632W        W47480   4.504  14.136  10.794 -0.0502  0.1098 -0.1607
30633W        W47481   5.177   3.853   4.674 -0.0889 -0.1996 -0.1538
30634W        W47482   6.387   5.981   0.935 -0.0193 -0.1573  0.1171
30635W        W47483  11.041   5.636  15.196 -0.1925 -0.1491 -0.1376
30636W        W47484   1.641   0.223   2.786  0.3450 -0.0346 -0.2631
30637W        W47485  12.091  14.968  13.772  0.1644  0.0621 -0.0688
30638W        W47486  15.143   0.598  13.316 -0.1676  0.1127 -0.1896
30639W        W47487  12.721  11.412   0.162  0.1399 -0.2908 -0.0087
30640W        W47488   6.574  17.703   0.598  0.0901 -0.0432 -0.0726
30641W        W47489  17.198   4.065   3.048 -0.1490  0.0507  0.3878
30642W        W47490  13.005  15.018  13.693  0.0215 -0.0876 -0.1151
30643W        W47491   5.381   5.452  13.936 -0.2685 -0.2016 -0.0359
30644W        W47492  13.568  14.472  16.096  0.1169 -0.1871 -0.0311
30645W        W47493   6.734  12.560  14.135  0.3677  0.0755 -0.0706
30646W        W47494  10.477  15.650   4.410  0.1539  0.1840 -0.2536
30647W        W47495  11.500  12.788  16.288 -0.0881  0.1000 -0.1144
30648W        W47496   0.639   1.778   5.872 -0.0812 -0.0476  0.0686
30649W        W47497   8.205  15.578   5.134  0.0030 -0.2541 -0.1713
30650W        W47498  13.884   7.295  11.345 -0.1126 -0.0385 -0.0332
30651W        W47499   4.835  10.059   3.329 -0.1160  0.1534  0.0014
30652W        W47500  11.212   0.173   3.844 -0.1589  0.1187  0.1151
30653W        W47501   2.862   1.545  15.198 -0.0802 -0.1424  0.0225
30654W        W47502   1.564   3.600   2.151  0.0218 -0.0229  0.0883
30655W        W47503   8.938  13.217   1.149 -0.3127  0.4613 -0.5536
30656W        W47504  11.385   0.812   4.447 -0.1757 -0.2110 -0.0844
30657W        W47505   1.443   0.751   1.222 -0.0433 -0.0448  0.0522
30658W        W47506  16.104   9.795   2.326  0.0290  0.0422 -0.2237
30659W        W47507  10.236  11.707   1.606 -0.2112  0.1658 -0.3157
30660W        W47508   5.506   6.746   5.186  0.0350  0.0405  0.0482
30661W        W47509   1.360   4.671   6.132 -0.0480  0.0601 -0.0794
30662W        W47510  13.196   8.835   0.401 -0.1777 -0.1562 -0.1282
30663W        W47511  14.272   5.841  10.357  0.0189 -0.0509  0.0037
30664W        W47512  10.609  15.101  11.617 -0.1931 -0.1252 -0.1194
30665W        W47513  17.614   1.581   3.077  0.0833  0.2151  0.2518
30666W        W47514  13.350   9.256  13.300 -0.1144 -0.2095  0.0707
30667W        W47515   1.265  15.024  12.614 -0.0992 -0.1377 -0.0775
30668W        W47516  11.320  13.266   0.521  0.0958 -0.0263  0.0073
30669W        W47517  12.654   8.850  10.471 -0.0254  0.1561  0.0661
30670W        W47518   9.143  17.449   1.809  0.2010  0.1916  0.0614
30671W        W47519   3.423  16.660  13.517 -0.0051 -0.0183 -0.4275
30672W        W47520  16.126   5.575  11.977  0.0315  0.0836 -0.0257
30673W        W47521   3.187   8.999   2.966 -0.0917  0.4141  0.1668
30674W        W47522   0.492   4.818  16.064 -0.3924  0.0414 -0.2130
30675W        W47523   8.182   4.534   3.506 -0.3686  0.1190  0.1975
30676W        W47524  11.156  16.826   3.897  0.0909 -0.3717 -0.2732
30677W        W47525  10.385  16.874  12.597  0.1351 -0.1149  0.2816
30678W        W47526  17.029  12.929  13.709  0.1757  0.0144 -0.0130
30679W        W47527   7.611  11.370   3.335 -0.0400 -0.1318 -0.1524
30680W        W47528   8.557  14.253  13.578  0.0075 -0.1806 -0.1755
30681W        W47529   3.336   9.303   5.431 -0.1332  0.2085  0.0536
30682W        W47530  14.775  15.539  12.551 -0.2843 -0.1619 -0.1241
30683W        W47531   6.844  15.320  15.148 -0.0680  0.0425 -0.0557
30684W        W47532  16.479  14.122   3.284  0.3428  0.0593  0.0477
30685W        W47533  16.474  12.189   1.886  0.1501 -0.1258 -0.4445
30686W        W47534  15.677  12.876  16.325  0.0490 -0.0627  0.0067
30687W        W47535  15.608  16.625   2.212 -0.0454 -0.3230  0.1454
30688W        W47536  14.603   5.854  13.195 -0.0289 -0.2676 -0.2254
30689W        W47537  11.676  10.695   4.472 -0.1928 -0.0828 -0.1264
30690W        W47538   6.432   5.238   3.612  0.0349  0.2165 -0.2004
30691W        W47539   1.376  14.110   3.429  0.1022 -0.0623 -0.0018
30692W        W47540   8.034   5.410   4.518  0.0055 -0.3488 -0.0985
30693W        W47541   3.034   8.774   6.274 -0.2672  0.2399  0.1983
30694W        W47542  17.081   0.182  10.774 -0.1648  0.1467  0.1212
30695W        W47543   0.592  12.334   1.534  0.1059 -0.1546  0.0196
30696W        W47544   1.059  17.233   1.740  0.0890  0.0022 -0.0025
30697W        W47545  15.765   1.552   1.749 -0.0476  0.0824 -0.0999
30698W        W47546   6.315   9.878  15.399  0.2287 -0.2059  0.0854
30699W        W47547   1.143   9.305   0.633  0.0179 -0.2042 -0.1939
30700W        W47548  12.139  12.461  12.961 -0.0189 -0.0478 -0.1413
30701W        W47549  11.276   6.980  16.363  0.0640 -0.0206  0.0284
30702W        W47550   6.599  16.753   1.270  0.0234 -0.3987 -0.1089
30703W        W47551  17.352   6.168   0.089 -0.0671  0.1528 -0.1433
30704W        W47552  16.552   0.848  16.666 -0.0219 -0.2417 -0.1016
30705W        W47553  16.346   1.941  14.032 -0.1417  0.2350  0.1044
30706W        W47554  16.832  15.689   0.613  0.1436 -0.3440  0.1774
30707W        W47555  17.307   1.952  13.731 -0.1411 -0.3544  0.1971
30708W        W47556  11.201  14.417  13.879 -0.4117  0.0469 -0.1110
30709ION     NA47557  10.559   4.440  10.518 -0.3220 -0.1509  0.1943
30710ION     NA47558   1.398   3.948  12.592  0.2601  0.0159  0.2361
30711ION     NA47559  16.688   7.406  10.685  0.3796 -0.3187  0.1995
30712ION     NA47560   6.019   3.472  11.131 -0.3400 -0.2038  0.0773
30713ION     NA47561   6.385  11.541   6.162  0.0967 -0.2261 -0.0607
30714ION     NA47562  11.967   1.064   5.112 -0.1353  0.0976  0.2010
30715ION     NA47563   1.932   2.845   1.819  0.1385 -0.2520  0.0039
30716ION     NA47564  10.403  16.293  13.873 -0.1895  0.0611  0.0567
30717ION     NA47565   1.424  17.224   3.419 -0.0243  0.6244 -0.0536
30718ION     NA47566   2.458   7.071   4.591  0.0014 -0.1799 -0.2749
30719ION     NA47567  16.399   8.684   3.759 -0.0016  0.0016  0.1395
30720ION     NA47568   7.489   6.946  16.461  0.1617  0.0956  0.2714
30721ION     NA47569   0.227   1.184  13.303  0.0734  0.0223  0.1394
30722ION     NA47570  11.029  14.649   6.155 -0.1173  0.2116  0.3358
30723ION     NA47571   4.552   7.185   5.994 -0.2088  0.1790  0.0357
30724ION     NA47572   9.985   0.350  13.708 -0.0454  0.1690 -0.0629
30725ION     NA47573  17.517  14.554   1.645 -0.1820 -0.3909  0.1026
30726ION     NA47574  12.011  12.174  15.862  0.1051  0.2391  0.0648
30727ION     NA47575   8.167  10.096  12.710 -0.1240 -0.2180  0.1839
30728ION     NA47576   8.255   7.634  13.679  0.0744 -0.3065  0.1527
30729ION     NA47577  13.494  11.612  14.793  0.1859  0.1241  0.0010
30730ION     NA47578  12.767   4.378  10.840  0.1659 -0.0057  0.1231
30731ION     NA47579   2.249   9.814   5.877  0.2382  0.3195  0.0247
30732ION     NA47580  13.677  14.390   0.927 -0.2572 -0.2987  0.2081
30733ION     NA47581  13.622   4.273  10.924  0.0380 -0.1026  0.2311
30734ION     NA47582   2.593   7.951  10.497  0.1304  0.2245  0.4213
30735ION     NA47583   7.240   0.745   3.471  0.1300  0.2221  0.2466
30736ION     NA47584   5.396   6.398  14.087 -0.2389  0.1000  0.1589
30737ION     NA47585  11.966   7.999  13.897 -0.3010 -0.3238  0.0830
30738ION     NA47586  10.767   5.389   5.868 -0.0081  0.0922 -0.2738
30739ION     NA47587   0.989  11.730   4.141  0.0119  0.1827 -0.0361
30740ION     NA47588  13.563  12.670   5.762  0.0810 -0.0621  0.1843
30741ION     NA47589  15.110  13.466   0.077 -0.0902  0.0504  0.0812
30742ION     NA47590  12.766   3.512  10.726 -0.4018 -0.1612 -0.1096
30743ION     NA47591   1.048  13.124   0.905  0.0660 -0.0487 -0.0164
30744ION     NA47592  17.679   6.111   0.463 -0.2867 -0.3475  0.0055
30745ION     NA47593   3.101   7.024   5.899 -0.0195 -0.0268 -0.1222
30746ION     NA47594   7.645   3.203   2.118  0.0373  0.1858 -0.1786
30747ION     NA47595  11.483  12.411  11.040  0.1066  0.1335 -0.0233
30748ION     NA47596   2.183   1.726   6.185 -0.3302 -0.1405 -0.3121
30749ION     NA47597   4.622   3.202   4.664  0.0775 -0.1749  0.2620
30750ION     NA47598   0.021  17.256  10.694  0.1578 -0.0772  0.1709
30751ION     NA47599   0.911   7.038   0.543 -0.1354  0.3117  0.0115
30752ION     NA47600   7.466   1.039  12.370 -0.4039  0.3293 -0.2521
30753ION     NA47601   6.610  10.415   5.616 -0.0657 -0.1869  0.0691
30754ION     NA47602  11.114  15.201   0.187 -0.0175 -0.0008  0.2154
30755ION     NA47603  11.029   2.934  10.958 -0.0013  0.1006 -0.1948
30756ION     NA47604   0.395   8.485  11.597  0.3718  0.2054  0.0190
30757ION     NA47605  12.570  13.511   2.768 -0.0098  0.2150 -0.0108
30758ION     NA47606  12.216  10.742  13.619  0.3153  0.0483  0.1755
30759ION     NA47607  14.981  10.995  15.301  0.1353  0.3614  0.1195
30760ION     NA47608   9.164   4.937   1.692 -0.0225 -0.0169 -0.1834
30761ION     NA47609  12.029  11.346  14.977 -0.5386  0.0102 -0.0269
30762ION     NA47610  12.603   0.286  10.965 -0.2131  0.0045  0.3102
30763ION     NA47611  13.323  11.027   0.671 -0.1686  0.1471  0.0693
30764ION     NA47612  15.371   1.022  16.429 -0.1276  0.1712 -0.0268
30765ION     NA47613   3.570  11.794   1.530  0.1542 -0.0188  0.2699
30766ION     NA47614   8.955   1.395  10.623  0.0943  0.0617 -0.1154
30767ION     NA47615  14.906  17.211  14.850  0.2142  0.1112 -0.2297
30768ION     NA47616  11.137   0.618   5.376  0.0163 -0.2525  0.1951
30769ION     NA47617   1.077   2.916   0.095  0.1211 -0.2426  0.0232
30770ION     NA47618   8.515   6.103  16.535  0.1060 -0.3609  0.3357
30771ION     NA47619   3.210  10.042   1.741 -0.0531  0.3550 -0.1468
30772ION     NA47620   1.814   0.704  13.584  0.0533  0.0346  0.3120
30773ION     NA47621  11.951  13.817   6.302  0.1464  0.1066  0.1457
30774ION     NA47622  13.596   7.232  10.826 -0.1093 -0.0453  0.0992
30775ION     NA47623  11.617   7.890   5.945 -0.2784 -0.1163  0.0214
30776ION     NA47624  15.340   0.023  13.765  0.0102 -0.2184 -0.0539
30777ION     NA47625  12.730   6.263   1.741 -0.0638 -0.0906 -0.2561
30778ION     NA47626  17.360   9.932   2.715  0.1440 -0.2304  0.1058
30779ION     NA47627  11.021   0.536  14.619  0.1230  0.2361 -0.0040
30780ION     NA47628   5.448  13.587   3.248 -0.1772 -0.1369  0.2633
30781ION     NA47629   8.053  17.690  14.832  0.2592  0.0862 -0.0461
30782ION     NA47630  16.385  10.860   4.585  0.2122  0.0640  0.1724
30783ION     NA47631  12.119  14.185   2.656 -0.3990 -0.0199  0.1991
30784ION     NA47632   1.062   5.125   6.064 -0.0582 -0.0803  0.0546
30785ION     NA47633   7.326  10.744  10.901 -0.3104  0.1021  0.2481
30786ION     NA47634   7.754  16.447  14.066 -0.1151  0.3099 -0.1370
30787ION     NA47635   5.836   2.044   2.842  0.0478 -0.3294 -0.2955
30788ION     NA47636   3.983  12.871   3.980  0.0601  0.2431 -0.2844
30789ION     NA47637  12.296  10.494   2.692 -0.3598 -0.2124 -0.2585
30790ION     NA47638  10.230  16.886   5.809 -0.1379 -0.1763 -0.1336
30791ION     NA47639  16.908   1.378   6.206 -0.0683 -0.0028 -0.0699
30792ION     NA47640   8.758   3.214  13.897  0.0384 -0.3135  0.1728
30793ION     NA47641   2.225   0.751  15.115 -0.1607 -0.0597 -0.1296
30794ION     NA47642  13.802  12.596  10.533  0.1100  0.0646 -0.2055
30795ION     NA47643  16.557  12.039  10.611 -0.1032  0.0141  0.1515
30796ION     NA47644   5.196  16.620   6.195 -0.0007 -0.0235  0.3228
30797ION     NA47645  13.862   6.311   3.233  0.0255  0.1287  0.0035
30798ION     NA47646   7.768  17.653  10.580  0.0428  0.0000  0.3034
30799ION     NA47647   9.289   5.957  11.018 -0.0010 -0.1236 -0.0342
30800ION     NA47648   1.590   8.989  10.951  0.3902 -0.0232 -0.0116
30801ION     NA47649   7.636   1.376  16.548  0.0272  0.0371  0.1105
30802ION     NA47650  11.668  11.313   3.917 -0.2132 -0.0247 -0.2925
30803ION     NA47651  15.143   4.170   5.997  0.1292  0.4344 -0.0482
30804ION     NA47652   7.414   7.305   1.939 -0.0945 -0.0601  0.1441
30805ION     NA47653   7.794   1.380  15.479  0.0366 -0.0242  0.0376
30806ION     NA47654  10.759   8.543  13.820 -0.0289  0.0125  0.0023
30807ION     NA47655   9.934  15.798  10.634 -0.0371 -0.0704 -0.2218
30808ION     NA47656   4.992   8.618  12.288 -0.0583 -0.0494 -0.0807
30809ION     NA47657   2.857   4.856   0.727 -0.0694  0.1869 -0.1699
30810ION     NA47658   7.630   9.968  11.352 -0.2860  0.1260  0.0203
30811ION     NA47659   2.869   1.206  11.121  0.1763 -0.2060 -0.0846
30812ION     NA47660   4.650  15.494   6.295  0.0151 -0.2457  0.0313
30813ION     NA47661   4.882  10.215  10.720  0.3909  0.1590 -0.2214
30814ION     NA47662   0.458   1.169  10.721  0.0422 -0.0784 -0.0330
30815ION     NA47663  10.382  10.091   4.046  0.0796 -0.1847  0.0714
30816ION     NA47664   1.049   8.440  10.737 -0.0781  0.1008 -0.1232
30817ION     NA47665   1.139  13.262  10.477 -0.0426  0.0425 -0.0006
30818ION     NA47666  11.537   3.919  13.743  0.3031 -0.1733  0.1834
30819ION     NA47667   7.973   4.184   1.616  0.1271 -0.1779  0.0648
30820ION     NA47668  14.089   5.786  10.863 -0.3122  0.0652 -0.1035
30821ION     NA47669  16.514   0.448   6.254  0.1150  0.1907  0.0669
30822ION     NA47670   7.207   9.952  10.626 -0.0963 -0.3462  0.1083
30823ION     NA47671  14.723   9.043  15.525  0.0301 -0.2725  0.0393
30824ION     NA47672  13.677  16.859   2.528  0.2888  0.0261  0.0701
30825ION     NA47673   2.063   6.938   0.807 -0.0762  0.1995  0.2001
30826ION     NA47674  10.107  14.511   5.837  0.0560 -0.0846  0.0335
30827ION     NA47675   2.070  14.184   5.645  0.1463  0.2922 -0.1774
30828ION     NA47676   5.237  10.550   2.463  0.0625 -0.1283 -0.0560
30829ION     NA47677   4.204   6.240  10.813  0.0456  0.1209  0.2270
30830ION     NA47678   1.952   2.613  15.268  0.1869  0.1078  0.2735
30831ION     NA47679  13.925   9.559  10.404  0.0845 -0.0225 -0.2539
30832ION     NA47680   8.286   6.558   5.278 -0.2838 -0.1396 -0.0163
30833ION     NA47681   5.385   1.166   0.272  0.1727  0.0743 -0.4857
30834ION     NA47682   8.833  10.680  14.830 -0.0949 -0.1080  0.1772
30835ION     NA47683  10.131  16.428   3.707 -0.2689 -0.3841  0.2384
30836ION     NA47684  12.155   2.944   0.503 -0.1338  0.0066 -0.2373
30837ION     NA47685   5.993   6.075   5.981  0.0133  0.0663  0.0466
30838ION     NA47686   9.624  16.901   1.667  0.0815  0.0254 -0.3506
30839ION     NA47687   1.856   9.254   1.104  0.1599 -0.2165 -0.2435
30840ION     NA47688   6.472  14.452   6.242 -0.0279 -0.0254 -0.2418
30841ION     NA47689  13.548  10.390  15.349  0.0591  0.0198 -0.0514
30842ION     NA47690   1.621   9.497  16.334  0.0102 -0.1061 -0.3250
30843ION     NA47691   1.508  11.442   1.643 -0.3930  0.1996  0.1070
30844ION     NA47692   1.486  14.038  10.597  0.2716 -0.2039  0.1792
30845ION     NA47693   8.551  15.071  10.779  0.2018 -0.1650 -0.0603
30846ION     NA47694  10.757   0.311  12.234  0.1081 -0.3500  0.1706
30847ION     NA47695  13.485   0.146  10.933  0.0143 -0.2201  0.2395
30848ION     NA47696  13.043  11.493  12.736 -0.1037 -0.2765  0.2822
30849ION     NA47697   6.372   9.007  10.536  0.0568 -0.1304  0.1651
30850ION     NA47698   0.071   8.911   4.223  0.1868 -0.2521  0.3279
30851ION     NA47699   2.767   8.028  12.215  0.1020  0.1380  0.1120
30852ION     NA47700   1.014   6.173   4.966 -0.2647 -0.1694 -0.0533
30853ION     NA47701  17.233   5.408   5.778 -0.1163  0.2230 -0.1444
30854ION     NA47702  13.513   2.798   0.129 -0.1363 -0.0438 -0.1389
30855ION     NA47703  13.607  12.818  15.612 -0.2934  0.0408  0.1097
30856ION     NA47704  16.888   8.670  10.898  0.0923 -0.2903  0.0232
30857ION     NA47705  13.939   2.188   2.339  0.3179 -0.0768  0.2171
30858ION     NA47706   7.731  16.296   1.958 -0.0472  0.0065  0.2787
30859ION     NA47707  15.597  14.342  16.283 -0.0027 -0.0025 -0.3197
30860ION     NA47708  16.542   9.867   3.048  0.2535  0.2262 -0.1433
30861ION     NA47709   9.083  14.414  13.514 -0.3364  0.1585  0.0455
30862ION     NA47710   6.336   3.184  10.856 -0.0554  0.1307  0.0538
30863ION     NA47711   9.233  10.754  15.834  0.0584  0.1097  0.1257
30864ION     NA47712   7.723  13.086   1.127  0.3452 -0.2672 -0.1508
30865ION     NA47713  13.341  14.998  10.842  0.0204 -0.1899  0.1497
30866ION     NA47714   5.821  12.813   2.314  0.0889 -0.2352  0.2909
30867ION     NA47715  17.000  10.775  10.847  0.1118  0.1623  0.1762
30868ION     NA47716   2.917  17.217  11.103  0.1423 -0.2906  0.3600
30869ION     NA47717  17.054   8.464  13.611  0.1475 -0.0920  0.0805
30870ION     NA47718   0.560   6.363   6.134  0.1633 -0.0106  0.0627
30871ION     NA47719   4.443   1.865  10.844  0.1047  0.3269  0.1046
30872ION     NA47720   5.132   9.984  13.684  0.2509  0.0258  0.0758
30873ION     NA47721   5.675   4.533   4.589 -0.1796 -0.0445 -0.0632
30874ION     NA47722   6.533  17.573  13.066  0.0626 -0.2091  0.1951
30875ION     NA47723  13.036  10.393   5.686 -0.2023  0.3065  0.0091
30876ION     NA47724  10.302   4.396   0.361 -0.0951 -0.3771  0.3367
30877ION     NA47725   7.132  15.089   0.569 -0.1865 -0.1139 -0.1187
30878ION     NA47726   1.365   5.562   6.164  0.0879  0.1059  0.3780
30879ION     NA47727   4.755  13.231  10.980 -0.1721  0.0120 -0.1054
30880ION     NA47728   5.736  16.590   4.620 -0.4672  0.1943  0.0583
30881ION     NA47729   7.984   7.943   0.212  0.0509  0.2627 -0.1582
30882ION     NA47730   2.280  16.028  10.670 -0.2245  0.0951  0.2483
30883ION     NA47731   6.273   7.204   2.997  0.1297 -0.0955 -0.0289
30884ION     NA47732  10.646   3.798  15.106 -0.0530  0.3740  0.2769
30885ION     NA47733   7.180   1.672  11.382 -0.0520  0.0973  0.2375
30886ION     NA47734  16.326  17.018   5.736 -0.1558 -0.0926 -0.0590
30887ION     NA47735  13.444  13.926   3.417 -0.0053 -0.0267 -0.2554
30888ION     NA47736   7.172   7.169   2.908 -0.2181  0.5508 -0.0372
30889ION     NA47737  10.877  17.213  10.892 -0.0464 -0.1781 -0.1396
30890ION     NA47738   4.190   6.892   2.043 -0.1175 -0.2169  0.0759
30891ION     NA47739  10.637   9.989  10.647  0.2170 -0.1323 -0.1352
30892ION     NA47740   0.934  15.725  10.707  0.1064  0.0692  0.1265
30893ION     NA47741   1.184  10.485  10.219 -0.1708 -0.0686 -0.0196
30894ION     NA47742   7.205  12.578   6.098  0.0291 -0.2275 -0.0861
30895ION     NA47743   2.788   2.492  10.858 -0.0884  0.0066 -0.0994
30896ION     NA47744  14.500  14.415  14.449 -0.1728 -0.1669 -0.0345
30897ION     NA47745  16.654  14.837   0.889  0.1034 -0.0375 -0.0682
30898ION     NA47746   1.981   7.209   1.593 -0.2331  0.0583  0.1112
30899ION     NA47747  10.455  12.385  11.014 -0.0224 -0.0391  0.2169
30900ION     NA47748   6.010   2.493  14.386  0.0596  0.0144  0.3772
30901ION     NA47749   7.571  14.887   2.306  0.1632 -0.0844  0.2485
30902ION     NA47750   9.283  10.207  10.553 -0.2773  0.4264  0.0050
30903ION     NA47751   4.174  10.306  11.872  0.1949  0.1409 -0.0303
30904ION     NA47752   6.803  11.730   3.276 -0.1997 -0.0737  0.2074
30905ION     NA47753  16.601   0.644   2.315  0.0712 -0.1312  0.0741
30906ION     NA47754   7.786  16.427   6.105  0.0350  0.1660 -0.0241
30907ION     NA47755   3.205   7.529  15.469 -0.4865 -0.0404  0.1099
30908ION     NA47756   1.688  14.657   5.335 -0.2669  0.0948  0.0593
30909ION     NA47757  15.984  11.198  16.228 -0.3644 -0.1045  0.0485
30910ION     NA47758  11.886  13.002   5.808  0.4450  0.0693  0.1206
30911ION     NA47759  15.861   6.162   3.124  0.0685 -0.0404 -0.1282
30912ION     NA47760  13.862  10.801   5.877 -0.0105 -0.0011 -0.0362
30913ION     NA47761  14.051  14.187  11.047  0.0153  0.1446 -0.1018
30914ION     NA47762  10.064   9.273  14.381  0.0914 -0.1361  0.1669
30915ION     NA47763   2.658  13.054   3.691 -0.0479 -0.1304 -0.2303
30916ION     NA47764   2.361   6.732  14.699  0.1007 -0.2648 -0.0729
30917ION     NA47765   7.468   2.557  15.930 -0.0673 -0.1007  0.1666
30918ION     NA47766  15.536   8.394  11.231 -0.0445 -0.0477 -0.1110
30919ION     NA47767  10.037  12.693   0.354  0.1831 -0.3318 -0.4963
30920ION     NA47768   3.354  11.821  15.228  0.2814 -0.0382 -0.3379
30921ION     NA47769  15.891   4.101  14.022 -0.0958  0.0032 -0.2242
30922ION     NA47770   4.734  14.787   6.400  0.2641 -0.1053  0.3301
30923ION     NA47771  16.878  11.162  13.039 -0.4315 -0.0156  0.1000
30924ION     NA47772   4.920   4.311   2.501  0.1241 -0.2292 -0.0070
30925ION     NA47773  12.002  12.164   5.613 -0.3354 -0.0014  0.0976
30926ION     NA47774  13.388   6.293   0.953 -0.2879  0.2333 -0.0053
30927ION     NA47775  11.146  14.593  10.945 -0.4662  0.0771 -0.0380
30928ION     NA47776  17.412  11.221  13.290 -0.1700  0.1225 -0.1424
30929ION     NA47777  13.193   2.642  15.578  0.2998 -0.0970  0.4345
30930ION     NA47778   5.196  10.926  14.301 -0.2422  0.0782  0.1603
30931ION     NA47779   6.754  14.604  10.617 -0.4941 -0.0783  0.0268
30932ION     NA47780   1.471  11.096   5.973  0.1676  0.2778  0.0463
30933ION     NA47781   7.031  16.639  10.963 -0.1724 -0.1666  0.0620
30934ION     NA47782  11.394  10.806  10.911  0.3555  0.0729 -0.1231
30935ION     NA47783  10.146  13.036   3.730 -0.1587  0.2462  0.0146
30936ION     NA47784   9.452   6.348   3.256 -0.0248 -0.0456 -0.0876
30937ION     NA47785  13.111   9.256   0.672  0.3310  0.1741 -0.0176
30938ION     NA47786   8.431  14.604  14.887  0.2400  0.0669 -0.2474
30939ION     NA47787   3.344  16.079  15.988  0.1039 -0.1019 -0.0473
30940ION     NA47788   8.314   9.891   1.358  0.2102  0.1400 -0.1244
30941ION     NA47789   0.745   3.953  15.167 -0.2191  0.2921  0.2134
30942ION     NA47790   7.353   9.264   0.298 -0.1924  0.1257  0.2250
30943ION     NA47791   0.783   8.297  15.381 -0.1941  0.0198 -0.0956
30944ION     NA47792   0.764  17.265   0.863  0.0795 -0.0552 -0.0055
30945ION     NA47793   7.422  10.953  16.384  0.1972  0.0554 -0.0425
30946ION     NA47794   7.008   6.464   3.353  0.0005  0.2931 -0.1213
30947ION     NA47795   8.402   4.782   0.520 -0.0871  0.1782 -0.1266
30948ION     NA47796   2.377  11.543   5.821  0.1828 -0.0459  0.1922
30949ION     NA47797  17.429   4.409   6.168  0.0369  0.1282 -0.2820
30950ION     NA47798  17.286  15.732   4.041 -0.2309  0.1971 -0.0802
30951ION     NA47799   0.001   3.669  13.018  0.2992  0.1558  0.1614
30952ION     NA47800   0.560  12.141  10.441  0.0743  0.2067 -0.1821
30953ION     NA47801   2.294  11.905   0.686  0.0134  0.0055 -0.0922
30954ION     NA47802   9.051   3.887   2.591  0.1205 -0.1226  0.2038
30955ION     NA47803   4.068  14.329  10.840  0.1934  0.0026  0.1291
30956ION     NA47804   8.467   9.921  10.463 -0.0946 -0.0729  0.0974
30957ION     NA47805   9.822   3.123  15.394 -0.0342  0.0131  0.2594
30958ION     NA47806   3.419  12.564  14.151 -0.0566 -0.3266  0.0062
30959ION     NA47807   3.109  16.370   5.901 -0.1590 -0.0318 -0.1412
30960ION     NA47808   9.828  13.635   6.116  0.0893 -0.0941 -0.0878
30961ION     NA47809   6.433   3.074   5.073  0.0917  0.2472  0.0281
30962ION     NA47810  17.170  10.269  10.667 -0.1098 -0.0052 -0.0009
30963ION     NA47811  11.997   5.439   0.687 -0.2855 -0.0802  0.2102
30964ION     NA47812  14.952  16.233  10.519  0.0691  0.0856 -0.3796
30965ION     NA47813   4.104   0.750  14.215 -0.0427 -0.2426  0.1936
30966ION     NA47814  17.608   9.931  12.035 -0.0363  0.1227  0.3868
30967ION     NA47815   9.731   9.353  15.485 -0.0946  0.1931  0.1177
30968ION     NA47816   9.968   5.586   3.228 -0.2550  0.1003 -0.1417
30969ION     NA47817   8.668   7.258  10.825  0.0082  0.0726  0.1117
30970ION     NA47818   5.922   9.762   5.369 -0.1393 -0.2599  0.2098
30971ION     NA47819  10.498  11.090  10.549  0.3905 -0.1128 -0.1421
30972ION     NA47820  13.104   9.597  10.757 -0.0556  0.0112 -0.3440
30973ION     NA47821   2.897   9.981  14.197 -0.1718  0.1503  0.0269
30974ION     NA47822   0.170   4.946  15.656 -0.1463 -0.1381  0.4080
30975ION     NA47823   4.451  13.834  16.028  0.0090  0.0151 -0.0075
30976ION     NA47824   4.487   5.239  12.949 -0.2478 -0.0764 -0.0087
30977ION     NA47825  10.485   1.630  10.687  0.0625  0.0247  0.1264
30978ION     NA47826  10.585   7.027  10.706 -0.6161  0.4989 -0.1076
30979ION     NA47827   1.182   2.356  11.287 -0.1996 -0.0162 -0.1702
30980ION     NA47828  10.230  12.157   2.353  0.0913 -0.1798 -0.1594
30981ION     NA47829  16.880  11.692  13.925 -0.2858  0.1441  0.0527
30982ION     NA47830   5.690  10.640  13.302 -0.1558 -0.0919 -0.0591
30983ION     NA47831  12.923   4.988   1.384  0.2421  0.0699 -0.1446
30984ION     NA47832   3.010  10.184   6.085  0.0149 -0.0335 -0.3147
30985ION     NA47833   9.869  17.570  10.893  0.0516  0.2495  0.2055
30986ION     NA47834   8.172  12.929   5.997 -0.1661  0.0201 -0.1999
30987ION     NA47835  13.909   4.914   0.954 -0.4840  0.0466  0.0373
30988ION     NA47836  10.029  15.385  13.844 -0.0847 -0.1666 -0.0119
30989ION     NA47837   9.728   0.791   1.975 -0.1255 -0.0152  0.0174
30990ION     NA47838   4.303   5.642  16.095 -0.3950  0.2237 -0.0041
30991ION     NA47839   4.454   7.670  16.518 -0.1425 -0.3544 -0.0992
30992ION     NA47840   8.735  12.309   5.934  0.4464  0.2108  0.1083
30993ION     NA47841   2.365  13.212   5.530  0.2991 -0.1533 -0.0722
30994ION     NA47842  12.176  11.095   5.785 -0.2750 -0.2197  0.2270
30995ION     NA47843   4.459   8.965  10.547 -0.0017  0.0793 -0.0096
30996ION     NA47844   2.116   4.159   6.227  0.0106  0.0396 -0.3245
30997ION     NA47845   0.823  16.412   3.639 -0.1462  0.2749 -0.0933
30998ION     NA47846  10.673   3.629   5.813  0.0714 -0.2088  0.1257
30999ION     NA47847   6.959   7.771  10.859  0.0898 -0.0011 -0.0499
31000ION     NA47848   6.655   6.831  10.627 -0.1573  0.4524  0.1734
31001ION     NA47849  11.984   2.208   2.292 -0.2464  0.0855 -0.0157
31002ION     NA47850  12.996  15.179   5.683  0.2182 -0.1452  0.2958
31003ION     NA47851  11.682  17.138   4.617  0.1409 -0.1964 -0.2135
31004ION     NA47852   4.157  12.021  12.163 -0.0079  0.0433  0.0909
31005ION     NA47853   8.776   3.824   6.059  0.0187  0.0518 -0.0003
31006ION     NA47854   8.210   1.109  10.738  0.1064 -0.3652 -0.1692
31007ION     NA47855   6.828  11.433  14.899 -0.3874  0.2079  0.0678
31008ION     NA47856  16.626   0.810  11.642 -0.3473 -0.0174 -0.2320
31009ION     NA47857  16.665  13.829  16.204 -0.0145 -0.2020  0.1611
31010ION     NA47858   2.452   4.875   2.011  0.0872  0.0875 -0.0557
31011ION     NA47859  10.669  13.660   5.340 -0.0673  0.0233 -0.1635
31012ION     NA47860   5.841  12.337   6.188  0.3185  0.1573  0.0239
31013ION     NA47861   3.777  15.639   6.217  0.2191  0.0781 -0.0245
31014ION     NA47862   8.084   4.313  13.831 -0.2776  0.3190 -0.1048
31015ION     NA47863   5.028   1.670   3.227  0.1188  0.3800  0.1203
31016ION     NA47864   4.398   4.259   3.457  0.1091 -0.0360 -0.1364
31017ION     NA47865   0.526  14.021   2.553  0.3805 -0.1506  0.0699
31018ION     NA47866   1.291  12.162   3.214  0.1207 -0.1846 -0.1447
31019ION     NA47867   8.022   4.022   2.845  0.0821  0.2077  0.0850
31020ION     NA47868   8.496  11.077   3.194 -0.3418 -0.2410 -0.1308
31021ION     NA47869   3.337   3.608  10.863  0.1359  0.2284  0.3176
31022ION     NA47870  16.604   4.663   5.770  0.0637  0.0087  0.0178
31023ION     NA47871   7.018  17.512   0.852  0.2218  0.1554 -0.2286
31024ION     NA47872   3.603   2.311   1.991  0.3716 -0.1279 -0.0950
31025ION     NA47873  11.321  16.823   1.487  0.0188 -0.1339 -0.1078
31026ION     NA47874   1.724   5.116  13.544 -0.0221  0.0356 -0.0097
31027ION     NA47875  15.025   6.261   6.238  0.0332  0.0156 -0.0168
31028ION     NA47876  14.744  14.040   3.048  0.1108  0.1136 -0.1293
31029ION     NA47877  12.767  12.039   4.587  0.1167 -0.2845  0.1604
31030ION     NA47878  15.461   4.296   4.057 -0.2169  0.0652  0.0998
31031ION     NA47879  13.661  17.550  13.782  0.2315 -0.3862  0.3232
31032ION     NA47880  14.213  11.318  10.922 -0.2897 -0.0228 -0.5875
31033ION     NA47881   3.347   0.978  12.382  0.2866  0.0350 -0.3793
31034ION     NA47882  16.176   7.019   4.473 -0.1076 -0.2515  0.1136
31035ION     NA47883  15.013   5.779  16.450 -0.3032  0.1246  0.3029
31036ION     NA47884   0.773   5.155  10.928  0.0118 -0.0392 -0.1172
31037ION     NA47885   1.048   3.238   2.011  0.0378  0.0573  0.1606
31038ION     NA47886  16.442   9.526  10.592  0.0291 -0.2033 -0.0181
31039ION     NA47887   8.844   0.808   6.214 -0.0419  0.3517  0.1965
31040ION     NA47888   6.885   3.072  13.538  0.0223 -0.2279  0.0914
31041ION     NA47889   1.426  17.563  11.747  0.1126 -0.2009  0.1928
31042ION     NA47890   0.074   7.372   0.748 -0.0104 -0.2827 -0.1591
31043ION     NA47891   2.061  16.767  10.853 -0.0869  0.1569 -0.1310
31044ION     NA47892  10.112   5.389  15.651 -0.1885  0.1334 -0.3118
31045ION     NA47893   8.725  10.619   5.334  0.0667 -0.1387 -0.3126
31046ION     NA47894   5.180   0.721  14.059 -0.2092 -0.1867 -0.0615
31047ION     NA47895   2.357   8.597   5.353  0.0429 -0.2612 -0.3617
31048ION     NA47896   5.657   2.604  10.990 -0.0774 -0.2100 -0.1413
31049ION     NA47897   6.191   0.431   3.367 -0.2917  0.0579  0.1452
31050ION     NA47898   5.998   6.073  10.826 -0.1028 -0.0472 -0.0316
31051ION     NA47899   8.915  13.116  14.801 -0.4327 -0.1324 -0.1506
31052ION     NA47900   9.062  12.054   4.759  0.1065 -0.1172 -0.1610
31053ION     NA47901   9.620  12.162   5.958 -0.0787  0.1895  0.1546
31054ION     NA47902   2.415  12.996  10.918 -0.0568  0.1989 -0.1288
31055ION     NA47903   4.771  12.331  10.523  0.0913  0.0075  0.1208
31056ION     NA47904  12.418  14.080   4.723 -0.0987  0.0852 -0.1719
31057ION     NA47905   8.573  10.220   6.128 -0.0110  0.2748  0.0714
31058ION     NA47906  13.600   9.714  16.174  0.1919 -0.2515 -0.0056
31059ION     NA47907   3.800   9.868  14.491 -0.0533 -0.1637 -0.2307
31060ION     NA47908  13.467  12.379   3.293 -0.1259 -0.0116 -0.0560
31061ION     NA47909   9.305  12.239  13.702  0.1672 -0.0798 -0.1371
31062ION     NA47910   5.571   2.975  13.099 -0.4122  0.0586  0.0068
31063ION     NA47911  13.778   8.433   2.206 -0.1565 -0.0371  0.2167
31064ION     NA47912  15.745  13.337  14.879  0.4159  0.1471  0.3042
31065ION     NA47913   8.847  10.888  10.622 -0.2700  0.0787  0.0240
31066ION     NA47914   0.510  16.707   6.198 -0.0501 -0.0102  0.1625
31067ION     NA47915   8.778   1.946  16.183 -0.0946 -0.1538  0.0385
31068ION     NA47916  16.076   6.822   6.248 -0.0117 -0.3557  0.2431
31069ION     NA47917   9.717   6.352   5.863 -0.1213  0.2295 -0.0448
31070ION     NA47918  12.121   8.989  10.688  0.1476 -0.0245  0.0704
31071ION     NA47919   4.645  14.109  14.096  0.4430 -0.3815  0.1617
31072ION     NA47920  16.520   3.434   0.199  0.0565  0.2088  0.2565
31073ION     NA47921   9.654   6.685   5.515  0.1101 -0.3039 -0.0751
31074ION     NA47922   5.758   5.263  10.666 -0.0709  0.1700 -0.0538
31075ION     NA47923   1.473   1.497  14.708  0.1110 -0.3264 -0.1449
31076ION     NA47924  17.352  12.288  10.674  0.2185  0.1916 -0.0420
31077ION     NA47925   7.431   8.341   5.740  0.0891 -0.0644  0.2064
31078ION     NA47926  15.527   3.200  10.938 -0.0493 -0.1165  0.1664
31079ION     NA47927  11.836  17.049  15.071 -0.1690  0.0036  0.0415
31080ION     NA47928   0.110  10.872   4.672 -0.0037 -0.1763 -0.0498
31081ION     NA47929  14.268   7.618   6.065  0.0714 -0.0524 -0.0303
31082ION     NA47930   2.922   7.040  16.546 -0.0592  0.0963 -0.0375
31083ION     NA47931   3.927   7.102   0.759 -0.3295 -0.0677 -0.0605
31084ION     NA47932  12.671   4.729  11.218 -0.2260 -0.0828  0.3519
31085ION     NA47933  13.340  15.454  13.486  0.0469  0.0504  0.0585
31086ION     NA47934  12.278   0.096  16.171 -0.1238 -0.2270 -0.1593
31087ION     NA47935   0.344  11.779   5.844  0.1017  0.2155  0.0975
31088ION     NA47936  14.568   7.889  14.422  0.1851  0.2817 -0.0059
31089ION     NA47937   2.587  14.972   5.694  0.0535  0.3956  0.0384
31090ION     NA47938  17.467  17.402   1.765  0.2067 -0.2470 -0.0064
31091ION     NA47939  17.502   3.665   4.267 -0.0923 -0.2753 -0.1826
31092ION     NA47940  10.256   0.764  10.883 -0.0275  0.0964 -0.0657
31093ION     NA47941   8.567  11.914   0.667 -0.2558 -0.0175 -0.1690
31094ION     NA47942   4.145   7.254  13.614 -0.1920  0.1283  0.0974
31095ION     NA47943   6.041   9.961   2.758 -0.0023  0.1609  0.2299
31096ION     NA47944  13.473   0.710  15.794 -0.0264 -0.2165 -0.2489
31097ION     NA47945   2.607   3.421   6.264 -0.0487 -0.0420 -0.0245
31098ION     NA47946   8.272  15.904  12.737  0.0461 -0.2355  0.0863
31099ION     NA47947  10.135   7.967   0.803  0.0965  0.4549 -0.1118
31100ION     NA47948   7.262  12.510  10.548  0.1658 -0.0956 -0.0213
31101ION     NA47949  15.213  17.344   5.796  0.0065 -0.2699  0.1406
31102ION     NA47950  11.067   7.432   5.993  0.0611 -0.1917 -0.1923
31103ION     NA47951  16.575   3.376   2.873  0.0288  0.2658 -0.1176
31104ION     NA47952  11.956  15.269   5.777  0.1598 -0.2978  0.1349
31105ION     NA47953  13.531   0.932  11.104  0.1954 -0.0425  0.2774
31106ION     NA47954   8.590  15.956  14.974  0.0038  0.0042  0.0927
31107ION     NA47955  16.436   6.143   0.014  0.0647  0.0311 -0.0554
31108ION     NA47956   6.895  12.874   3.948  0.1657  0.0546 -0.1735
31109ION     NA47957   6.256   2.219   3.896 -0.0654 -0.0052 -0.1967
31110ION     NA47958  17.609   7.951  16.029 -0.1579 -0.1580 -0.0369
31111ION     NA47959   0.544   4.079  10.816 -0.1101  0.2087  0.0652
31112ION     NA47960  13.868  10.363  14.022  0.0707  0.0972 -0.1044
31113ION     NA47961   1.990  16.722  13.379 -0.0597 -0.1403 -0.0787
31114ION     NA47962   6.886   4.100  12.539  0.2226  0.0893  0.2440
31115ION     NA47963   2.322  12.819  11.628 -0.2592  0.1148 -0.0683
31116ION     NA47964   7.685   0.475  16.596 -0.2384  0.2168 -0.3506
31117ION     NA47965   9.656   7.135   1.407  0.2852 -0.0787  0.2199
31118ION     NA47966   9.319  17.660   0.888  0.2577  0.1831 -0.0853
31119ION     NA47967   8.372   3.186   0.151  0.3487 -0.1500 -0.2490
31120ION     NA47968  10.107   5.654   1.567 -0.1202  0.0820 -0.0204
31121ION     NA47969   0.133   4.797   0.348 -0.0458  0.0195  0.4226
31122ION     NA47970  17.495  12.073   0.786  0.2144  0.0288 -0.0200
31123ION     NA47971  16.690  10.857   3.317  0.2677 -0.1842 -0.0399
31124ION     NA47972   2.126   3.079  10.924  0.0807  0.0866  0.2488
31125ION     NA47973  12.263   9.866   1.354 -0.2641  0.2803 -0.0338
31126ION     NA47974  16.658  16.805   2.245  0.0415  0.1492 -0.1815
31127ION     NA47975   1.246  13.031   4.541  0.3356 -0.0511 -0.0308
31128ION     NA47976   8.311  11.942  10.696  0.0240  0.2590 -0.3409
31129ION     NA47977  17.155   1.586  10.911  0.1388  0.3543 -0.0513
31130ION     NA47978   4.883   7.680   0.655  0.0346 -0.1231 -0.0358
31131ION     NA47979   9.120  13.151   2.258  0.0229  0.0508  0.1162
31132ION     NA47980   3.748  13.913   4.265  0.1612 -0.1546  0.1236
31133ION     NA47981   1.250   2.529   6.017 -0.2797 -0.0631 -0.1374
31134ION     NA47982   7.432  14.837   4.395 -0.1809 -0.0714 -0.0931
31135ION     NA47983  11.537  17.284  16.505  0.0457 -0.0589  0.0219
31136ION     NA47984  12.966  14.557  12.491  0.3487 -0.4106 -0.2395
31137ION     NA47985   8.236  12.822  10.776 -0.2008 -0.0358  0.1457
31138ION     NA47986   3.471   2.646   1.080 -0.0449  0.1358 -0.1588
31139ION     NA47987  17.563  15.071  12.481 -0.0924 -0.0391  0.0251
31140ION     NA47988   8.821  17.661   6.365 -0.0140  0.2785  0.0504
31141ION     NA47989  14.992  10.289  10.364 -0.0602 -0.1545  0.2930
31142ION     NA47990  13.123  12.438   5.891  0.1382  0.0956  0.0102
31143ION     NA47991   5.776   0.922   6.096 -0.0218  0.0982 -0.1175
31144ION     NA47992   5.366  11.588   1.945  0.3424  0.1519 -0.3689
31145ION     NA47993  16.873  13.432   6.107 -0.2869  0.0269  0.0724
31146ION     NA47994  10.768  11.316   5.704  0.4128  0.0492 -0.1533
31147ION     NA47995  14.327   0.087  10.917 -0.3293 -0.1232  0.2163
31148ION     NA47996   9.402  15.923  13.725 -0.3043 -0.0720  0.0467
31149ION     NA47997   8.675   9.024  10.764  0.0849  0.2582 -0.1637
31150ION     NA47998  13.504   3.836   1.066 -0.2431  0.3304  0.2474
31151ION     NA47999   9.358   4.321   6.090 -0.0868 -0.2526  0.2613
31152ION     NA48000   7.105   8.667  10.852  0.2206  0.1019 -0.0855
31153ION     NA48001  15.742  13.969  10.760  0.0373  0.0032 -0.0626
31154ION     NA48002  12.926   5.692  13.778  0.0814  0.1711  0.0263
31155ION     NA48003  10.164   8.125   5.783  0.0010 -0.3026  0.1255
31156ION     NA48004   2.192   6.242   1.957 -0.1999  0.0948 -0.2977
31157ION     NA48005  17.609   9.051   0.073  0.0394 -0.1047  0.0422
31158ION     NA48006  15.685   5.800   5.999 -0.0371  0.2753 -0.1955
31159ION     NA48007  12.117   0.863  15.932  0.1898 -0.0621 -0.0184
31160ION     NA48008   7.364   7.407  15.286 -0.1482 -0.0843  0.2881
31161ION     NA48009   4.435  12.677  16.567  0.1754  0.0482  0.0271
31162ION     NA48010   7.313   7.013   5.662  0.2395 -0.0743  0.1947
31163ION     NA48011   8.998   3.773  13.353 -0.0619 -0.1820 -0.2734
31164ION     NA48012   1.916   5.937   3.274  0.2546  0.3217  0.2704
31165ION     NA48013  12.078   4.202  10.823 -0.1008  0.0388 -0.1118
31166ION     NA48014  13.317   6.329  10.703  0.1962 -0.3060 -0.0382
31167ION     NA48015   1.134   6.525   6.022 -0.0203  0.1520 -0.0852
31168ION     NA48016   0.534  12.419   4.653  0.0644  0.2292 -0.3282
31169ION     NA48017  10.951   5.153  12.334 -0.0203 -0.4443  0.3475
31170ION     NA48018   8.456  16.591  16.459 -0.0454 -0.1771  0.1333
31171ION     NA48019   7.267   2.788  10.962  0.1607  0.3933  0.0572
31172ION     NA48020  16.982  10.277  15.350  0.3872  0.2422 -0.0284
31173ION     NA48021  16.651  10.690  12.109  0.0445  0.0314  0.2574
31174ION     NA48022  11.683  13.446  11.016 -0.0543  0.2307  0.0769
31175ION     NA48023  10.674   8.622   0.183  0.1197  0.0021  0.1605
31176ION     NA48024   6.116  16.883  11.025 -0.2755  0.4154  0.0661
31177ION     NA48025   4.315  10.440   4.484  0.2637 -0.0989 -0.1204
31178ION     NA48026   6.333   4.282   5.639  0.1928  0.1590 -0.0908
31179ION     NA48027  11.010  13.455   4.875 -0.0549 -0.0123  0.1540
31180ION     NA48028   2.118  14.117  11.440 -0.0634 -0.0940  0.1563
31181ION     NA48029   7.158  15.943  10.913 -0.1223 -0.0542  0.1552
31182ION     NA48030   6.076  11.037   1.139 -0.1036  0.1115  0.0506
31183ION     NA48031  15.788  11.998   1.160  0.2522  0.1840  0.0955
31184ION     NA48032  11.376   8.631  10.473 -0.2029 -0.0056 -0.0447
31185ION     NA48033   5.163   8.509  16.198 -0.0249 -0.3766 -0.0380
31186ION     NA48034  10.070   4.947  12.117  0.1416  0.0633  0.3345
31187ION     NA48035   6.679   4.057  10.780  0.1261 -0.1580  0.0376
31188ION     NA48036   7.074  17.453   1.640  0.0058 -0.1325  0.0794
31189ION     NA48037  14.202   2.152  14.990 -0.1527 -0.2314  0.1739
31190ION     NA48038   4.032  11.590   5.980  0.0069  0.1238 -0.0994
31191ION     NA48039   1.334   0.335   0.440  0.0930 -0.0511  0.0272
31192ION     NA48040  12.734   7.186  10.494  0.1535  0.1745 -0.2924
31193ION     NA48041   5.858   1.843   5.879  0.2220 -0.0180  0.0044
31194ION     NA48042   1.805  16.284  12.049  0.1488  0.0211 -0.1514
31195ION     NA48043  16.060  10.939   3.438  0.1999  0.2543 -0.1158
31196ION     NA48044  11.080  14.192   2.755  0.1427  0.4369  0.0094
31197ION     NA48045   0.923   5.271  12.402  0.0935  0.0490  0.1862
31198ION     NA48046   8.740   2.711  11.130  0.3426  0.2002 -0.0402
31199ION     NA48047   9.711   9.248   5.935  0.1811 -0.0226 -0.0175
31200ION     NA48048  17.447  16.458   3.287  0.0089 -0.0043 -0.2425
31201ION     NA48049   5.768  12.906  12.444  0.0994 -0.0650  0.0666
31202ION     NA48050  13.821   5.726  15.867 -0.2047  0.1637  0.0142
31203ION     NA48051   2.465   1.745   5.072 -0.2825 -0.0798 -0.2893
31204ION     NA48052  10.759  17.131   0.010 -0.0252  0.2067 -0.1197
31205ION     NA48053  17.538   1.307  15.541  0.1031 -0.0249  0.3501
31206ION     NA48054  15.936   9.238  14.781 -0.0053  0.0002 -0.0745
31207ION     NA48055   0.520  17.511   6.183  0.3870  0.2676 -0.1548
31208ION     NA48056  10.927   2.522   2.189 -0.1057  0.1618  0.1974
31209ION     NA48057   7.795   9.133   5.948 -0.0111  0.0546  0.1050
31210ION     NA48058   0.843  13.066   1.972  0.0810  0.0462 -0.1756
31211ION     NA48059  16.681  17.552  10.683 -0.2867 -0.1887 -0.2442
31212ION     NA48060  14.890   1.397  10.718 -0.0104 -0.0349 -0.1609
31213ION     NA48061   1.236   0.624  10.784  0.1277 -0.2082  0.1335
31214ION     NA48062  13.352   6.963  16.147  0.0559 -0.2165 -0.0559
31215ION     NA48063  10.861  13.935  10.904 -0.2433 -0.2242  0.1970
31216ION     NA48064   6.369   0.738   0.150 -0.0560 -0.0161 -0.0801
31217ION     NA48065   9.415  13.211  15.522 -0.1392 -0.1688 -0.0282
31218ION     NA48066   2.843   0.264   0.971  0.2893  0.1061 -0.2629
31219ION     NA48067  14.117   6.284   5.865 -0.1286 -0.0329  0.0016
31220ION     NA48068  10.671   1.857  14.257 -0.3001  0.0507 -0.2476
31221ION     NA48069   2.541   0.257  15.247 -0.1369 -0.0261  0.1103
31222ION     NA48070   3.520   4.357  15.593 -0.1987  0.1175 -0.1375
31223ION     NA48071   8.592  15.756   6.440  0.0823  0.0329  0.2776
31224ION     NA48072  13.214   1.202  13.524  0.0384  0.2432 -0.0516
31225ION     NA48073  12.551   6.115  13.547  0.0165 -0.3202  0.1824
31226ION     NA48074   6.875   2.477   6.267  0.2133  0.0652  0.0605
31227ION     NA48075   9.749   5.366   0.269  0.3034  0.3806 -0.2185
31228ION     NA48076  13.249   9.017   5.975  0.0781  0.0322 -0.2590
31229ION     NA48077   2.411   9.848  11.804  0.0898  0.1682  0.2146
31230ION     NA48078   6.998  16.901  12.328 -0.1505 -0.0170 -0.1249
31231ION     NA48079   5.494  15.494   6.642 -0.0542  0.4932 -0.0159
31232ION     NA48080   4.306  12.429   6.011  0.3844 -0.3559  0.0279
31233ION     NA48081   4.952  15.715   2.010 -0.2098  0.0171 -0.2888
31234ION     NA48082  12.343  16.394  10.813  0.0687 -0.0838 -0.1668
31235ION     NA48083  17.344   6.508  10.871 -0.3635 -0.2474 -0.0136
31236ION     NA48084  11.979  14.507   6.044  0.1068 -0.2646 -0.0993
31237ION     NA48085  12.116   2.358   5.559  0.1297  0.1386 -0.1206
31238ION     NA48086  15.892   2.595  11.558 -0.1508 -0.4694  0.2153
31239ION     NA48087   8.170  14.128  10.765 -0.1780  0.0466  0.2100
31240ION     NA48088  12.933   5.358  15.584 -0.0729  0.1370 -0.4934
31241ION     NA48089  16.679  15.788  11.801 -0.2488  0.3834 -0.1783
31242ION     NA48090  10.290   6.124   2.362 -0.2213  0.1368  0.1054
31243ION     NA48091   5.763   2.495   6.221 -0.0320 -0.0244  0.0950
31244ION     NA48092   9.755   6.467   0.139 -0.0409 -0.0533  0.1895
31245ION     NA48093   1.327   7.940   0.840 -0.0611  0.0853  0.0422
31246ION     NA48094   6.659   1.807  12.224 -0.0246  0.1067  0.0224
31247ION     NA48095  11.417   1.911  10.861 -0.3011  0.0996  0.0274
31248ION     NA48096  12.355  17.307   0.057 -0.0939  0.3238 -0.2112
31249ION     NA48097  10.747  14.814  12.295  0.2259 -0.2734  0.0318
31250ION     NA48098   8.617   8.094  10.690 -0.0523  0.0496  0.1760
31251ION     NA48099   8.448   6.883   0.064  0.0277  0.0363  0.0315
31252ION     NA48100   6.000  15.555   4.407 -0.1573  0.2169  0.2661
31253ION     NA48101   6.558   7.944   5.708 -0.2983  0.2481  0.1817
31254ION     NA48102   2.623   1.842   3.241 -0.0964 -0.1882 -0.0287
31255ION     NA48103  17.380   5.475   3.994  0.1164 -0.2630  0.0773
31256ION     NA48104  11.108  13.570  15.097 -0.1744 -0.0419 -0.0955
31257ION     NA48105   6.274  15.881  11.368  0.0670 -0.3808 -0.1326
31258ION     NA48106  16.554   4.798  10.816  0.1693  0.0714 -0.1906
31259ION     NA48107   9.593   2.327   6.171  0.0404 -0.0044 -0.0383
31260ION     NA48108  16.178   5.610   4.396 -0.0037 -0.0769 -0.3443
31261ION     NA48109   7.131   2.274   4.795 -0.2597 -0.0175 -0.0738
31262ION     NA48110   2.148   0.183   2.868  0.0253 -0.3710 -0.0870
31263ION     NA48111   6.347  10.286  10.699 -0.1478  0.2632 -0.0863
31264ION     NA48112   0.118   8.294   2.056 -0.0596 -0.0466 -0.0160
31265ION     NA48113  16.459   5.298  16.626 -0.6199 -0.0628 -0.0939
31266ION     NA48114   3.198   9.375  10.504  0.2189 -0.0503  0.2917
31267ION     NA48115   3.877  12.362   2.680 -0.0241 -0.1497 -0.1959
31268ION     NA48116   1.418   9.864  14.951 -0.0171  0.2709  0.1502
31269ION     NA48117  16.940   5.881   3.278  0.0023 -0.0045 -0.1269
31270ION     NA48118  12.046   6.629  11.735 -0.1780 -0.1242  0.0063
31271ION     NA48119   0.270  15.731  15.785 -0.1658 -0.0752 -0.1707
31272ION     NA48120   6.920  15.797  13.595 -0.1627  0.0211 -0.3085
31273ION     NA48121  12.046   7.483   1.201 -0.0396 -0.0756  0.1305
31274ION     NA48122  10.767  11.751  12.405  0.2989 -0.1228 -0.0488
31275ION     NA48123  15.224  12.033  13.601 -0.0463 -0.0287  0.1378
31276ION     NA48124  11.749  13.991   0.494 -0.4145  0.2685 -0.0895
31277ION     NA48125   2.023  17.295  15.773 -0.0478 -0.0683 -0.1484
31278ION     NA48126  15.320   9.256   2.769  0.3920  0.0172 -0.0564
31279ION     NA48127   0.060  15.734  10.967 -0.0733  0.1474  0.1408
31280ION     NA48128  13.029   4.872  13.216 -0.0497  0.0251  0.0483
31281ION     NA48129   0.369  12.982  12.614 -0.0318 -0.0776 -0.0970
31282ION     NA48130   0.568  14.078   5.067 -0.0338 -0.1128  0.0743
31283ION     NA48131  15.393   4.117  10.878 -0.0934 -0.1619  0.0085
31284ION     NA48132   6.635  13.808   2.732 -0.1546  0.1123 -0.4434
31285ION     NA48133  10.400  13.461  15.090 -0.0240  0.1205 -0.0835
31286ION     NA48134   2.288  13.982   2.421 -0.1026 -0.2360  0.0565
31287ION     NA48135   0.158  10.391   6.008 -0.2084  0.3865  0.3890
31288ION     NA48136  14.099   8.899   2.831  0.2392  0.2943  0.2091
31289ION     NA48137   9.091   3.337   1.876  0.1651 -0.2407  0.2559
31290ION     NA48138   4.181  17.325  15.821  0.4850  0.2198 -0.2755
31291ION     NA48139  13.224   5.874  11.936 -0.1144 -0.0019  0.1880
31292ION     NA48140  14.866   3.298  10.867 -0.2673  0.0112 -0.3590
31293ION     NA48141  17.283  13.590   3.358 -0.3346 -0.2397 -0.6660
31294ION     NA48142   8.554  13.832   6.238 -0.0797  0.5157  0.0746
31295ION     NA48143  13.313   8.009   6.089 -0.0414  0.2537 -0.0406
31296ION     NA48144   3.995   9.671  15.659 -0.3179 -0.2763 -0.1042
31297ION     NA48145   9.207   0.712  16.395 -0.0530  0.0524 -0.1153
31298ION     NA48146  10.455   0.938   1.309  0.1450  0.4746 -0.4304
31299ION     NA48147  16.866  15.104   5.663  0.0944  0.0184 -0.1087
31300ION     NA48148   0.536   4.337  12.623 -0.1383  0.1782  0.0616
31301ION     NA48149   9.356  13.929   6.139 -0.2423 -0.0843  0.0817
31302ION     NA48150   5.046  11.986   6.071 -0.1048 -0.0586 -0.0800
31303ION     NA48151  11.462   6.678  10.729  0.0361  0.0695  0.2227
31304ION     NA48152  14.305   4.951  11.046  0.2081 -0.0535  0.1799
31305ION     NA48153   2.458  12.211   2.207  0.0026  0.5154 -0.3099
31306ION     NA48154   7.316  14.465   6.132 -0.1414  0.0043  0.3262
31307ION     NA48155  10.458   0.202   5.867 -0.1578 -0.1323  0.0875
31308ION     NA48156  12.553  17.085   5.468  0.1982  0.3414 -0.0199
31309ION     NA48157  11.816   9.129  15.465  0.1521 -0.0290  0.2423
31310ION     NA48158   8.437  16.497  10.586  0.0114  0.1746 -0.0063
31311ION     NA48159   6.773   5.086   0.427  0.0113  0.1134 -0.1306
31312ION     NA48160   2.342  16.087   5.769 -0.1653  0.3187 -0.1742
31313ION     NA48161   4.816   8.159  10.852  0.0022  0.0546 -0.0796
31314ION     NA48162  14.606  16.582   5.640 -0.2011  0.1430 -0.2373
31315ION     NA48163  11.422   5.982   2.667  0.1380  0.1599  0.0667
31316ION     NA48164   2.848   0.439   3.470  0.1851 -0.0732 -0.0625
31317ION     NA48165   1.188  13.728   3.675  0.1717 -0.1695 -0.0472
31318ION     NA48166  11.681  13.590   4.397 -0.0877 -0.0146 -0.1985
31319ION     NA48167  15.184  17.209  10.984 -0.1194 -0.2231 -0.3183
31320ION     NA48168  16.162   0.762   5.841 -0.0508 -0.1610  0.1997
31321ION     NA48169  10.996  15.375   1.474  0.1136  0.3064 -0.0215
31322ION     NA48170   7.830  10.569   2.182 -0.1497 -0.1519  0.1945
31323ION     NA48171   4.030   5.729   0.707  0.0000 -0.1622  0.1293
31324ION     NA48172  11.611   0.744  12.086  0.1296  0.1839 -0.0839
31325ION     NA48173  15.019   8.104   5.986  0.0739 -0.2087 -0.0472
31326ION     NA48174  13.406  13.509  10.847 -0.2988  0.0432  0.0522
31327ION     NA48175  15.755  15.938   5.536  0.1005 -0.1397 -0.1265
31328ION     NA48176   5.688  14.676   6.514 -0.0373  0.1965 -0.1409
31329ION     NA48177   5.826  11.783  10.564 -0.1198 -0.1700 -0.1474
31330ION     NA48178  16.480   8.920   2.457  0.0502  0.0356 -0.0302
31331ION     NA48179  16.904  14.104   4.892 -0.1322 -0.2216 -0.3402
31332ION     NA48180   9.080   5.089  12.541 -0.2158 -0.2635  0.1496
31333ION     NA48181  13.441   1.613  16.192  0.1124 -0.1204 -0.0197
31334ION     NA48182   3.936   0.791  10.861  0.2099  0.2946  0.1376
31335ION     NA48183  15.679   6.824   2.330 -0.2470  0.4608 -0.2589
31336ION     NA48184  12.035   7.099   6.054 -0.2459 -0.2390  0.0060
31337ION     NA48185   8.063   4.933  10.905  0.0040  0.2791 -0.1018
31338ION     NA48186  13.272   1.379   5.389  0.0498  0.0177 -0.3725
31339ION     NA48187  11.545  16.275   2.870 -0.0167 -0.2117 -0.0065
31340ION     NA48188  12.199  14.170   1.642  0.0785  0.1379  0.1374
31341ION     NA48189   2.214   0.067   6.293 -0.1192  0.2861  0.1021
31342ION     NA48190  10.375  15.759   2.398  0.2822  0.1337  0.2772
31343ION     NA48191   9.210   9.259   4.310 -0.1684 -0.0974  0.3204
31344ION     NA48192  15.783   1.778  15.672 -0.0106 -0.0480 -0.0992
31345ION     NA48193  16.428  11.162   6.049  0.0263 -0.0912 -0.1369
31346ION     NA48194  12.176  12.776  14.335 -0.0968  0.2167 -0.0004
31347ION     NA48195  12.574  14.862  11.251  0.1980 -0.1190  0.1791
31348ION     NA48196  12.139  15.182   2.045  0.2122 -0.0736  0.0530
31349ION     NA48197   0.440   0.032   3.985 -0.1254  0.1040  0.0990
31350ION     NA48198   7.012   0.577   5.682  0.2294  0.1846  0.0221
31351ION     NA48199  15.836   8.535  16.098 -0.3381  0.1729 -0.0737
31352ION     NA48200  16.891  13.105  10.512  0.0411 -0.0967  0.1536
31353ION     NA48201   9.315  16.293   6.601  0.1885 -0.2552 -0.3996
31354ION     NA48202  17.620   5.308  12.732  0.0325 -0.2644  0.0328
31355ION     NA48203   7.996  13.074  14.329  0.2857 -0.0129  0.2610
31356ION     NA48204   6.996   9.139   5.787 -0.2043 -0.1981  0.0361
31357ION     NA48205   0.184  13.804   5.863 -0.0717 -0.0173  0.0756
31358ION     NA48206   9.977   7.989   4.404 -0.0993  0.1315 -0.0085
31359ION     NA48207   6.233  12.430  15.775 -0.0812  0.0887  0.2030
31360ION     NA48208  14.302  13.241  13.043  0.1224  0.0760  0.0195
31361ION     NA48209   1.530  15.810   0.167 -0.0069  0.0907 -0.0907
31362ION     NA48210   5.652  13.648   6.506  0.3264  0.2471 -0.0939
31363ION     NA48211   8.799  11.321  12.569  0.0569  0.0952  0.4032
31364ION     NA48212   7.531  10.416   6.010  0.1601  0.0720 -0.1439
31365ION     NA48213   4.667  15.842  10.942  0.1949 -0.1143 -0.0479
31366ION     NA48214  14.060   7.246   2.907 -0.2063  0.2379  0.0715
31367ION     NA48215   5.222  11.163  10.569 -0.1616 -0.0398 -0.1181
31368ION     NA48216  10.771  17.673  10.859  0.0039  0.0733  0.1916
31369ION     NA48217  11.450  10.472   5.947  0.1763 -0.0824 -0.1860
31370ION     NA48218   9.573   7.387  12.552 -0.1428  0.1210 -0.2606
31371ION     NA48219  13.212   2.638  10.742  0.0201 -0.1377  0.0114
31372ION     NA48220   0.564   1.863   6.339 -0.2311 -0.0381 -0.1041
31373ION     NA48221   4.919   0.250  11.350 -0.0471  0.0536 -0.1463
31374ION     NA48222   7.562   7.780   3.715 -0.2106  0.0609  0.0482
31375ION     NA48223   1.484  17.489   1.921  0.1578  0.1046 -0.0791
31376ION     NA48224  12.789  13.333   5.779 -0.2989  0.2426  0.2846
31377ION     NA48225  14.891  16.023   1.411 -0.0970 -0.0060 -0.0455
31378ION     NA48226  15.739   7.811  11.938  0.1714  0.1809 -0.0623
31379ION     NA48227   3.812  16.719  10.915 -0.2780 -0.1995 -0.1111
31380ION     NA48228   8.913   9.925   0.833  0.1209 -0.2411 -0.0797
31381ION     NA48229   0.397   3.566   6.004  0.2532  0.2912 -0.1857
31382ION     NA48230   4.278   9.694   6.063 -0.0996  0.3212 -0.1675
31383ION     NA48231  16.221  16.609  10.710  0.0795  0.1007  0.2554
31384ION     NA48232   8.617   7.901  14.915  0.0246  0.0208 -0.2302
31385ION     NA48233  16.710   2.971  15.834  0.1108 -0.0095 -0.1712
31386ION     NA48234  13.830   8.702   3.996  0.1233  0.2307 -0.1094
31387ION     NA48235  15.045   1.416   5.944 -0.1295  0.1501 -0.2126
31388ION     NA48236  10.802   4.090   3.539  0.4990 -0.0458 -0.0013
31389ION     NA48237   7.796   5.951   5.760  0.0229 -0.3619  0.1117
31390ION     NA48238  16.202   3.622  10.951  0.0619 -0.1954 -0.2020
31391ION     NA48239   5.895   7.937   5.798  0.0329 -0.1933 -0.0141
31392ION     NA48240  10.563   2.518  16.412  0.1844 -0.0982 -0.2816
31393ION     NA48241   3.392  11.436  11.811  0.1335  0.0182  0.0684
31394ION     NA48242   2.074   4.081  11.239 -0.0550  0.1888  0.0501
31395ION     NA48243  11.265   5.045  15.832  0.2951  0.0228  0.0057
31396ION     NA48244   3.833   7.125  15.013 -0.0986 -0.0676  0.1353
31397ION     NA48245  10.096  11.582  13.570 -0.0892  0.0273  0.1405
31398ION     NA48246  14.817  11.238   3.285  0.0104  0.1626  0.2525
31399ION     NA48247   2.838   2.401   6.176 -0.0432  0.0258 -0.0165
31400ION     NA48248   1.115   7.041   6.029  0.3701  0.1836 -0.1364
31401ION     NA48249   4.605  17.367   5.976 -0.0666  0.1382  0.1707
31402ION     NA48250  12.524  11.533   1.308  0.0892 -0.3401  0.1537
31403ION     NA48251   2.708   5.585  10.830 -0.0521 -0.1439 -0.1031
31404ION     NA48252   5.293   1.976   5.450 -0.0179 -0.2178 -0.0752
31405ION     NA48253   2.314  10.058   2.243 -0.1812  0.0461 -0.0174
31406ION     NA48254   3.345  14.852  14.696 -0.1232 -0.1501 -0.2261
31407ION     NA48255   3.967   0.153  13.065  0.1329 -0.0176  0.2631
31408ION     NA48256  11.728  14.679  12.427 -0.1190 -0.0723  0.3557
31409ION     NA48257  10.667  13.265  16.625 -0.1322 -0.2704  0.1343
31410ION     NA48258  14.045   5.494   2.268 -0.0271  0.0596 -0.0944
31411ION     NA48259   4.763   5.000   6.012 -0.2030 -0.1238 -0.2849
31412ION     NA48260   8.356   6.873  15.979 -0.2230 -0.3329  0.0612
31413ION     NA48261  17.564  16.254   6.110  0.1775 -0.1647 -0.0426
31414ION     NA48262  15.624  15.769  14.170  0.2594 -0.0856  0.1084
31415ION     NA48263   0.303  15.060  15.334 -0.0977  0.2750  0.2634
31416ION     NA48264   7.279   5.223   5.624  0.0464  0.0981  0.2914
31417ION     NA48265  10.195   6.178  10.709 -0.1103  0.0564  0.0691
31418ION     NA48266   3.171  15.691  10.679  0.0615 -0.0751 -0.0653
31419ION     NA48267   5.894  10.802  15.588  0.1499  0.0601 -0.1613
31420ION     NA48268   1.834   7.833  10.726 -0.2720  0.1651  0.1158
31421ION     NA48269   8.037   0.344   6.286 -0.0510  0.1812 -0.2911
31422ION     NA48270   0.362  15.260  13.110 -0.1448 -0.0663  0.0625
31423ION     NA48271   3.274  14.582   4.940  0.0969  0.0874  0.1648
31424ION     NA48272  14.805  14.801  14.536 -0.2791 -0.0078  0.0710
31425ION     NA48273   4.997  14.988  10.832 -0.0096 -0.0769 -0.0455
31426ION     NA48274   4.587  11.895  10.807  0.0280 -0.3537  0.0002
31427ION     NA48275  16.822  15.555  10.797  0.0760 -0.2313 -0.1354
31428ION     NA48276   8.923   4.590  10.815 -0.2149 -0.2353  0.1475
31429ION     NA48277   1.418   1.306   6.534  0.0382 -0.0267 -0.2125
31430ION     NA48278   1.344   7.964  13.412 -0.2235 -0.0318  0.0545
31431ION     NA48279  10.609   5.293   0.837 -0.1474 -0.1780 -0.0901
31432ION     NA48280   1.714   5.559  10.951 -0.0441  0.1827  0.0355
31433ION     NA48281  10.132   4.002  14.436 -0.1518 -0.1080 -0.1022
31434ION     NA48282  16.573  11.071   0.641 -0.0186 -0.0451 -0.1362
31435ION     NA48283   4.612   9.578   2.506  0.1666  0.1607  0.2251
31436ION     NA48284   8.004   4.955  15.851  0.2405 -0.1921  0.0745
31437ION     NA48285   1.216  13.979   5.757 -0.0770  0.0868  0.0434
31438ION     NA48286  15.848  10.222  13.861 -0.1129 -0.1320  0.1916
31439ION     NA48287  13.979   3.631   6.134  0.1535  0.1691  0.2748
31440ION     NA48288  15.719   8.866  10.618  0.0467 -0.0603 -0.2877
31441ION     NA48289  10.684  15.553   3.682 -0.0498 -0.1157  0.0592
31442ION     NA48290  16.561  11.553   3.063  0.2158  0.3241  0.2128
31443ION     NA48291   3.005   2.295  15.111 -0.0566  0.1360  0.1514
31444ION     NA48292   4.585   1.478  15.635 -0.0450  0.1165 -0.0145
31445ION     NA48293   3.873   9.825  10.494  0.1465 -0.0865 -0.1862
31446ION     NA48294  15.273  10.593   5.356  0.0894 -0.2387  0.3381
31447ION     NA48295  13.869  14.727   6.054  0.1657 -0.2247  0.1435
31448ION     NA48296   6.512  17.055  14.259 -0.1899 -0.0553  0.2520
31449ION     NA48297  12.513  13.705  11.126  0.1087  0.1609  0.0046
31450ION     NA48298   7.047   3.383  15.167 -0.0209  0.0426 -0.3361
31451ION     NA48299   5.860   6.234   0.686  0.1925  0.0099 -0.1639
31452ION     NA48300  10.029  13.400  10.772 -0.2100 -0.0695 -0.0340
31453ION     NA48301   2.081   5.140   6.176  0.0086  0.2119  0.0095
31454ION     NA48302  14.179  14.699   3.504 -0.0528  0.1649 -0.0089
31455ION     NA48303   4.517   2.354   2.980 -0.0290  0.1148  0.3146
31456ION     NA48304  10.854   4.597  13.167  0.1756 -0.1998  0.1865
31457ION     NA48305   3.946   1.829   0.814 -0.0822 -0.2607  0.0531
31458ION     NA48306  10.487   7.967   2.471  0.0782  0.1185 -0.3291
31459ION     NA48307  12.021   9.011   0.108 -0.0654 -0.0529  0.0741
31460ION     NA48308  12.436  14.332  14.792 -0.0203 -0.1239  0.1053
31461ION     NA48309   4.160  17.537  10.919  0.0101 -0.2258  0.1443
31462ION     NA48310  12.988   3.295   5.849 -0.2437 -0.2340  0.3065
31463ION     NA48311   1.743  12.310  16.611 -0.0514  0.0876  0.3711
31464ION     NA48312   8.316   4.031   4.057  0.1787  0.2803 -0.0180
31465ION     NA48313  16.282  14.772  10.924 -0.1602 -0.0815 -0.0081
31466ION     NA48314  15.878  12.970  10.598  0.0952 -0.0855 -0.1025
31467ION     NA48315  14.013   7.938  10.470 -0.0480 -0.1090  0.0372
31468ION     NA48316  12.795   7.348  14.253 -0.1129  0.0508  0.1781
31469ION     NA48317   0.625  14.517   5.996  0.2603 -0.0218 -0.0307
31470ION     NA48318  16.941  10.634   2.293 -0.1144  0.2588  0.1517
31471ION     NA48319  13.301   4.186   5.938  0.1541 -0.0170  0.3192
31472ION     NA48320  15.836   2.436  16.241 -0.1470  0.1704 -0.1404
31473ION     NA48321  16.695  17.220   1.267  0.1785 -0.1845 -0.1006
31474ION     NA48322  16.273  14.426  11.406 -0.2093  0.0415  0.3149
31475ION     NA48323   6.750  14.642   3.385  0.2589  0.1187  0.1865
31476ION     NA48324   7.538  13.277   2.513 -0.4526  0.0811  0.0719
31477ION     NA48325  12.219   1.044  10.844  0.0602  0.0003 -0.1109
31478ION     NA48326   3.075  13.283  10.954 -0.0872  0.0377  0.0820
31479ION     NA48327   7.778   3.497   0.596 -0.1078 -0.3096 -0.0528
31480ION     NA48328  14.448  12.635  13.849 -0.2075 -0.0717 -0.3005
31481ION     NA48329  13.157   7.985  13.474  0.0615 -0.3407  0.0987
31482ION     NA48330  11.007  13.706   6.210 -0.0856  0.0979 -0.4546
31483ION     NA48331   9.371  16.057   4.307 -0.3119 -0.2638 -0.0650
31484ION     NA48332   3.395   1.578  14.394  0.0252  0.0639  0.1352
31485ION     NA48333  13.104   4.348  14.899 -0.0801 -0.0791 -0.1105
31486ION     NA48334   1.232   9.441   2.228 -0.1259  0.1881 -0.1321
31487ION     NA48335   8.590   2.255   6.326 -0.0226  0.0863 -0.0814
31488ION     NA48336   3.481   4.214   2.390  0.0045  0.0905 -0.1586
31489ION     NA48337   0.428   0.530  16.421 -0.0427 -0.0385  0.0215
31490ION     NA48338   0.055   6.377  15.742  0.0408 -0.0061  0.0902
31491ION     NA48339   2.014   4.579  14.873  0.0625  0.1389  0.1951
31492ION     NA48340  12.660  11.849   2.467  0.0649 -0.0751  0.0977
31493ION     NA48341   5.036   8.997  14.988  0.0887  0.0127 -0.2719
31494ION     NA48342  15.684   0.208  10.791 -0.0436 -0.1126 -0.0342
31495ION     NA48343   9.768  14.101  10.984 -0.0761 -0.0788  0.0795
31496ION     NA48344   0.942  11.058   0.573  0.0790  0.1760  0.0045
31497ION     NA48345   2.772  13.030   1.739 -0.0926 -0.0308 -0.1833
31498ION     NA48346   9.237  15.167   6.064 -0.0870 -0.2186  0.2894
31499ION     NA48347   6.737   2.468  15.336 -0.0309  0.3207 -0.2323
31500ION     NA48348   2.697   6.052   6.074  0.3779 -0.1719 -0.2486
31501ION     NA48349   7.867   9.267  10.531  0.1631  0.2289  0.1455
31502ION     NA48350  11.234   2.825   5.761  0.0701 -0.3662  0.0952
31503ION     NA48351  11.613   4.829   1.633 -0.3876  0.0864 -0.1218
31504ION     NA48352   4.044   8.932  10.806 -0.4078 -0.1443 -0.0515
31505ION     NA48353   4.255  16.757  13.709 -0.4837 -0.2272  0.3387
31506ION     NA48354  16.572   5.381   1.016  0.3286 -0.0071  0.3450
31507ION     NA48355   9.299   8.605   5.502 -0.1162 -0.0108 -0.1647
31508ION     NA48356  16.812   0.685   3.831 -0.1419  0.2766 -0.0290
31509ION     NA48357   5.479  14.275  10.669  0.0669 -0.1050 -0.0663
31510ION     NA48358   1.120  12.994   5.973 -0.0628 -0.0687 -0.1644
31511ION     NA48359   5.438  10.384   1.128  0.0388 -0.0075 -0.1758
31512ION     NA48360  12.157   8.470   5.493 -0.2230 -0.1671 -0.1004
31513ION     NA48361   0.877   3.013   2.646  0.2117  0.1151 -0.1313
31514ION     NA48362  13.102   7.187   4.418  0.1419  0.1183 -0.0057
31515ION     NA48363  12.672   0.660   5.734 -0.1744 -0.3601 -0.3754
31516ION     NA48364  12.138   6.086  10.870  0.0406 -0.0097  0.2159
31517ION     NA48365   8.648   0.309  10.773  0.0553  0.1548  0.1406
31518ION     NA48366  16.713  12.269   2.434  0.1348 -0.0419 -0.2184
31519ION     NA48367  15.371   2.102   1.484  0.1868 -0.2427  0.1111
31520ION     NA48368  16.254   9.236  15.358 -0.1193  0.0644  0.0616
31521ION     NA48369   4.311   8.480  15.232  0.0772 -0.0913  0.1430
31522ION     NA48370   8.392  14.725   6.214  0.2748 -0.1458 -0.0538
31523ION     NA48371  17.064  16.492  10.751 -0.1822  0.0495 -0.0743
31524ION     NA48372   3.009  12.287  10.755 -0.3813  0.1696 -0.2040
31525ION     NA48373   1.642   5.616  13.077  0.0177  0.0040  0.0043
31526ION     NA48374  13.525  12.146   2.298 -0.1234 -0.2305 -0.2253
31527ION     NA48375  15.117   9.678   1.454  0.1838  0.4576  0.0093
31528ION     NA48376  11.615  16.649   5.445  0.0572 -0.0617  0.0325
31529ION     NA48377   3.989   1.747  10.995  0.0827  0.2238 -0.0431
31530ION     NA48378   8.621  15.866   4.836  0.0426 -0.1661 -0.0188
31531ION     NA48379  13.417   6.790   4.770  0.0373 -0.1481 -0.3445
31532ION     NA48380  13.687  15.891  10.767 -0.0520 -0.0177 -0.0463
31533ION     NA48381  15.831  16.026   3.282  0.2073  0.0007 -0.1543
31534ION     NA48382   4.674  10.969   6.073 -0.1857 -0.1775 -0.1150
31535ION     NA48383  11.641   1.759  16.274 -0.0900 -0.0033 -0.1461
31536ION     NA48384  15.517   4.560  11.765  0.0125  0.1071  0.1409
31537ION     NA48385  16.385   8.013   2.417 -0.1811 -0.0103 -0.1848
31538ION     NA48386   2.182  10.765   6.023 -0.0363 -0.1627 -0.1514
31539ION     NA48387   9.421  14.521  11.578  0.0335  0.0542  0.0481
31540ION     NA48388  16.566  11.925   5.383 -0.0628  0.2719  0.0643
31541ION     NA48389   9.670   8.303  10.787 -0.0856 -0.1300 -0.2745
31542ION     NA48390   7.368  10.747  14.556  0.0451 -0.0137 -0.1270
31543ION     NA48391  12.404   2.996  13.788  0.2322 -0.1544  0.0130
31544ION     NA48392   6.446   1.179  14.061  0.1156 -0.0658  0.4241
31545ION     NA48393   3.970   3.907   2.636  0.0045  0.2961  0.2199
31546ION     NA48394  15.219  11.746  10.992  0.2784 -0.2041 -0.1389
31547ION     NA48395  17.632  12.710   5.789  0.0131  0.2038 -0.0070
31548ION     NA48396  14.881  14.234  10.760 -0.3459  0.0226  0.3128
31549ION     NA48397  17.345  14.130  10.759 -0.2463 -0.1792 -0.2057
31550ION     NA48398  11.626   3.459   3.896  0.1018 -0.1316  0.1865
31551ION     NA48399   7.560   7.125  10.754  0.1093  0.1484 -0.0660
31552ION     NA48400  15.923   7.855   6.329 -0.2288  0.0191 -0.0541
31553ION     NA48401   8.685   8.955   1.689 -0.1976 -0.3038 -0.2010
31554ION     NA48402   4.768   0.664   5.975 -0.2024 -0.0039  0.0964
31555ION     NA48403  10.728   8.217   4.068 -0.0026 -0.0258  0.0865
31556ION     NA48404  14.580   4.471   3.717  0.3325 -0.0902  0.0551
31557ION     NA48405   9.045   6.968  13.398 -0.0745  0.0344  0.4179
31558ION     NA48406   0.311   9.971  10.571  0.1556 -0.1370  0.2934
31559ION     NA48407  16.485  13.350   1.427 -0.4492  0.0714 -0.1306
31560ION     NA48408   3.055  14.243  10.788  0.1491  0.4186  0.0513
31561ION     NA48409   7.985  12.066   6.270 -0.2981  0.1934 -0.1353
31562ION     NA48410  14.578   6.750  10.823 -0.2617  0.0893 -0.3700
31563ION     NA48411  12.566   8.623   1.754  0.0045 -0.1623 -0.1008
31564ION     NA48412  11.420   4.774   5.912  0.3376 -0.1984 -0.1360
31565ION     NA48413   6.709  15.869   1.630  0.0525  0.3775 -0.0321
31566ION     NA48414  12.747  17.462   4.032  0.0263 -0.2238 -0.0043
31567ION     NA48415  13.325   1.691   2.419 -0.0536  0.1149  0.2104
31568ION     NA48416   4.758   2.812  11.007  0.0456 -0.0435  0.2001
31569ION     NA48417  11.952  10.066  10.462 -0.1124  0.0127 -0.0256
31570ION     NA48418   4.070   1.277  16.477  0.1927 -0.2379 -0.0613
31571ION     NA48419   3.682  11.971  16.580 -0.4945  0.0248 -0.2226
31572ION     NA48420   1.786  11.019  14.838 -0.0403  0.0588  0.3059
31573ION     NA48421   9.067   7.304   0.500 -0.0065  0.0386  0.0897
31574ION     NA48422   1.294   7.655   2.536 -0.0289  0.3878  0.2250
31575ION     NA48423  11.883   4.095   2.493  0.0771 -0.2506 -0.2026
31576ION     NA48424  16.294   5.775  10.794 -0.1933  0.4245 -0.0040
31577ION     NA48425   9.247   5.492  15.206 -0.0383 -0.2335  0.0520
31578ION     NA48426   9.163   8.598   5.997 -0.0067  0.0434  0.2863
31579ION     NA48427   2.048   8.990  12.159 -0.0662 -0.2761 -0.1589
31580ION     NA48428  10.189  12.901   6.319 -0.1192 -0.2184 -0.3373
31581ION     NA48429  10.327  11.700   2.117 -0.3079 -0.0498 -0.0791
31582ION     NA48430  10.628   4.920   1.843  0.0030 -0.2378 -0.1683
31583ION     NA48431   1.652  17.460  10.819  0.0390  0.1919  0.1306
31584ION     NA48432   7.336   7.845   5.713 -0.0148 -0.1044 -0.1393
31585ION     NA48433   3.898  15.079  11.611  0.1326 -0.3994  0.0203
31586ION     NA48434  14.686  15.734   5.803  0.4289 -0.1950 -0.0794
31587ION     NA48435   2.311  12.376  15.502  0.2785  0.1753 -0.2758
31588ION     NA48436  17.564  14.515   5.961  0.1403 -0.1870 -0.0442
31589ION     NA48437   4.427   8.459   3.508  0.2007 -0.1211 -0.0720
31590ION     NA48438   5.700   5.712  16.554  0.0364 -0.2592 -0.1092
31591ION     NA48439   2.828   6.456  12.137  0.0832  0.0979  0.4911
31592ION     NA48440   1.769  13.966  12.467 -0.1318 -0.0096  0.1989
31593ION     NA48441   3.497  12.197   6.073  0.1662 -0.2126  0.0404
31594ION     NA48442   3.918  15.311   1.872 -0.1354  0.1601 -0.0396
31595ION     NA48443  17.338  16.797   4.115  0.0642 -0.1539  0.0884
31596ION     NA48444  13.849   2.135   5.807  0.1135 -0.1619  0.5084
31597ION     NA48445  14.683   5.466   6.117  0.2175  0.1097 -0.1027
31598ION     NA48446   9.173  13.306  10.835 -0.2618 -0.0669 -0.4024
31599ION     NA48447   3.488   7.693   0.303  0.0824  0.2982  0.0247
31600ION     NA48448   7.627   5.518  10.856  0.0686  0.3376  0.1183
31601ION     NA48449  15.240  11.088   1.573 -0.1553 -0.2647 -0.3203
31602ION     NA48450   9.141  11.774  10.585 -0.1123 -0.1913  0.0614
31603ION     NA48451  12.240   9.763   5.880  0.3010 -0.2713  0.0452
31604ION     NA48452   1.338  17.235   6.127  0.1391  0.0719 -0.3099
31605ION     NA48453   6.357   6.229  13.259 -0.3103  0.2823 -0.0118
31606ION     NA48454  17.102  15.539  16.089  0.0301 -0.0348 -0.0198
31607ION     NA48455   7.466  17.277   6.283 -0.2494 -0.0313 -0.1125
31608ION     NA48456   5.842   6.412   4.030  0.0089  0.0035  0.1664
31609ION     NA48457  17.670  14.085  15.679  0.0792  0.0794  0.1604
31610ION     NA48458   5.758  13.317   0.936  0.1551  0.1499  0.0720
31611ION     NA48459   1.174  10.401   6.130 -0.1615  0.0059  0.1574
31612ION     NA48460  13.542   0.035  15.665 -0.1553 -0.2122 -0.0721
31613ION     NA48461   6.722   9.966   2.278 -0.1581  0.0842 -0.0749
31614ION     NA48462  12.179   2.292   4.523 -0.0408  0.2083  0.3050
31615ION     NA48463   6.094  16.122  16.192  0.1171  0.1387 -0.0209
31616ION     NA48464  15.110   8.336  10.457  0.2863 -0.1898  0.1467
31617ION     NA48465   5.385   7.175   5.631 -0.3277 -0.2806 -0.0616
31618ION     NA48466   6.600   6.843   0.425 -0.1883 -0.0276  0.0789
31619ION     NA48467   7.598   1.836  11.109 -0.0986 -0.5197  0.0321
31620ION     NA48468  14.312   8.765  10.378 -0.1936 -0.0023 -0.4179
31621ION     NA48469  16.217   3.575  15.328  0.1451 -0.1189 -0.1832
31622ION     NA48470   1.713   3.463   6.109 -0.0569 -0.1784 -0.0650
31623ION     NA48471   3.869   0.137   6.107  0.0897 -0.1243  0.1993
31624ION     NA48472   0.703  16.241  16.336  0.1533  0.0910  0.0535
31625ION     NA48473   9.130  13.059   6.150  0.3267  0.0328  0.1154
31626ION     NA48474  12.673   6.173   0.489 -0.2240 -0.0962  0.1099
31627ION     NA48475   6.060  16.360   6.155 -0.0199  0.3464 -0.0585
31628ION     NA48476   0.111   8.358  14.699 -0.4139  0.3701 -0.0234
31629ION     NA48477   6.340  12.558  10.628  0.2454 -0.0526 -0.0510
31630ION     NA48478   6.269  16.203   0.484  0.0904  0.1077  0.0758
31631ION     NA48479  16.694   7.627  15.092 -0.1790 -0.1663 -0.1787
31632ION     NA48480   8.035   3.893  14.242  0.2323 -0.0353 -0.0288
31633ION     NA48481   9.587  11.887  12.864  0.0554  0.0491  0.2627
31634ION     NA48482   8.670   8.453  12.364  0.1870 -0.0737  0.1473
31635ION     NA48483   0.261  13.519  10.282  0.1423  0.0861 -0.4615
31636ION     NA48484  17.584  17.242  14.731  0.1062  0.0004  0.2704
31637ION     NA48485   1.990   2.110  11.092 -0.0798  0.0588 -0.2138
31638ION     NA48486  17.492   7.025   6.124  0.3105  0.0052 -0.1501
31639ION     NA48487   5.204  10.026   5.999 -0.1166 -0.0724  0.0308
31640ION     NA48488  17.253   6.054   1.810  0.4738  0.0740 -0.1876
31641ION     NA48489   4.615  10.536  12.733  0.4066 -0.0488  0.1277
31642ION     NA48490  10.440  11.167  16.476 -0.0701 -0.1009 -0.0938
31643ION     NA48491   3.903   2.656  15.085 -0.0413  0.0823 -0.0983
31644ION     NA48492  11.787   8.512  13.062  0.1857 -0.1117  0.4236
31645ION     NA48493  15.339   5.787  11.182  0.0920  0.3208 -0.0142
31646ION     NA48494  13.760  10.995  13.173 -0.1866 -0.0081 -0.1757
31647ION     NA48495   6.186  15.896  10.641 -0.0640 -0.1684  0.1128
31648ION     NA48496   0.586   9.001   3.871 -0.0192 -0.1506  0.1365
31649ION     NA48497  11.773  17.657  10.745  0.1939 -0.0619 -0.1894
31650ION     NA48498  16.801   1.784   5.994 -0.0142 -0.0636 -0.1850
31651ION     NA48499   3.951   6.430   5.664  0.0156 -0.0392  0.0335
31652ION     NA48500   4.093  14.604   2.545  0.1181  0.1125 -0.3852
31653ION     NA48501   3.114  10.323  10.329 -0.0126  0.0206 -0.0192
31654ION     NA48502  15.439   3.158   6.024  0.1185  0.1142  0.1276
31655ION     NA48503  13.743  13.114   5.986  0.0476 -0.4008  0.1236
31656ION     NA48504  11.366  16.923  15.529  0.1517 -0.1022  0.0724
31657ION     NA48505   9.390   8.325  11.695 -0.0176 -0.0429 -0.3611
31658ION     NA48506   5.987  10.441   5.843 -0.0592 -0.0024  0.0902
31659ION     NA48507  11.518  14.320   4.100  0.4384 -0.2279  0.1704
31660ION     NA48508  17.619  13.439   1.309  0.0944 -0.0625  0.1323
31661ION     NA48509   5.357  16.308  10.878 -0.2616 -0.2684 -0.0696
31662ION     NA48510   9.866  11.368   3.582  0.1217  0.2926 -0.2100
31663ION     NA48511  13.464   5.132  10.870 -0.2046  0.1336  0.0730
31664ION     NA48512   5.826   4.693  15.204  0.4637  0.1622 -0.0584
31665ION     NA48513   9.821   6.499  11.445 -0.0612  0.2904 -0.1616
31666ION     NA48514  10.715  14.339  14.157 -0.3815  0.1808 -0.0514
31667ION     NA48515   6.898  11.791  12.714 -0.3044  0.3533 -0.1962
31668ION     NA48516  13.765  13.768  16.361 -0.1971  0.1789 -0.0954
31669ION     NA48517  13.048  11.001   3.449  0.0456  0.2266 -0.2388
31670ION     NA48518   8.191   4.029  10.723  0.1234  0.0077  0.0895
31671ION     NA48519   5.582  13.249  10.718 -0.4914 -0.1109 -0.3627
31672ION     NA48520   6.010   2.413   1.173 -0.1121 -0.0815  0.1130
31673ION     NA48521   7.340   4.322   6.077  0.0187 -0.1128  0.2651
31674ION     NA48522  16.399  13.306   3.464  0.0974  0.2044 -0.2808
31675ION     NA48523  15.148   5.757   3.522  0.1911 -0.0187 -0.0802
31676ION     NA48524   0.878  13.813   1.362 -0.0763 -0.1227  0.1089
31677ION     NA48525  17.169   2.606  10.837  0.1048  0.1669 -0.2196
31678ION     NA48526  15.412   2.313   6.017  0.2829 -0.0435  0.0326
31679ION     NA48527   6.175   8.385  13.597  0.0074 -0.2205  0.1672
31680ION     NA48528  14.712   0.037   2.299  0.0436 -0.1253 -0.0347
31681ION     NA48529   5.026   4.220   6.024 -0.1206 -0.0466 -0.1812
31682ION     NA48530  13.784   9.812   5.589  0.4732 -0.0218  0.0612
31683ION     NA48531   1.438  15.014  10.736 -0.1488  0.1005  0.0104
31684ION     NA48532   4.185  13.219   5.996  0.0670 -0.0949  0.1221
31685ION     NA48533   3.968  15.308  10.812 -0.1269  0.1200  0.2475
31686ION     NA48534  10.484   9.164   5.830 -0.0389  0.0297 -0.0029
31687ION     NA48535  14.587   3.287  13.182  0.0009 -0.1567 -0.1116
31688ION     NA48536   6.084  16.794   1.208  0.0123 -0.0870 -0.0270
31689ION     NA48537   5.942  14.929  10.862 -0.0149 -0.0693  0.0346
31690ION     NA48538  15.961   2.440  15.372 -0.0177  0.0704  0.0721
31691ION     NA48539  11.765   2.021  12.013 -0.2427  0.1065  0.3226
31692ION     NA48540   7.653   2.249   4.734  0.0176 -0.1056 -0.0544
31693ION     NA48541  15.891  16.874   2.814 -0.3414 -0.1210  0.1480
31694ION     NA48542   6.206   6.982  12.803  0.0850  0.0185  0.0354
31695ION     NA48543  13.659  17.219   1.092  0.1852 -0.1786 -0.1050
31696ION     NA48544  12.029   6.015  14.944 -0.0858  0.0912 -0.2566
31697ION     NA48545  16.260  15.179  16.660  0.1753 -0.1525 -0.1880
31698ION     NA48546  10.075  10.487   2.149 -0.2058  0.1508 -0.1641
31699ION     NA48547  17.108  17.021   6.104  0.2084 -0.0176 -0.2414
31700ION     NA48548   9.486   4.777  10.523 -0.3518  0.0264 -0.0547
31701ION     NA48549   4.601  11.240  15.272 -0.1802  0.0442 -0.1356
31702ION     NA48550   0.581   2.757  15.873 -0.0696  0.1977 -0.1191
31703ION     NA48551  11.117   3.815  10.905  0.1674 -0.1451 -0.1090
31704ION     NA48552   0.330   2.397   3.142 -0.0644 -0.4426 -0.2395
31705ION     NA48553   0.850  12.275   5.967 -0.1159 -0.0599  0.3345
31706ION     NA48554   3.798   6.534   5.135 -0.0284 -0.0750 -0.1258
31707ION     NA48555  16.250   2.814   5.882 -0.2539 -0.2850 -0.1309
31708ION     NA48556  12.171  11.316  10.832  0.2289  0.3402 -0.1034
31709ION     NA48557  11.562   9.451   5.315 -0.0997 -0.0284 -0.1003
31710ION     NA48558  17.470  11.386   3.566  0.1476 -0.1431  0.1183
31711ION     NA48559   3.915  16.456   5.844  0.1954  0.0287  0.2096
31712ION     NA48560   2.238  12.421   5.569  0.0858 -0.2637 -0.1532
31713ION     NA48561   9.278  17.101  12.809  0.0514  0.1646 -0.0579
31714ION     NA48562   6.230   1.768  10.958  0.0467  0.2090 -0.0486
31715ION     NA48563  14.732  17.291   3.891 -0.0897  0.0346 -0.0227
31716ION     NA48564  14.552   0.658   1.516 -0.0803 -0.3048  0.1594
31717ION     NA48565   7.514  14.573  13.657  0.0348 -0.1815 -0.1478
31718ION     NA48566  11.286   5.968   4.681  0.2306 -0.2771  0.0345
  17.70322  17.70322  16.67382
