;;;;;; Martini lipid topology for di-C16:0-C18:0 PI (DPPI), generated using:
; The Martini lipid itp generator version 0.4  Args are: -o martini_v2.0_DPPI_01.itp -alname DPPI -alhead 'PI' -allink 'G G' -altail 'CCCC CCCC'
; WARNING: Lipids topology was generated following the Martini 2.0 guidelines but this specific lipid type might
;          not have been tested and should therefore be used with care. 
;
; Description:
;   A general model phosphatidylinositol (PI) lipid corresponding to atomistic C16:0 dipalmitoyl (DPPI) - 
;   C18:0 distearoyl (DSPI) tails.
; Parameterization:
;   The lipid head is based on atomistic phosphatidylinositol (PI) simulations, see Lopez et al. 2013 for details. 
;   The lipid tail follows the standard Martini 2.0 lipid definitions and building block rules.
; Reference(s): 
;   C.A. Lopez, Z. Sovova, F.J. van Eerden, A.H. de Vries, S.J. Marrink. Martini force field parameters for glycolipids. JCTC, 
;   9:1694-1708, 2013. doi:10.1021/ct3009655 
;   H.I. Ingolfsson, M.N. Melo, F.J. van Eerden, C. Arnarez, C.A. Lopez, T.A. Wassenaar, X. Periole, A.H. De Vries, D.P. Tieleman, 
;   S.J. Marrink. Lipid organization of the plasma membrane. JACS, 136:14554-14559, 2014. doi:10.1021/ja507832e 
;   S.J. Marrink, A.H. de Vries, A.E. Mark. Coarse grained model for semi-quantitative lipid simulations. JPC-B, 108:750-760, 
;   2004. doi:10.1021/jp036508g 
;   S.J. Marrink, H.J. Risselada, S. Yefimov, D.P. Tieleman, A.H. de Vries. The MARTINI force field: coarse grained model for 
;   biomolecular simulations. JPC-B, 111:7812-7824, 2007. doi:10.1021/jp071097f
; Created: 2015.04.20
; Author(s): Cesar Lopez <C.A.Lopez-Bautista@rug.nl>
; Modified:
;   Helgi I. Ingolfsson <h.i.ingolfsson@rug.nl> and Xavier Periole <x.periole@rug.nl>, 2014.06. 
;   Removed dihedral to increase stability.
; Warning(s)/Note(s):
;   Warning, dihedral for head oriantation was removed to make the molecule more stable - this should be 
;   better tested and compaired to atomistic simulations. 
;   Node, bonds with force constant > 25000 are treated as constraints, but use harmonic bonds for minimization. 
;   Add define=-DFLEXIBLE to .mdp options to select harmonic bonds for minimization purposes.
;
;@INSANE alhead=PI, allink=G G, altail=CCCC CCCC, alname=DPPI, charge=-1.0
;@RESNTEST DPP==DPPI if: atoms[0]==C1  and atoms[4]==GL1
;@BEADS C1 C2 C3 PO4 GL1 GL2 C1A C2A C3A C4A C1B C2B C3B C4B 
;@BONDS C1-C2 C1-C3 C2-C3 C1-PO4 PO4-GL1 GL1-GL2 GL1-C1A C1A-C2A C2A-C3A C3A-C4A GL2-C1B C1B-C2B C2B-C3B C3B-C4B 
;

[moleculetype]
; molname      nrexcl
  DPPI          1

[atoms]
; id 	type 	resnr 	residu 	atom 	cgnr 	charge
   1 	P1 	 1 	DPPI 	C1  	 1 	0 	
   2 	P4 	 1 	DPPI 	C2  	 2 	0 	
   3 	P4 	 1 	DPPI 	C3  	 3 	0 	
   4 	Qa 	 1 	DPPI 	PO4 	 4 	-1.0 	; Name changed from CP to PO4
; Tail part (uses standar Martini v2.0 tail rules)
   5 	Na 	 1 	DPPI 	GL1 	 5 	0 	
   6 	Na 	 1 	DPPI 	GL2 	 6 	0 	
   7 	C1 	 1 	DPPI 	C1A 	 7 	0 	
   8 	C1 	 1 	DPPI 	C2A 	 8 	0 	
   9 	C1 	 1 	DPPI 	C3A 	 9 	0 	
  10 	C1 	 1 	DPPI 	C4A 	10 	0 	
  11 	C1 	 1 	DPPI 	C1B 	11 	0 	
  12 	C1 	 1 	DPPI 	C2B 	12 	0 	
  13 	C1 	 1 	DPPI 	C3B 	13 	0 	
  14 	C1 	 1 	DPPI 	C4B 	14 	0 	

[bonds]
;  i  j 	funct 	length 	force.c.
#ifdef FLEXIBLE
; Using bonds not constraints
   1  2 	1 	0.40 	30000 	
   1  3 	1 	0.40 	30000 	
   2  3 	1 	0.40 	30000 	
#endif
   1  4 	1 	0.35 	1250 	
   4  5 	1 	0.47 	1250 	
; Tail part (uses standar Martini v2.0 tail rules)
   5  6 	1 	0.37 	1250 	
   5  7 	1 	0.47 	1250 	
   7  8 	1 	0.47 	1250 	
   8  9 	1 	0.47 	1250 	
   9 10 	1 	0.47 	1250 	
   6 11 	1 	0.47 	1250 	
  11 12 	1 	0.47 	1250 	
  12 13 	1 	0.47 	1250 	
  13 14 	1 	0.47 	1250 	

[angles]
;  i  j  k 	funct 	angle 	force.c.
   3  1  4 	2 	133.0 	100.0 	
   2  1  4 	2 	100.0 	70.0 	
; Orient Head
   1  4  5 	2 	140.0 	30.0 	; link to lipid
; 4    5    6         2 120.00 25.0 ; These are part of the default lipids rules but not used here
; 4    5    7         2 180.00 25.0 ; These are part of the default lipids rules but not used here
; Tail part (uses standar Martini v2.0 tail rules)
   5  7  8 	2 	180.0 	25.0 	
   7  8  9 	2 	180.0 	25.0 	
   8  9 10 	2 	180.0 	25.0 	
   6 11 12 	2 	180.0 	25.0 	
  11 12 13 	2 	180.0 	25.0 	
  12 13 14 	2 	180.0 	25.0 	

[dihedrals]
;  i  j  k  l 	funct 	angle 	force.c.
; 3  1  4  5  1  -30.0  5.0  1 ; Removed as it was unstable - WARNING has not been tested

[constraints]
;  i  j  k 	funct 	length
#ifndef FLEXIBLE
; Using constraints not bonds
   1  2 	1 	0.40 	
   1  3 	1 	0.40 	
   2  3 	1 	0.40 	
#endif

;;;;;; Martini lipid topology for di-C12:1-C14:1 PC (DYPC), generated using:
; The Martini lipid itp generator version 0.4  Args are: -o martini_v2.0_DYPC_01.itp -alname DYPC -alhead 'C P' -allink 'G G' -altail 'CDC CDC'
; WARNING: Lipids topology was generated following the Martini 2.0 guidelines but this specific lipid type might
;          not have been tested and should therefore be used with care. 
;
; Description:
;   A general model phosphatidylcholine (PC) lipid corresponding to atomistic e.g. C12:1, C14:1(9c) dimyristoleoyl tails.
; Parameterization:
;   This topology follows the standard Martini 2.0 lipid definitions and building block rules.
; Reference(s): 
;   S.J. Marrink, A.H. de Vries, A.E. Mark. Coarse grained model for semi-quantitative lipid simulations. JPC-B, 108:750-760, 
;   2004. doi:10.1021/jp036508g 
;   S.J. Marrink, H.J. Risselada, S. Yefimov, D.P. Tieleman, A.H. de Vries. The MARTINI force field: coarse grained model for 
;   biomolecular simulations. JPC-B, 111:7812-7824, 2007. doi:10.1021/jp071097f 
;   T.A. Wassenaar, H.I. Ingolfsson, R.A. Bockmann, D.P. Tieleman, S.J. Marrink. Computational lipidomics with insane: a versatile 
;   tool for generating custom membranes for molecular simulations. JCTC, 150410125128004, 2015. doi:10.1021/acs.jctc.5b00209
; Created: 2015.04.20
;
;@INSANE alhead=C P, allink=G G, altail=CDC CDC, alname=DYPC, charge=0.0
;@RESNTEST DYP==DYPC if: atoms[0]==NC3
;@BEADS NC3 PO4 GL1 GL2 C1A D2A C3A C1B D2B C3B 
;@BONDS NC3-PO4 PO4-GL1 GL1-GL2 GL1-C1A C1A-D2A D2A-C3A GL2-C1B C1B-D2B D2B-C3B 
;

[moleculetype]
; molname      nrexcl
  DYPC          1

[atoms]
; id 	type 	resnr 	residu 	atom 	cgnr 	charge
   1 	Q0 	 1 	DYPC 	NC3 	 1 	1.0 	
   2 	Qa 	 1 	DYPC 	PO4 	 2 	-1.0 	
   3 	Na 	 1 	DYPC 	GL1 	 3 	0 	
   4 	Na 	 1 	DYPC 	GL2 	 4 	0 	
   5 	C1 	 1 	DYPC 	C1A 	 5 	0 	
   6 	C3 	 1 	DYPC 	D2A 	 6 	0 	
   7 	C1 	 1 	DYPC 	C3A 	 7 	0 	
   8 	C1 	 1 	DYPC 	C1B 	 8 	0 	
   9 	C3 	 1 	DYPC 	D2B 	 9 	0 	
  10 	C1 	 1 	DYPC 	C3B 	10 	0 	

[bonds]
;  i  j 	funct 	length 	force.c.
   1  2 	1 	0.47 	1250 	
   2  3 	1 	0.47 	1250 	
   3  4 	1 	0.37 	1250 	
   3  5 	1 	0.47 	1250 	
   5  6 	1 	0.47 	1250 	
   6  7 	1 	0.47 	1250 	
   4  8 	1 	0.47 	1250 	
   8  9 	1 	0.47 	1250 	
   9 10 	1 	0.47 	1250 	

[angles]
;  i  j  k 	funct 	angle 	force.c.
   2  3  4 	2 	120.0 	25.0 	
   2  3  5 	2 	180.0 	25.0 	
   3  5  6 	2 	180.0 	25.0 	
   5  6  7 	2 	120.0 	45.0 	
   4  8  9 	2 	180.0 	25.0 	
   8  9 10 	2 	120.0 	45.0 	

;;;;;; Martini lipid topology for di-C16:1-C18:1 PE (DVPE), generated using:
; The Martini lipid itp generator version 0.4  Args are: -o martini_v2.0_DVPE_01.itp -alname DVPE -alhead 'E P' -allink 'G G' -altail 'CCDC CCDC'
; WARNING: Lipids topology was generated following the Martini 2.0 guidelines but this specific lipid type might
;          not have been tested and should therefore be used with care. 
;
; Description:
;   A general model phosphatidylethanolamine (PE) lipid corresponding to atomistic e.g. C16:1(11c), C18:1(11c), C18:1(12c) tails.
; Parameterization:
;   This topology follows the standard Martini 2.0 lipid definitions and building block rules.
; Reference(s): 
;   S.J. Marrink, A.H. de Vries, A.E. Mark. Coarse grained model for semi-quantitative lipid simulations. JPC-B, 108:750-760, 
;   2004. doi:10.1021/jp036508g 
;   S.J. Marrink, H.J. Risselada, S. Yefimov, D.P. Tieleman, A.H. de Vries. The MARTINI force field: coarse grained model for 
;   biomolecular simulations. JPC-B, 111:7812-7824, 2007. doi:10.1021/jp071097f 
;   T.A. Wassenaar, H.I. Ingolfsson, R.A. Bockmann, D.P. Tieleman, S.J. Marrink. Computational lipidomics with insane: a versatile 
;   tool for generating custom membranes for molecular simulations. JCTC, 150410125128004, 2015. doi:10.1021/acs.jctc.5b00209
; Created: 2015.04.20
;
;@INSANE alhead=E P, allink=G G, altail=CCDC CCDC, alname=DVPE, charge=0.0
;@RESNTEST DVP==DVPE if: atoms[0]==NH3
;@BEADS NH3 PO4 GL1 GL2 C1A C2A D3A C4A C1B C2B D3B C4B 
;@BONDS NH3-PO4 PO4-GL1 GL1-GL2 GL1-C1A C1A-C2A C2A-D3A D3A-C4A GL2-C1B C1B-C2B C2B-D3B D3B-C4B 
;
;itp-file for DYPE basierend auf DVPE

[moleculetype]
; molname      nrexcl
  DYPE          1

[atoms]
; id 	type 	resnr 	residu 	atom 	cgnr 	charge
   1 	Qd 	 1 	DYPE 	NH3 	 1 	1.0 	
   2 	Qa 	 1 	DYPE 	PO4 	 2 	-1.0 	
   3 	Na 	 1 	DYPE 	GL1 	 3 	0 	
   4 	Na 	 1 	DYPE 	GL2 	 4 	0 	
   5 	C1 	 1 	DYPE 	C1A 	 5 	0 	
   6 	C1 	 1 	DYPE 	C2A 	 6 	0 	
   7 	C3 	 1 	DYPE 	D3A 	 7 	0 	
   8 	C1 	 1 	DYPE 	C4A 	 8 	0 	
   9 	C1 	 1 	DYPE 	C1B 	 9 	0 	
  10 	C1 	 1 	DYPE 	C2B 	10 	0 	
  11 	C3 	 1 	DYPE 	D3B 	11 	0 	
  12 	C1 	 1 	DYPE 	C4B 	12 	0 	

[bonds]
;  i  j 	funct 	length 	force.c.
   1  2 	1 	0.47 	1250 	
   2  3 	1 	0.47 	1250 	
   3  4 	1 	0.37 	1250 	
   3  5 	1 	0.47 	1250 	
   5  6 	1 	0.47 	1250 	
   6  7 	1 	0.47 	1250 	
   7  8 	1 	0.47 	1250 	
   4  9 	1 	0.47 	1250 	
   9 10 	1 	0.47 	1250 	
  10 11 	1 	0.47 	1250 	
  11 12 	1 	0.47 	1250 	

[angles]
;  i  j  k 	funct 	angle 	force.c.
   2  3  4 	2 	120.0 	25.0 	
   2  3  5 	2 	180.0 	25.0 	
   3  5  6 	2 	180.0 	25.0 	
   5  6  7 	2 	180.0 	25.0 	
   6  7  8 	2 	120.0 	45.0 	
   4  9 10 	2 	180.0 	25.0 	
   9 10 11 	2 	180.0 	25.0 	
  10 11 12 	2 	120.0 	45.0 	

;;;;;; Martini lipid topology for di-C16:1-C18:1 PS (DVPS), generated using:
; The Martini lipid itp generator version 0.4  Args are: -o martini_v2.0_DVPS_01.itp -alname DVPS -alhead 'S P' -allink 'G G' -altail 'CCDC CCDC'
; WARNING: Lipids topology was generated following the Martini 2.0 guidelines but this specific lipid type might
;          not have been tested and should therefore be used with care. 
;
; Description:
;   A general model phosphatidylserine (PS) lipid corresponding to atomistic e.g. C16:1(11c), C18:1(11c), C18:1(12c) tails.
; Parameterization:
;   This topology follows the standard Martini 2.0 lipid definitions and building block rules.
; Reference(s): 
;   S.J. Marrink, A.H. de Vries, A.E. Mark. Coarse grained model for semi-quantitative lipid simulations. JPC-B, 108:750-760, 
;   2004. doi:10.1021/jp036508g 
;   S.J. Marrink, H.J. Risselada, S. Yefimov, D.P. Tieleman, A.H. de Vries. The MARTINI force field: coarse grained model for 
;   biomolecular simulations. JPC-B, 111:7812-7824, 2007. doi:10.1021/jp071097f 
;   S. Baoukina, L. Monticelli, H.J. Risselada, S.J. Marrink, D.P. Tieleman. The molecular mechanism of lipid monolayer collapse. 
;   PNAS, 105:10803-10808, 2008. doi:10.1073/pnas.0711563105 
;   T.A. Wassenaar, H.I. Ingolfsson, R.A. Bockmann, D.P. Tieleman, S.J. Marrink. Computational lipidomics with insane: a versatile 
;   tool for generating custom membranes for molecular simulations. JCTC, 150410125128004, 2015. doi:10.1021/acs.jctc.5b00209
; Created: 2015.04.20
;
;@INSANE alhead=S P, allink=G G, altail=CCDC CCDC, alname=DVPS, charge=-1.0
;@RESNTEST DVP==DVPS if: atoms[0]==CNO
;@BEADS CNO PO4 GL1 GL2 C1A C2A D3A C4A C1B C2B D3B C4B 
;@BONDS CNO-PO4 PO4-GL1 GL1-GL2 GL1-C1A C1A-C2A C2A-D3A D3A-C4A GL2-C1B C1B-C2B C2B-D3B D3B-C4B 
;
;itp-file for DYPS, basierend auf DVPS

[moleculetype]
; molname      nrexcl
  DYPS          1

[atoms]
; id 	type 	resnr 	residu 	atom 	cgnr 	charge
   1 	P5 	 1 	DYPS 	CNO 	 1 	0.0 	
   2 	Qa 	 1 	DYPS 	PO4 	 2 	-1.0 	
   3 	Na 	 1 	DYPS 	GL1 	 3 	0 	
   4 	Na 	 1 	DYPS 	GL2 	 4 	0 	
   5 	C1 	 1 	DYPS 	C1A 	 5 	0 	
   6 	C1 	 1 	DYPS 	C2A 	 6 	0 	
   7 	C3 	 1 	DYPS 	D3A 	 7 	0 	
   8 	C1 	 1 	DYPS 	C4A 	 8 	0 	
   9 	C1 	 1 	DYPS 	C1B 	 9 	0 	
  10 	C1 	 1 	DYPS 	C2B 	10 	0 	
  11 	C3 	 1 	DYPS 	D3B 	11 	0 	
  12 	C1 	 1 	DYPS 	C4B 	12 	0 	

[bonds]
;  i  j 	funct 	length 	force.c.
   1  2 	1 	0.47 	1250 	
   2  3 	1 	0.47 	1250 	
   3  4 	1 	0.37 	1250 	
   3  5 	1 	0.47 	1250 	
   5  6 	1 	0.47 	1250 	
   6  7 	1 	0.47 	1250 	
   7  8 	1 	0.47 	1250 	
   4  9 	1 	0.47 	1250 	
   9 10 	1 	0.47 	1250 	
  10 11 	1 	0.47 	1250 	
  11 12 	1 	0.47 	1250 	

[angles]
;  i  j  k 	funct 	angle 	force.c.
   2  3  4 	2 	120.0 	25.0 	
   2  3  5 	2 	180.0 	25.0 	
   3  5  6 	2 	180.0 	25.0 	
   5  6  7 	2 	180.0 	25.0 	
   6  7  8 	2 	120.0 	45.0 	
   4  9 10 	2 	180.0 	25.0 	
   9 10 11 	2 	180.0 	25.0 	
  10 11 12 	2 	120.0 	45.0 	

;;;;;; Martini lipid topology for ergosterol
;
; Description:
;   A Martini model for ergosterol, based on the use of virtual sites.
; Parameterization:
;   Adapted from the cholesterol topology. The type of beads 3 and 7 was adjusted, the C1-C2 bond shrunk, and an angle
;   potential added on angle R5-C1-C2. See Melo et al. 2015.
; Reference(s): 
;   S.J. Marrink, A.H. de Vries, A.E. Mark. Coarse grained model for semi-quantitative lipid simulations. JPC-B, 108:750-760, 
;   2004. doi:10.1021/jp036508g 
;   S.J. Marrink, H.J. Risselada, S. Yefimov, D.P. Tieleman, A.H. de Vries. The MARTINI force field: coarse grained model for 
;   biomolecular simulations. JPC-B, 111:7812-7824, 2007. doi:10.1021/jp071097f 
;   M.N. Melo, H.I. Ingolfsson, S.J. Marrink. Parameters for Martini sterols and hopanoids based on a virtual-site description.
;   JCP, 143:243152, 2015. doi:10.1063/1.4937783
; Created: 2015.09
; Warning(s)/Note(s):
;   Note, Runs at 40fs timestep; the manual suggests that triangle constraints with virtual sites and large timesteps (exactly 
;   this case) should use lincs-order=6. Even more precise lincs-order=8 and lincs-iter=2 were used during parameterization; the 
;   performance penalty, even on a 30% sterol membrane, is small.
;   Add define=-DFLEXIBLE to select harmonic bonds for minimization purposes.
;

[ moleculetype ]
; molname  nrexcl
  ERGO     1

[ atoms ]
; i type resnr residue atom cgnr charge mass
  1 SP1  1     ERGO   ROH  1    0.0    77.22
  2 SC1  1     ERGO   R1   2    0.0      0.0
  3 SC4  1     ERGO   R2   3    0.0    38.69
  4 SC1  1     ERGO   R3   4    0.0   159.65
  5 SC1  1     ERGO   R4   5    0.0      0.0
  6 SC1  1     ERGO   R5   6    0.0      0.0
  7 SC3  1     ERGO   C1   7    0.0    39.44
  8  C1  1     ERGO   C2   8    0.0     72.0

[ bonds ]
; i  j  funct  length  force
  7  8  1      0.395   1250.0
#ifdef FLEXIBLE
  1  3  1    0.4904  1000000 
  1  4  1    0.6019  1000000
  3  4  1    0.2719  1000000 
  7  3  1    0.7237  1000000
  7  4  1    0.5376  1000000
#else
[ constraints ]
  1  3  1    0.4904 
  1  4  1    0.6019 
  3  4  1    0.2719 
  7  3  1    0.7237 
  7  4  1    0.5376 
#endif

[ dihedrals ]
  1  3  4  7   2  -179.7  50

[ virtual_sites3 ]
; In-plane bead from frame 4-3-7 (bead 5)
  5  4  3  7   1  0.9613  0.6320 
; Out-of-plane bead from frame 3-1-4 (bead 2)
  2  3  1  4   4  0.5207  0.2882  -0.83824 
; Out-of-plane bead from frame 4-3-7 (bead 6)
  6  4  3  7   4  0.2287  0.4111   1.1531 

[ angles ]
; i  j  k  funct  angle  force
  4  7  8  2      180.0  25.0
  6  7  8  2      180.0  50.0

[ exclusions ]
; i  j  k  ...
  1  2  3  4  5  6  7
  2  3  4  5  6  7
  3  4  5  6  7
  4  5  6  7
  5  6  7
  6  7

;;;;;; Martini lipid topology for di-C16:0-C18:0 PI (DPPI), generated using:
; The Martini lipid itp generator version 0.4  Args are: -o martini_v2.0_DPPI_01.itp -alname DPPI -alhead 'PI' -allink 'G G' -altail 'CCCC CCCC'
; WARNING: Lipids topology was generated following the Martini 2.0 guidelines but this specific lipid type might
;          not have been tested and should therefore be used with care. 
;
; Description:
;   A general model phosphatidylinositol (PI) lipid corresponding to atomistic C16:0 dipalmitoyl (DPPI) - 
;   C18:0 distearoyl (DSPI) tails.
; Parameterization:
;   The lipid head is based on atomistic phosphatidylinositol (PI) simulations, see Lopez et al. 2013 for details. 
;   The lipid tail follows the standard Martini 2.0 lipid definitions and building block rules.
; Reference(s): 
;   C.A. Lopez, Z. Sovova, F.J. van Eerden, A.H. de Vries, S.J. Marrink. Martini force field parameters for glycolipids. JCTC, 
;   9:1694-1708, 2013. doi:10.1021/ct3009655 
;   H.I. Ingolfsson, M.N. Melo, F.J. van Eerden, C. Arnarez, C.A. Lopez, T.A. Wassenaar, X. Periole, A.H. De Vries, D.P. Tieleman, 
;   S.J. Marrink. Lipid organization of the plasma membrane. JACS, 136:14554-14559, 2014. doi:10.1021/ja507832e 
;   S.J. Marrink, A.H. de Vries, A.E. Mark. Coarse grained model for semi-quantitative lipid simulations. JPC-B, 108:750-760, 
;   2004. doi:10.1021/jp036508g 
;   S.J. Marrink, H.J. Risselada, S. Yefimov, D.P. Tieleman, A.H. de Vries. The MARTINI force field: coarse grained model for 
;   biomolecular simulations. JPC-B, 111:7812-7824, 2007. doi:10.1021/jp071097f
; Created: 2015.04.20
; Author(s): Cesar Lopez <C.A.Lopez-Bautista@rug.nl>
; Modified:
;   Helgi I. Ingolfsson <h.i.ingolfsson@rug.nl> and Xavier Periole <x.periole@rug.nl>, 2014.06. 
;   Removed dihedral to increase stability.
; Warning(s)/Note(s):
;   Warning, dihedral for head oriantation was removed to make the molecule more stable - this should be 
;   better tested and compaired to atomistic simulations. 
;   Node, bonds with force constant > 25000 are treated as constraints, but use harmonic bonds for minimization. 
;   Add define=-DFLEXIBLE to .mdp options to select harmonic bonds for minimization purposes.
;
;@INSANE alhead=PI, allink=G G, altail=CCCC CCCC, alname=DPPI, charge=-1.0
;@RESNTEST DPP==DPPI if: atoms[0]==C1  and atoms[4]==GL1
;@BEADS C1 C2 C3 PO4 GL1 GL2 C1A C2A C3A C4A C1B C2B C3B C4B 
;@BONDS C1-C2 C1-C3 C2-C3 C1-PO4 PO4-GL1 GL1-GL2 GL1-C1A C1A-C2A C2A-C3A C3A-C4A GL2-C1B C1B-C2B C2B-C3B C3B-C4B 
;
;manuell angepasst für DPPI mit tailC18:0/26:0
;

[moleculetype]
; molname      nrexcl
  loPI          1

[atoms]
; id 	type 	resnr 	residu 	atom 	cgnr 	charge
   1 	P1 	 1 	loPI 	C1  	 1 	0 	
   2 	P4 	 1 	loPI 	C2  	 2 	0 	
   3 	P4 	 1 	loPI 	C3  	 3 	0 	
   4 	Qa 	 1 	loPI 	PO4 	 4 	-1.0 	; Name changed from CP to PO4
; Tail part (uses standar Martini v2.0 tail rules)
   5 	Na 	 1 	loPI 	GL1 	 5 	0 	
   6 	Na 	 1 	loPI 	GL2 	 6 	0 	
   7 	C1 	 1 	loPI 	C1A 	 7 	0 	
   8 	C1 	 1 	loPI 	C2A 	 8 	0 	
   9 	C1 	 1 	loPI 	C3A 	 9 	0 	
  10 	C1 	 1 	loPI 	C4A 	10 	0 	
  11    C1       1      loPI   C5A     11      0    ;hinzugefügt
  12    C1       1      loPI   C6A     12      0    ;hinzugefügt
  13    C1       1      loPI   C1B     13      0
  14    C1       1      loPI   C2B     14      0
  15    C1       1      loPI   C3B     15      0 
  16    C1       1      loPI   C4B     16      0
;  11 	C1 	 1 	loPI 	C1B 	11 	0 	
;  12 	C1 	 1 	loPI 	C2B 	12 	0 	
;  13 	C1 	 1 	loPI 	C3B 	13 	0 	
;  14 	C1 	 1 	loPI 	C4B 	14 	0
;  15    C1       1      loPI   C5A     15      0     ; Kettenverlängerung
;  16    C1       1      loPI   C6A     16      0 	

[bonds]
;  i  j 	funct 	length 	force.c.
#ifdef FLEXIBLE
; Using bonds not constraints
   1  2 	1 	0.40 	30000 	
   1  3 	1 	0.40 	30000 	
   2  3 	1 	0.40 	30000 	
#endif
   1  4 	1 	0.35 	1250 	
   4  5 	1 	0.47 	1250 	
; Tail part (uses standar Martini v2.0 tail rules)
   5  6 	1 	0.37 	1250 	
   5  7 	1 	0.47 	1250 	
   7  8 	1 	0.47 	1250 	
   8  9 	1 	0.47 	1250 	
   9 10 	1 	0.47 	1250
  10 11         1       0.47    1250    ;hinzugefügt
  11 12         1       0.47    1250 	;hinzugefügt
   6 13 	1 	0.47 	1250 	
  13 14 	1 	0.47 	1250 	
  14 15 	1 	0.47 	1250 	
  15 16 	1 	0.47 	1250
  
[angles]
;  i  j  k 	funct 	angle 	force.c.
   3  1  4 	2 	133.0 	100.0 	
   2  1  4 	2 	100.0 	70.0 	
; Orient Head
   1  4  5 	2 	140.0 	30.0 	; link to lipid
; 4    5    6         2 120.00 25.0 ; These are part of the default lipids rules but not used here
; 4    5    7         2 180.00 25.0 ; These are part of the default lipids rules but not used here
; Tail part (uses standar Martini v2.0 tail rules)
   5  7  8 	2 	180.0 	25.0 	
   7  8  9 	2 	180.0 	25.0 	
   8  9 10 	2 	180.0 	25.0 	
   9 10 11      2       180.0   25.0
  10 11 12      2       180.0   25.0
   6 13 14 	2 	180.0 	25.0 	
  13 14 15 	2 	180.0 	25.0 	
  14 15 16 	2 	180.0 	25.0
 
[dihedrals]
;  i  j  k  l 	funct 	angle 	force.c.
; 3  1  4  5  1  -30.0  5.0  1 ; Removed as it was unstable - WARNING has not been tested

[constraints]
;  i  j  k 	funct 	length
#ifndef FLEXIBLE
; Using constraints not bonds
   1  2 	1 	0.40 	
   1  3 	1 	0.40 	
   2  3 	1 	0.40 	
#endif

;;;;;; Martini lipid topology for C16:0/18:1 PC (POPC), generated using:
; The Martini lipid itp generator version 0.4  Args are: -o martini_v2.0_POPC_01.itp -alname POPC -alhead 'C P' -allink 'G G' -altail 'CDCC CCCC'
; WARNING: Lipids topology was generated following the Martini 2.0 guidelines but this specific lipid type might
;          not have been tested and should therefore be used with care. 
;
; Description:
;   A general model phosphatidylcholine (PC) lipid corresponding to atomistic e.g. C16:0/18:1 1-palmitoyl-2-oleoyl (POPC) tails.
; Parameterization:
;   This topology follows the standard Martini 2.0 lipid definitions and building block rules.
; Reference(s): 
;   S.J. Marrink, A.H. de Vries, A.E. Mark. Coarse grained model for semi-quantitative lipid simulations. JPC-B, 108:750-760, 
;   2004. doi:10.1021/jp036508g 
;   S.J. Marrink, H.J. Risselada, S. Yefimov, D.P. Tieleman, A.H. de Vries. The MARTINI force field: coarse grained model for 
;   biomolecular simulations. JPC-B, 111:7812-7824, 2007. doi:10.1021/jp071097f 
;   T.A. Wassenaar, H.I. Ingolfsson, R.A. Bockmann, D.P. Tieleman, S.J. Marrink. Computational lipidomics with insane: a versatile 
;   tool for generating custom membranes for molecular simulations. JCTC, 150410125128004, 2015. doi:10.1021/acs.jctc.5b00209
; Created: 2015.04.20
;
;@INSANE alhead=C P, allink=G G, altail=CDCC CCCC, alname=POPC, charge=0.0
;@RESNTEST POP==POPC if: atoms[0]==NC3
;@BEADS NC3 PO4 GL1 GL2 C1A D2A C3A C4A C1B C2B C3B C4B 
;@BONDS NC3-PO4 PO4-GL1 GL1-GL2 GL1-C1A C1A-D2A D2A-C3A C3A-C4A GL2-C1B C1B-C2B C2B-C3B C3B-C4B 
;

[moleculetype]
; molname      nrexcl
  POPC          1

[atoms]
; id 	type 	resnr 	residu 	atom 	cgnr 	charge
   1 	Q0 	 1 	POPC 	NC3 	 1 	1.0 	
   2 	Qa 	 1 	POPC 	PO4 	 2 	-1.0 	
   3 	Na 	 1 	POPC 	GL1 	 3 	0 	
   4 	Na 	 1 	POPC 	GL2 	 4 	0 	
   5 	C1 	 1 	POPC 	C1A 	 5 	0 	
   6 	C3 	 1 	POPC 	D2A 	 6 	0 	
   7 	C1 	 1 	POPC 	C3A 	 7 	0 	
   8 	C1 	 1 	POPC 	C4A 	 8 	0 	
   9 	C1 	 1 	POPC 	C1B 	 9 	0 	
  10 	C1 	 1 	POPC 	C2B 	10 	0 	
  11 	C1 	 1 	POPC 	C3B 	11 	0 	
  12 	C1 	 1 	POPC 	C4B 	12 	0 	

[bonds]
;  i  j 	funct 	length 	force.c.
   1  2 	1 	0.47 	1250 	
   2  3 	1 	0.47 	1250 	
   3  4 	1 	0.37 	1250 	
   3  5 	1 	0.47 	1250 	
   5  6 	1 	0.47 	1250 	
   6  7 	1 	0.47 	1250 	
   7  8 	1 	0.47 	1250 	
   4  9 	1 	0.47 	1250 	
   9 10 	1 	0.47 	1250 	
  10 11 	1 	0.47 	1250 	
  11 12 	1 	0.47 	1250 	

[angles]
;  i  j  k 	funct 	angle 	force.c.
   2  3  4 	2 	120.0 	25.0 	
   2  3  5 	2 	180.0 	25.0 	
   3  5  6 	2 	180.0 	25.0 	
   5  6  7 	2 	120.0 	45.0 	
   6  7  8 	2 	180.0 	25.0 	
   4  9 10 	2 	180.0 	25.0 	
   9 10 11 	2 	180.0 	25.0 	
  10 11 12 	2 	180.0 	25.0 	

;;;;;; Martini lipid topology for C16:0/18:1 PE (POPE), generated using:
; The Martini lipid itp generator version 0.4  Args are: -o martini_v2.0_POPE_01.itp -alname POPE -alhead 'E P' -allink 'G G' -altail 'CDCC CCCC'
; WARNING: Lipids topology was generated following the Martini 2.0 guidelines but this specific lipid type might
;          not have been tested and should therefore be used with care. 
;
; Description:
;   A general model phosphatidylethanolamine (PE) lipid corresponding to atomistic e.g. C16:0/18:1 1-palmitoyl-2-oleoyl (POPE) tails.
; Parameterization:
;   This topology follows the standard Martini 2.0 lipid definitions and building block rules.
; Reference(s): 
;   S.J. Marrink, A.H. de Vries, A.E. Mark. Coarse grained model for semi-quantitative lipid simulations. JPC-B, 108:750-760, 
;   2004. doi:10.1021/jp036508g 
;   S.J. Marrink, H.J. Risselada, S. Yefimov, D.P. Tieleman, A.H. de Vries. The MARTINI force field: coarse grained model for 
;   biomolecular simulations. JPC-B, 111:7812-7824, 2007. doi:10.1021/jp071097f 
;   T.A. Wassenaar, H.I. Ingolfsson, R.A. Bockmann, D.P. Tieleman, S.J. Marrink. Computational lipidomics with insane: a versatile 
;   tool for generating custom membranes for molecular simulations. JCTC, 150410125128004, 2015. doi:10.1021/acs.jctc.5b00209
; Created: 2015.04.20
;
;@INSANE alhead=E P, allink=G G, altail=CDCC CCCC, alname=POPE, charge=0.0
;@RESNTEST POP==POPE if: atoms[0]==NH3
;@BEADS NH3 PO4 GL1 GL2 C1A D2A C3A C4A C1B C2B C3B C4B 
;@BONDS NH3-PO4 PO4-GL1 GL1-GL2 GL1-C1A C1A-D2A D2A-C3A C3A-C4A GL2-C1B C1B-C2B C2B-C3B C3B-C4B 
;

[moleculetype]
; molname      nrexcl
  POPE          1

[atoms]
; id 	type 	resnr 	residu 	atom 	cgnr 	charge
   1 	Qd 	 1 	POPE 	NH3 	 1 	1.0 	
   2 	Qa 	 1 	POPE 	PO4 	 2 	-1.0 	
   3 	Na 	 1 	POPE 	GL1 	 3 	0 	
   4 	Na 	 1 	POPE 	GL2 	 4 	0 	
   5 	C1 	 1 	POPE 	C1A 	 5 	0 	
   6 	C3 	 1 	POPE 	D2A 	 6 	0 	
   7 	C1 	 1 	POPE 	C3A 	 7 	0 	
   8 	C1 	 1 	POPE 	C4A 	 8 	0 	
   9 	C1 	 1 	POPE 	C1B 	 9 	0 	
  10 	C1 	 1 	POPE 	C2B 	10 	0 	
  11 	C1 	 1 	POPE 	C3B 	11 	0 	
  12 	C1 	 1 	POPE 	C4B 	12 	0 	

[bonds]
;  i  j 	funct 	length 	force.c.
   1  2 	1 	0.47 	1250 	
   2  3 	1 	0.47 	1250 	
   3  4 	1 	0.37 	1250 	
   3  5 	1 	0.47 	1250 	
   5  6 	1 	0.47 	1250 	
   6  7 	1 	0.47 	1250 	
   7  8 	1 	0.47 	1250 	
   4  9 	1 	0.47 	1250 	
   9 10 	1 	0.47 	1250 	
  10 11 	1 	0.47 	1250 	
  11 12 	1 	0.47 	1250 	

[angles]
;  i  j  k 	funct 	angle 	force.c.
   2  3  4 	2 	120.0 	25.0 	
   2  3  5 	2 	180.0 	25.0 	
   3  5  6 	2 	180.0 	25.0 	
   5  6  7 	2 	120.0 	45.0 	
   6  7  8 	2 	180.0 	25.0 	
   4  9 10 	2 	180.0 	25.0 	
   9 10 11 	2 	180.0 	25.0 	
  10 11 12 	2 	180.0 	25.0 	

;;;;;; Martini lipid topology for C16:0/18:1 PI (POPI), generated using:
; The Martini lipid itp generator version 0.4  Args are: -o martini_v2.0_POPI_01.itp -alname POPI -alhead 'PI' -allink 'G G' -altail 'CDCC CCCC'
; WARNING: Lipids topology was generated following the Martini 2.0 guidelines but this specific lipid type might
;          not have been tested and should therefore be used with care. 
;
; Description:
;   A general model phosphatidylinositol (PI) lipid corresponding to atomistic e.g. C16:0/18:1 1-palmitoyl-2-oleoyl (POPI) tails.
; Parameterization:
;   The lipid head is based on atomistic phosphatidylinositol (PI) simulations, see Lopez et al. 2013 for details. 
;   The lipid tail follows the standard Martini 2.0 lipid definitions and building block rules.
; Reference(s): 
;   C.A. Lopez, Z. Sovova, F.J. van Eerden, A.H. de Vries, S.J. Marrink. Martini force field parameters for glycolipids. JCTC, 
;   9:1694-1708, 2013. doi:10.1021/ct3009655 
;   H.I. Ingolfsson, M.N. Melo, F.J. van Eerden, C. Arnarez, C.A. Lopez, T.A. Wassenaar, X. Periole, A.H. De Vries, D.P. Tieleman, 
;   S.J. Marrink. Lipid organization of the plasma membrane. JACS, 136:14554-14559, 2014. doi:10.1021/ja507832e 
;   S.J. Marrink, A.H. de Vries, A.E. Mark. Coarse grained model for semi-quantitative lipid simulations. JPC-B, 108:750-760, 
;   2004. doi:10.1021/jp036508g 
;   S.J. Marrink, H.J. Risselada, S. Yefimov, D.P. Tieleman, A.H. de Vries. The MARTINI force field: coarse grained model for 
;   biomolecular simulations. JPC-B, 111:7812-7824, 2007. doi:10.1021/jp071097f
; Created: 2015.04.20
; Author(s): Cesar Lopez <C.A.Lopez-Bautista@rug.nl>
; Modified:
;   Helgi I. Ingolfsson <h.i.ingolfsson@rug.nl> and Xavier Periole <x.periole@rug.nl>, 2014.06. 
;   Removed dihedral to increase stability.
; Warning(s)/Note(s):
;   Warning, dihedral for head oriantation was removed to make the molecule more stable - this should be 
;   better tested and compaired to atomistic simulations. 
;   Node, bonds with force constant > 25000 are treated as constraints, but use harmonic bonds for minimization. 
;   Add define=-DFLEXIBLE to .mdp options to select harmonic bonds for minimization purposes.
;
;@INSANE alhead=PI, allink=G G, altail=CDCC CCCC, alname=POPI, charge=-1.0
;@RESNTEST POP==POPI if: atoms[0]==C1  and atoms[4]==GL1
;@BEADS C1 C2 C3 PO4 GL1 GL2 C1A D2A C3A C4A C1B C2B C3B C4B 
;@BONDS C1-C2 C1-C3 C2-C3 C1-PO4 PO4-GL1 GL1-GL2 GL1-C1A C1A-D2A D2A-C3A C3A-C4A GL2-C1B C1B-C2B C2B-C3B C3B-C4B 
;

[moleculetype]
; molname      nrexcl
  POPI          1

[atoms]
; id 	type 	resnr 	residu 	atom 	cgnr 	charge
   1 	P1 	 1 	POPI 	C1  	 1 	0 	
   2 	P4 	 1 	POPI 	C2  	 2 	0 	
   3 	P4 	 1 	POPI 	C3  	 3 	0 	
   4 	Qa 	 1 	POPI 	PO4 	 4 	-1.0 	; Name changed from CP to PO4
; Tail part (uses standar Martini v2.0 tail rules)
   5 	Na 	 1 	POPI 	GL1 	 5 	0 	
   6 	Na 	 1 	POPI 	GL2 	 6 	0 	
   7 	C1 	 1 	POPI 	C1A 	 7 	0 	
   8 	C3 	 1 	POPI 	D2A 	 8 	0 	
   9 	C1 	 1 	POPI 	C3A 	 9 	0 	
  10 	C1 	 1 	POPI 	C4A 	10 	0 	
  11 	C1 	 1 	POPI 	C1B 	11 	0 	
  12 	C1 	 1 	POPI 	C2B 	12 	0 	
  13 	C1 	 1 	POPI 	C3B 	13 	0 	
  14 	C1 	 1 	POPI 	C4B 	14 	0 	

[bonds]
;  i  j 	funct 	length 	force.c.
#ifdef FLEXIBLE
; Using bonds not constraints
   1  2 	1 	0.40 	30000 	
   1  3 	1 	0.40 	30000 	
   2  3 	1 	0.40 	30000 	
#endif
   1  4 	1 	0.35 	1250 	
   4  5 	1 	0.47 	1250 	
; Tail part (uses standar Martini v2.0 tail rules)
   5  6 	1 	0.37 	1250 	
   5  7 	1 	0.47 	1250 	
   7  8 	1 	0.47 	1250 	
   8  9 	1 	0.47 	1250 	
   9 10 	1 	0.47 	1250 	
   6 11 	1 	0.47 	1250 	
  11 12 	1 	0.47 	1250 	
  12 13 	1 	0.47 	1250 	
  13 14 	1 	0.47 	1250 	

[angles]
;  i  j  k 	funct 	angle 	force.c.
   3  1  4 	2 	133.0 	100.0 	
   2  1  4 	2 	100.0 	70.0 	
; Orient Head
   1  4  5 	2 	140.0 	30.0 	; link to lipid
; 4    5    6         2 120.00 25.0 ; These are part of the default lipids rules but not used here
; 4    5    7         2 180.00 25.0 ; These are part of the default lipids rules but not used here
; Tail part (uses standar Martini v2.0 tail rules)
   5  7  8 	2 	180.0 	25.0 	
   7  8  9 	2 	120.0 	45.0 	
   8  9 10 	2 	180.0 	25.0 	
   6 11 12 	2 	180.0 	25.0 	
  11 12 13 	2 	180.0 	25.0 	
  12 13 14 	2 	180.0 	25.0 	

[dihedrals]
;  i  j  k  l 	funct 	angle 	force.c.
; 3  1  4  5  1  -30.0  5.0  1 ; Removed as it was unstable - WARNING has not been tested

[constraints]
;  i  j  k 	funct 	length
#ifndef FLEXIBLE
; Using constraints not bonds
   1  2 	1 	0.40 	
   1  3 	1 	0.40 	
   2  3 	1 	0.40 	
#endif

;;;;;; Martini lipid topology for C16:0/18:1 PS (POPS), generated using:
; The Martini lipid itp generator version 0.4  Args are: -o martini_v2.0_POPS_01.itp -alname POPS -alhead 'S P' -allink 'G G' -altail 'CDCC CCCC'
; WARNING: Lipids topology was generated following the Martini 2.0 guidelines but this specific lipid type might
;          not have been tested and should therefore be used with care. 
;
; Description:
;   A general model phosphatidylserine (PS) lipid corresponding to atomistic e.g. C16:0/18:1 1-palmitoyl-2-oleoyl (POPS) tails.
; Parameterization:
;   This topology follows the standard Martini 2.0 lipid definitions and building block rules.
; Reference(s): 
;   S.J. Marrink, A.H. de Vries, A.E. Mark. Coarse grained model for semi-quantitative lipid simulations. JPC-B, 108:750-760, 
;   2004. doi:10.1021/jp036508g 
;   S.J. Marrink, H.J. Risselada, S. Yefimov, D.P. Tieleman, A.H. de Vries. The MARTINI force field: coarse grained model for 
;   biomolecular simulations. JPC-B, 111:7812-7824, 2007. doi:10.1021/jp071097f 
;   S. Baoukina, L. Monticelli, H.J. Risselada, S.J. Marrink, D.P. Tieleman. The molecular mechanism of lipid monolayer collapse. 
;   PNAS, 105:10803-10808, 2008. doi:10.1073/pnas.0711563105 
;   T.A. Wassenaar, H.I. Ingolfsson, R.A. Bockmann, D.P. Tieleman, S.J. Marrink. Computational lipidomics with insane: a versatile 
;   tool for generating custom membranes for molecular simulations. JCTC, 150410125128004, 2015. doi:10.1021/acs.jctc.5b00209
; Created: 2015.04.20
;
;@INSANE alhead=S P, allink=G G, altail=CDCC CCCC, alname=POPS, charge=-1.0
;@RESNTEST POP==POPS if: atoms[0]==CNO
;@BEADS CNO PO4 GL1 GL2 C1A D2A C3A C4A C1B C2B C3B C4B 
;@BONDS CNO-PO4 PO4-GL1 GL1-GL2 GL1-C1A C1A-D2A D2A-C3A C3A-C4A GL2-C1B C1B-C2B C2B-C3B C3B-C4B 
;

[moleculetype]
; molname      nrexcl
  POPS          1

[atoms]
; id 	type 	resnr 	residu 	atom 	cgnr 	charge
   1 	P5 	 1 	POPS 	CNO 	 1 	0.0 	
   2 	Qa 	 1 	POPS 	PO4 	 2 	-1.0 	
   3 	Na 	 1 	POPS 	GL1 	 3 	0 	
   4 	Na 	 1 	POPS 	GL2 	 4 	0 	
   5 	C1 	 1 	POPS 	C1A 	 5 	0 	
   6 	C3 	 1 	POPS 	D2A 	 6 	0 	
   7 	C1 	 1 	POPS 	C3A 	 7 	0 	
   8 	C1 	 1 	POPS 	C4A 	 8 	0 	
   9 	C1 	 1 	POPS 	C1B 	 9 	0 	
  10 	C1 	 1 	POPS 	C2B 	10 	0 	
  11 	C1 	 1 	POPS 	C3B 	11 	0 	
  12 	C1 	 1 	POPS 	C4B 	12 	0 	

[bonds]
;  i  j 	funct 	length 	force.c.
   1  2 	1 	0.47 	1250 	
   2  3 	1 	0.47 	1250 	
   3  4 	1 	0.37 	1250 	
   3  5 	1 	0.47 	1250 	
   5  6 	1 	0.47 	1250 	
   6  7 	1 	0.47 	1250 	
   7  8 	1 	0.47 	1250 	
   4  9 	1 	0.47 	1250 	
   9 10 	1 	0.47 	1250 	
  10 11 	1 	0.47 	1250 	
  11 12 	1 	0.47 	1250 	

[angles]
;  i  j  k 	funct 	angle 	force.c.
   2  3  4 	2 	120.0 	25.0 	
   2  3  5 	2 	180.0 	25.0 	
   3  5  6 	2 	180.0 	25.0 	
   5  6  7 	2 	120.0 	45.0 	
   6  7  8 	2 	180.0 	25.0 	
   4  9 10 	2 	180.0 	25.0 	
   9 10 11 	2 	180.0 	25.0 	
  10 11 12 	2 	180.0 	25.0 	

;;;;;; Martini lipid topology for di-C16:0-C18:0 PI (DPPI), generated using:
; The Martini lipid itp generator version 0.4  Args are: -o martini_v2.0_DPPI_01.itp -alname DPPI -alhead 'PI' -allink 'G G' -altail 'CCCC CCCC'
; WARNING: Lipids topology was generated following the Martini 2.0 guidelines but this specific lipid type might
;          not have been tested and should therefore be used with care. 
;
; Description:
;   A general model phosphatidylinositol (PI) lipid corresponding to atomistic C16:0 dipalmitoyl (DPPI) - 
;   C18:0 distearoyl (DSPI) tails.
; Parameterization:
;   The lipid head is based on atomistic phosphatidylinositol (PI) simulations, see Lopez et al. 2013 for details. 
;   The lipid tail follows the standard Martini 2.0 lipid definitions and building block rules.
; Reference(s): 
;   C.A. Lopez, Z. Sovova, F.J. van Eerden, A.H. de Vries, S.J. Marrink. Martini force field parameters for glycolipids. JCTC, 
;   9:1694-1708, 2013. doi:10.1021/ct3009655 
;   H.I. Ingolfsson, M.N. Melo, F.J. van Eerden, C. Arnarez, C.A. Lopez, T.A. Wassenaar, X. Periole, A.H. De Vries, D.P. Tieleman, 
;   S.J. Marrink. Lipid organization of the plasma membrane. JACS, 136:14554-14559, 2014. doi:10.1021/ja507832e 
;   S.J. Marrink, A.H. de Vries, A.E. Mark. Coarse grained model for semi-quantitative lipid simulations. JPC-B, 108:750-760, 
;   2004. doi:10.1021/jp036508g 
;   S.J. Marrink, H.J. Risselada, S. Yefimov, D.P. Tieleman, A.H. de Vries. The MARTINI force field: coarse grained model for 
;   biomolecular simulations. JPC-B, 111:7812-7824, 2007. doi:10.1021/jp071097f
; Created: 2015.04.20
; Author(s): Cesar Lopez <C.A.Lopez-Bautista@rug.nl>
; Modified:
;   Helgi I. Ingolfsson <h.i.ingolfsson@rug.nl> and Xavier Periole <x.periole@rug.nl>, 2014.06. 
;   Removed dihedral to increase stability.
; Warning(s)/Note(s):
;   Warning, dihedral for head oriantation was removed to make the molecule more stable - this should be 
;   better tested and compaired to atomistic simulations. 
;   Node, bonds with force constant > 25000 are treated as constraints, but use harmonic bonds for minimization. 
;   Add define=-DFLEXIBLE to .mdp options to select harmonic bonds for minimization purposes.
;
;@INSANE alhead=PI, allink=G G, altail=CCCC CCCC, alname=DPPI, charge=-1.0
;@RESNTEST DPP==DPPI if: atoms[0]==C1  and atoms[4]==GL1
;@BEADS C1 C2 C3 PO4 GL1 GL2 C1A C2A C3A C4A C1B C2B C3B C4B 
;@BONDS C1-C2 C1-C3 C2-C3 C1-PO4 PO4-GL1 GL1-GL2 GL1-C1A C1A-C2A C2A-C3A C3A-C4A GL2-C1B C1B-C2B C2B-C3B C3B-C4B 
;
;itp file für PSPI, uebernommen von DPPI, weil cg analog

[moleculetype]
; molname      nrexcl
  PSPI          1

[atoms]
; id 	type 	resnr 	residu 	atom 	cgnr 	charge
   1 	P1 	 1 	PSPI 	C1  	 1 	0 	
   2 	P4 	 1 	PSPI 	C2  	 2 	0 	
   3 	P4 	 1 	PSPI 	C3  	 3 	0 	
   4 	Qa 	 1 	PSPI 	PO4 	 4 	-1.0 	; Name changed from CP to PO4
; Tail part (uses standar Martini v2.0 tail rules)
   5 	Na 	 1 	PSPI 	GL1 	 5 	0 	
   6 	Na 	 1 	PSPI 	GL2 	 6 	0 	
   7 	C1 	 1 	PSPI 	C1A 	 7 	0 	
   8 	C1 	 1 	PSPI 	C2A 	 8 	0 	
   9 	C1 	 1 	PSPI 	C3A 	 9 	0 	
  10 	C1 	 1 	PSPI 	C4A 	10 	0 	
  11 	C1 	 1 	PSPI 	C1B 	11 	0 	
  12 	C1 	 1 	PSPI 	C2B 	12 	0 	
  13 	C1 	 1 	PSPI 	C3B 	13 	0 	
  14 	C1 	 1 	PSPI 	C4B 	14 	0 	

[bonds]
;  i  j 	funct 	length 	force.c.
#ifdef FLEXIBLE
; Using bonds not constraints
   1  2 	1 	0.40 	30000 	
   1  3 	1 	0.40 	30000 	
   2  3 	1 	0.40 	30000 	
#endif
   1  4 	1 	0.35 	1250 	
   4  5 	1 	0.47 	1250 	
; Tail part (uses standar Martini v2.0 tail rules)
   5  6 	1 	0.37 	1250 	
   5  7 	1 	0.47 	1250 	
   7  8 	1 	0.47 	1250 	
   8  9 	1 	0.47 	1250 	
   9 10 	1 	0.47 	1250 	
   6 11 	1 	0.47 	1250 	
  11 12 	1 	0.47 	1250 	
  12 13 	1 	0.47 	1250 	
  13 14 	1 	0.47 	1250 	

[angles]
;  i  j  k 	funct 	angle 	force.c.
   3  1  4 	2 	133.0 	100.0 	
   2  1  4 	2 	100.0 	70.0 	
; Orient Head
   1  4  5 	2 	140.0 	30.0 	; link to lipid
; 4    5    6         2 120.00 25.0 ; These are part of the default lipids rules but not used here
; 4    5    7         2 180.00 25.0 ; These are part of the default lipids rules but not used here
; Tail part (uses standar Martini v2.0 tail rules)
   5  7  8 	2 	180.0 	25.0 	
   7  8  9 	2 	180.0 	25.0 	
   8  9 10 	2 	180.0 	25.0 	
   6 11 12 	2 	180.0 	25.0 	
  11 12 13 	2 	180.0 	25.0 	
  12 13 14 	2 	180.0 	25.0 	

[dihedrals]
;  i  j  k  l 	funct 	angle 	force.c.
; 3  1  4  5  1  -30.0  5.0  1 ; Removed as it was unstable - WARNING has not been tested

[constraints]
;  i  j  k 	funct 	length
#ifndef FLEXIBLE
; Using constraints not bonds
   1  2 	1 	0.40 	
   1  3 	1 	0.40 	
   2  3 	1 	0.40 	
#endif

;;;;;; Martini lipid topology for C16:0/18:1 PC (POPC), generated using:
; The Martini lipid itp generator version 0.4  Args are: -o martini_v2.0_POPC_01.itp -alname POPC -alhead 'C P' -allink 'G G' -altail 'CDCC CCCC'
; WARNING: Lipids topology was generated following the Martini 2.0 guidelines but this specific lipid type might
;          not have been tested and should therefore be used with care. 
;
; Description:
;   A general model phosphatidylcholine (PC) lipid corresponding to atomistic e.g. C16:0/18:1 1-palmitoyl-2-oleoyl (POPC) tails.
; Parameterization:
;   This topology follows the standard Martini 2.0 lipid definitions and building block rules.
; Reference(s): 
;   S.J. Marrink, A.H. de Vries, A.E. Mark. Coarse grained model for semi-quantitative lipid simulations. JPC-B, 108:750-760, 
;   2004. doi:10.1021/jp036508g 
;   S.J. Marrink, H.J. Risselada, S. Yefimov, D.P. Tieleman, A.H. de Vries. The MARTINI force field: coarse grained model for 
;   biomolecular simulations. JPC-B, 111:7812-7824, 2007. doi:10.1021/jp071097f 
;   T.A. Wassenaar, H.I. Ingolfsson, R.A. Bockmann, D.P. Tieleman, S.J. Marrink. Computational lipidomics with insane: a versatile 
;   tool for generating custom membranes for molecular simulations. JCTC, 150410125128004, 2015. doi:10.1021/acs.jctc.5b00209
; Created: 2015.04.20
;
;@INSANE alhead=C P, allink=G G, altail=CDCC CCCC, alname=POPC, charge=0.0
;@RESNTEST POP==POPC if: atoms[0]==NC3
;@BEADS NC3 PO4 GL1 GL2 C1A D2A C3A C4A C1B C2B C3B C4B 
;@BONDS NC3-PO4 PO4-GL1 GL1-GL2 GL1-C1A C1A-D2A D2A-C3A C3A-C4A GL2-C1B C1B-C2B C2B-C3B C3B-C4B 
;
;itp-file for PYPC auf Basis von POPC

[moleculetype]
; molname      nrexcl
  PYPC          1

[atoms]
; id 	type 	resnr 	residu 	atom 	cgnr 	charge
   1 	Q0 	 1 	PYPC 	NC3 	 1 	1.0 	
   2 	Qa 	 1 	PYPC 	PO4 	 2 	-1.0 	
   3 	Na 	 1 	PYPC 	GL1 	 3 	0 	
   4 	Na 	 1 	PYPC 	GL2 	 4 	0 	
   5 	C1 	 1 	PYPC 	C1A 	 5 	0 	
   6 	C1 	 1 	PYPC 	C2A 	 6 	0 	
   7 	C3 	 1 	PYPC 	D3A 	 7 	0	;DB bead von 2 nach 3 verschoben 	
   8 	C1 	 1 	PYPC 	C4A 	 8 	0 	
   9 	C1 	 1 	PYPC 	C1B 	 9 	0 	
  10 	C1 	 1 	PYPC 	C2B 	10 	0 	
  11 	C1 	 1 	PYPC 	C3B 	11 	0 	
  12 	C1 	 1 	PYPC 	C4B 	12 	0 	

[bonds]
;  i  j 	funct 	length 	force.c.
   1  2 	1 	0.47 	1250 	
   2  3 	1 	0.47 	1250 	
   3  4 	1 	0.37 	1250 	
   3  5 	1 	0.47 	1250 	
   5  6 	1 	0.47 	1250 	
   6  7 	1 	0.47 	1250 	
   7  8 	1 	0.47 	1250 	
   4  9 	1 	0.47 	1250 	
   9 10 	1 	0.47 	1250 	
  10 11 	1 	0.47 	1250 	
  11 12 	1 	0.47 	1250 	

[angles]
;  i  j  k 	funct 	angle 	force.c.
   2  3  4 	2 	120.0 	25.0 	
   2  3  5 	2 	180.0 	25.0 	
   3  5  6 	2 	180.0 	25.0 	
   5  6  7 	2 	120.0 	45.0 	
   6  7  8 	2 	180.0 	25.0 	
   4  9 10 	2 	180.0 	25.0 	
   9 10 11 	2 	180.0 	25.0 	
  10 11 12 	2 	180.0 	25.0 	

;;;;;; Martini lipid topology for C16:0/18:1 PE (POPE), generated using:
; The Martini lipid itp generator version 0.4  Args are: -o martini_v2.0_POPE_01.itp -alname POPE -alhead 'E P' -allink 'G G' -altail 'CDCC CCCC'
; WARNING: Lipids topology was generated following the Martini 2.0 guidelines but this specific lipid type might
;          not have been tested and should therefore be used with care. 
;
; Description:
;   A general model phosphatidylethanolamine (PE) lipid corresponding to atomistic e.g. C16:0/18:1 1-palmitoyl-2-oleoyl (POPE) tails.
; Parameterization:
;   This topology follows the standard Martini 2.0 lipid definitions and building block rules.
; Reference(s): 
;   S.J. Marrink, A.H. de Vries, A.E. Mark. Coarse grained model for semi-quantitative lipid simulations. JPC-B, 108:750-760, 
;   2004. doi:10.1021/jp036508g 
;   S.J. Marrink, H.J. Risselada, S. Yefimov, D.P. Tieleman, A.H. de Vries. The MARTINI force field: coarse grained model for 
;   biomolecular simulations. JPC-B, 111:7812-7824, 2007. doi:10.1021/jp071097f 
;   T.A. Wassenaar, H.I. Ingolfsson, R.A. Bockmann, D.P. Tieleman, S.J. Marrink. Computational lipidomics with insane: a versatile 
;   tool for generating custom membranes for molecular simulations. JCTC, 150410125128004, 2015. doi:10.1021/acs.jctc.5b00209
; Created: 2015.04.20
;
;@INSANE alhead=E P, allink=G G, altail=CDCC CCCC, alname=POPE, charge=0.0
;@RESNTEST POP==POPE if: atoms[0]==NH3
;@BEADS NH3 PO4 GL1 GL2 C1A D2A C3A C4A C1B C2B C3B C4B 
;@BONDS NH3-PO4 PO4-GL1 GL1-GL2 GL1-C1A C1A-D2A D2A-C3A C3A-C4A GL2-C1B C1B-C2B C2B-C3B C3B-C4B 
;
;itp-file for PYPE auf Basis von itp-file von POPE

[moleculetype]
; molname      nrexcl
  PYPE          1

[atoms]
; id 	type 	resnr 	residu 	atom 	cgnr 	charge
   1 	Qd 	 1 	PYPE 	NH3 	 1 	1.0 	
   2 	Qa 	 1 	PYPE 	PO4 	 2 	-1.0 	
   3 	Na 	 1 	PYPE 	GL1 	 3 	0 	
   4 	Na 	 1 	PYPE 	GL2 	 4 	0 	
   5 	C1 	 1 	PYPE 	C1A 	 5 	0 	
   6 	C1 	 1 	PYPE 	C2A 	 6 	0 	
   7 	C3 	 1 	PYPE 	D3A 	 7 	0	; DB bei PYPE im 3. bead statt im 2. (POPE) 	
   8 	C1 	 1 	PYPE 	C4A 	 8 	0 	
   9 	C1 	 1 	PYPE 	C1B 	 9 	0 	
  10 	C1 	 1 	PYPE 	C2B 	10 	0 	
  11 	C1 	 1 	PYPE 	C3B 	11 	0 	
  12 	C1 	 1 	PYPE 	C4B 	12 	0 	

[bonds]
;  i  j 	funct 	length 	force.c.
   1  2 	1 	0.47 	1250 	
   2  3 	1 	0.47 	1250 	
   3  4 	1 	0.37 	1250 	
   3  5 	1 	0.47 	1250 	
   5  6 	1 	0.47 	1250 	
   6  7 	1 	0.47 	1250 	
   7  8 	1 	0.47 	1250 	
   4  9 	1 	0.47 	1250 	
   9 10 	1 	0.47 	1250 	
  10 11 	1 	0.47 	1250 	
  11 12 	1 	0.47 	1250 	

[angles]
;  i  j  k 	funct 	angle 	force.c.
   2  3  4 	2 	120.0 	25.0 	
   2  3  5 	2 	180.0 	25.0 	
   3  5  6 	2 	180.0 	25.0 	
   5  6  7 	2 	120.0 	45.0 	
   6  7  8 	2 	180.0 	25.0 	
   4  9 10 	2 	180.0 	25.0 	
   9 10 11 	2 	180.0 	25.0 	
  10 11 12 	2 	180.0 	25.0 	

;;;;;; Martini lipid topology for C16:0/18:1 PI (PVPI), generated using:
; The Martini lipid itp generator version 0.4  Args are: -o martini_v2.0_PVPI_01.itp -alname PVPI -alhead 'PI' -allink 'G G' -altail 'CCDC CCCC'
; WARNING: Lipids topology was generated following the Martini 2.0 guidelines but this specific lipid type might
;          not have been tested and should therefore be used with care. 
;
; Description:
;   A general model phosphatidylinositol (PI) lipid corresponding to atomistic e.g. C16:1(11c), C18:1(11c), C18:1(12c) tails.
; Parameterization:
;   The lipid head is based on atomistic phosphatidylinositol (PI) simulations, see Lopez et al. 2013 for details. 
;   The lipid tail follows the standard Martini 2.0 lipid definitions and building block rules.
; Reference(s): 
;   C.A. Lopez, Z. Sovova, F.J. van Eerden, A.H. de Vries, S.J. Marrink. Martini force field parameters for glycolipids. JCTC, 
;   9:1694-1708, 2013. doi:10.1021/ct3009655 
;   H.I. Ingolfsson, M.N. Melo, F.J. van Eerden, C. Arnarez, C.A. Lopez, T.A. Wassenaar, X. Periole, A.H. De Vries, D.P. Tieleman, 
;   S.J. Marrink. Lipid organization of the plasma membrane. JACS, 136:14554-14559, 2014. doi:10.1021/ja507832e 
;   S.J. Marrink, A.H. de Vries, A.E. Mark. Coarse grained model for semi-quantitative lipid simulations. JPC-B, 108:750-760, 
;   2004. doi:10.1021/jp036508g 
;   S.J. Marrink, H.J. Risselada, S. Yefimov, D.P. Tieleman, A.H. de Vries. The MARTINI force field: coarse grained model for 
;   biomolecular simulations. JPC-B, 111:7812-7824, 2007. doi:10.1021/jp071097f
; Created: 2015.04.20
; Author(s): Cesar Lopez <C.A.Lopez-Bautista@rug.nl>
; Modified:
;   Helgi I. Ingolfsson <h.i.ingolfsson@rug.nl> and Xavier Periole <x.periole@rug.nl>, 2014.06. 
;   Removed dihedral to increase stability.
; Warning(s)/Note(s):
;   Warning, dihedral for head oriantation was removed to make the molecule more stable - this should be 
;   better tested and compaired to atomistic simulations. 
;   Node, bonds with force constant > 25000 are treated as constraints, but use harmonic bonds for minimization. 
;   Add define=-DFLEXIBLE to .mdp options to select harmonic bonds for minimization purposes.
;
;@INSANE alhead=PI, allink=G G, altail=CCDC CCCC, alname=PVPI, charge=-1.0
;@RESNTEST PVP==PVPI if: atoms[0]==C1  and atoms[4]==GL1
;@BEADS C1 C2 C3 PO4 GL1 GL2 C1A C2A D3A C4A C1B C2B C3B C4B 
;@BONDS C1-C2 C1-C3 C2-C3 C1-PO4 PO4-GL1 GL1-GL2 GL1-C1A C1A-C2A C2A-D3A D3A-C4A GL2-C1B C1B-C2B C2B-C3B C3B-C4B 
;
;martini structure for PYPI (müsste analog zu PVPI sein)

[moleculetype]
; molname      nrexcl
  PYPI          1

[atoms]
; id 	type 	resnr 	residu 	atom 	cgnr 	charge
   1 	P1 	 1 	PYPI 	C1  	 1 	0 	
   2 	P4 	 1 	PYPI 	C2  	 2 	0 	
   3 	P4 	 1 	PYPI 	C3  	 3 	0 	
   4 	Qa 	 1 	PYPI 	PO4 	 4 	-1.0 	; Name changed from CP to PO4
; Tail part (uses standar Martini v2.0 tail rules)
   5 	Na 	 1 	PYPI 	GL1 	 5 	0 	
   6 	Na 	 1 	PYPI 	GL2 	 6 	0 	
   7 	C1 	 1 	PYPI 	C1A 	 7 	0 	
   8 	C1 	 1 	PYPI 	C2A 	 8 	0 	
   9 	C3 	 1 	PYPI 	D3A 	 9 	0 	
  10 	C1 	 1 	PYPI 	C4A 	10 	0 	
  11 	C1 	 1 	PYPI 	C1B 	11 	0 	
  12 	C1 	 1 	PYPI 	C2B 	12 	0 	
  13 	C1 	 1 	PYPI 	C3B 	13 	0 	
  14 	C1 	 1 	PYPI 	C4B 	14 	0 	

[bonds]
;  i  j 	funct 	length 	force.c.
#ifdef FLEXIBLE
; Using bonds not constraints
   1  2 	1 	0.40 	30000 	
   1  3 	1 	0.40 	30000 	
   2  3 	1 	0.40 	30000 	
#endif
   1  4 	1 	0.35 	1250 	
   4  5 	1 	0.47 	1250 	
; Tail part (uses standar Martini v2.0 tail rules)
   5  6 	1 	0.37 	1250 	
   5  7 	1 	0.47 	1250 	
   7  8 	1 	0.47 	1250 	
   8  9 	1 	0.47 	1250 	
   9 10 	1 	0.47 	1250 	
   6 11 	1 	0.47 	1250 	
  11 12 	1 	0.47 	1250 	
  12 13 	1 	0.47 	1250 	
  13 14 	1 	0.47 	1250 	

[angles]
;  i  j  k 	funct 	angle 	force.c.
   3  1  4 	2 	133.0 	100.0 	
   2  1  4 	2 	100.0 	70.0 	
; Orient Head
   1  4  5 	2 	140.0 	30.0 	; link to lipid
; 4    5    6         2 120.00 25.0 ; These are part of the default lipids rules but not used here
; 4    5    7         2 180.00 25.0 ; These are part of the default lipids rules but not used here
; Tail part (uses standar Martini v2.0 tail rules)
   5  7  8 	2 	180.0 	25.0 	
   7  8  9 	2 	180.0 	25.0 	
   8  9 10 	2 	120.0 	45.0 	
   6 11 12 	2 	180.0 	25.0 	
  11 12 13 	2 	180.0 	25.0 	
  12 13 14 	2 	180.0 	25.0 	

[dihedrals]
;  i  j  k  l 	funct 	angle 	force.c.
; 3  1  4  5  1  -30.0  5.0  1 ; Removed as it was unstable - WARNING has not been tested

[constraints]
;  i  j  k 	funct 	length
#ifndef FLEXIBLE
; Using constraints not bonds
   1  2 	1 	0.40 	
   1  3 	1 	0.40 	
   2  3 	1 	0.40 	
#endif

;;;;;; Martini lipid topology for di-C16:1-C18:1 PC (DOPC), generated using:
; The Martini lipid itp generator version 0.4  Args are: -o martini_v2.0_DOPC_01.itp -alname DOPC -alhead 'C P' -allink 'G G' -altail 'CDCC CDCC'
; WARNING: Lipids topology was generated following the Martini 2.0 guidelines but this specific lipid type might
;          not have been tested and should therefore be used with care. 
;
; Description:
;   A general model phosphatidylcholine (PC) lipid corresponding to atomistic e.g. C16:1(9c), C18:1(9c) dioleoyl (DOPC) tails.
; Parameterization:
;   This topology follows the standard Martini 2.0 lipid definitions and building block rules.
; Reference(s): 
;   S.J. Marrink, A.H. de Vries, A.E. Mark. Coarse grained model for semi-quantitative lipid simulations. JPC-B, 108:750-760, 
;   2004. doi:10.1021/jp036508g 
;   S.J. Marrink, H.J. Risselada, S. Yefimov, D.P. Tieleman, A.H. de Vries. The MARTINI force field: coarse grained model for 
;   biomolecular simulations. JPC-B, 111:7812-7824, 2007. doi:10.1021/jp071097f 
;   T.A. Wassenaar, H.I. Ingolfsson, R.A. Bockmann, D.P. Tieleman, S.J. Marrink. Computational lipidomics with insane: a versatile 
;   tool for generating custom membranes for molecular simulations. JCTC, 150410125128004, 2015. doi:10.1021/acs.jctc.5b00209
; Created: 2015.04.20
;
;@INSANE alhead=C P, allink=G G, altail=CDCC CDCC, alname=DOPC, charge=0.0
;@RESNTEST DOP==DOPC if: atoms[0]==NC3
;@BEADS NC3 PO4 GL1 GL2 C1A D2A C3A C4A C1B D2B C3B C4B 
;@BONDS NC3-PO4 PO4-GL1 GL1-GL2 GL1-C1A C1A-D2A D2A-C3A C3A-C4A GL2-C1B C1B-D2B D2B-C3B C3B-C4B 
;
;itp-file for YOPC, basierend auf DOPC

[moleculetype]
; molname      nrexcl
  YOPC          1

[atoms]
; id 	type 	resnr 	residu 	atom 	cgnr 	charge
   1 	Q0 	 1 	YOPC 	NC3 	 1 	1.0 	
   2 	Qa 	 1 	YOPC 	PO4 	 2 	-1.0 	
   3 	Na 	 1 	YOPC 	GL1 	 3 	0 	
   4 	Na 	 1 	YOPC 	GL2 	 4 	0 	
   5 	C1 	 1 	YOPC 	C1A 	 5 	0 	
   6 	C3 	 1 	YOPC 	D2A 	 6 	0 	
   7 	C1 	 1 	YOPC 	C3A 	 7 	0 	
   8 	C1 	 1 	YOPC 	C4A 	 8 	0 	
   9 	C1 	 1 	YOPC 	C1B 	 9 	0 	
  10 	C1 	 1 	YOPC 	C2B 	10 	0 	
  11 	C3 	 1 	YOPC 	D3B 	11 	0 	; DB bead von 2 auf 3 verschoben	
  12 	C1 	 1 	YOPC 	C4B 	12 	0 	

[bonds]
;  i  j 	funct 	length 	force.c.
   1  2 	1 	0.47 	1250 	
   2  3 	1 	0.47 	1250 	
   3  4 	1 	0.37 	1250 	
   3  5 	1 	0.47 	1250 	
   5  6 	1 	0.47 	1250 	
   6  7 	1 	0.47 	1250 	
   7  8 	1 	0.47 	1250 	
   4  9 	1 	0.47 	1250 	
   9 10 	1 	0.47 	1250 	
  10 11 	1 	0.47 	1250 	
  11 12 	1 	0.47 	1250 	

[angles]
;  i  j  k 	funct 	angle 	force.c.
   2  3  4 	2 	120.0 	25.0 	
   2  3  5 	2 	180.0 	25.0 	
   3  5  6 	2 	180.0 	25.0 	
   5  6  7 	2 	120.0 	45.0 	
   6  7  8 	2 	180.0 	25.0 	
   4  9 10 	2 	180.0 	25.0 	
   9 10 11 	2 	120.0 	45.0 	
  10 11 12 	2 	180.0 	25.0 	

;;;;;; Martini lipid topology for C16:0/18:1 PE (POPE), generated using:
; The Martini lipid itp generator version 0.4  Args are: -o martini_v2.0_POPE_01.itp -alname POPE -alhead 'E P' -allink 'G G' -altail 'CDCC CCCC'
; WARNING: Lipids topology was generated following the Martini 2.0 guidelines but this specific lipid type might
;          not have been tested and should therefore be used with care. 
;
; Description:
;   A general model phosphatidylethanolamine (PE) lipid corresponding to atomistic e.g. C16:0/18:1 1-palmitoyl-2-oleoyl (POPE) tails.
; Parameterization:
;   This topology follows the standard Martini 2.0 lipid definitions and building block rules.
; Reference(s): 
;   S.J. Marrink, A.H. de Vries, A.E. Mark. Coarse grained model for semi-quantitative lipid simulations. JPC-B, 108:750-760, 
;   2004. doi:10.1021/jp036508g 
;   S.J. Marrink, H.J. Risselada, S. Yefimov, D.P. Tieleman, A.H. de Vries. The MARTINI force field: coarse grained model for 
;   biomolecular simulations. JPC-B, 111:7812-7824, 2007. doi:10.1021/jp071097f 
;   T.A. Wassenaar, H.I. Ingolfsson, R.A. Bockmann, D.P. Tieleman, S.J. Marrink. Computational lipidomics with insane: a versatile 
;   tool for generating custom membranes for molecular simulations. JCTC, 150410125128004, 2015. doi:10.1021/acs.jctc.5b00209
; Created: 2015.04.20
;
;@INSANE alhead=E P, allink=G G, altail=CDCC CCCC, alname=POPE, charge=0.0
;@RESNTEST POP==POPE if: atoms[0]==NH3
;@BEADS NH3 PO4 GL1 GL2 C1A D2A C3A C4A C1B C2B C3B C4B 
;@BONDS NH3-PO4 PO4-GL1 GL1-GL2 GL1-C1A C1A-D2A D2A-C3A C3A-C4A GL2-C1B C1B-C2B C2B-C3B C3B-C4B 
;
;itp-file for YOPE auf Basis von itp-file von POPE

[moleculetype]
; molname      nrexcl
  YOPE          1

[atoms]
; id 	type 	resnr 	residu 	atom 	cgnr 	charge
   1 	Qd 	 1 	YOPE 	NH3 	 1 	1.0 	
   2 	Qa 	 1 	YOPE 	PO4 	 2 	-1.0 	
   3 	Na 	 1 	YOPE 	GL1 	 3 	0 	
   4 	Na 	 1 	YOPE 	GL2 	 4 	0 	
   5 	C1 	 1 	YOPE 	C1A 	 5 	0 	
   6 	C3 	 1 	YOPE 	D2A 	 6 	0 	
   7 	C1 	 1 	YOPE 	C3A 	 7 	0 	
   8 	C1 	 1 	YOPE 	C4A 	 8 	0 	
   9 	C1 	 1 	YOPE 	C1B 	 9 	0 	
  10 	C1 	 1 	YOPE 	C2B 	10 	0 	
  11 	C3 	 1 	YOPE 	D3B 	11 	0 	; DB bead eingesetzt statt C3B	
  12 	C1 	 1 	YOPE 	C4B 	12 	0 	

[bonds]
;  i  j 	funct 	length 	force.c.
   1  2 	1 	0.47 	1250 	
   2  3 	1 	0.47 	1250 	
   3  4 	1 	0.37 	1250 	
   3  5 	1 	0.47 	1250 	
   5  6 	1 	0.47 	1250 	
   6  7 	1 	0.47 	1250 	
   7  8 	1 	0.47 	1250 	
   4  9 	1 	0.47 	1250 	
   9 10 	1 	0.47 	1250 	
  10 11 	1 	0.47 	1250 	
  11 12 	1 	0.47 	1250 	

[angles]
;  i  j  k 	funct 	angle 	force.c.
   2  3  4 	2 	120.0 	25.0 	
   2  3  5 	2 	180.0 	25.0 	
   3  5  6 	2 	180.0 	25.0 	
   5  6  7 	2 	120.0 	45.0 	
   6  7  8 	2 	180.0 	25.0 	
   4  9 10 	2 	180.0 	25.0 	
   9 10 11 	2 	180.0 	25.0 	
  10 11 12 	2 	180.0 	25.0 	

;;;;;; Martini lipid topology for di-C16:1-C18:1 PS (DVPS), generated using:
; The Martini lipid itp generator version 0.4  Args are: -o martini_v2.0_DVPS_01.itp -alname DVPS -alhead 'S P' -allink 'G G' -altail 'CCDC CCDC'
; WARNING: Lipids topology was generated following the Martini 2.0 guidelines but this specific lipid type might
;          not have been tested and should therefore be used with care. 
;
; Description:
;   A general model phosphatidylserine (PS) lipid corresponding to atomistic e.g. C16:1(11c), C18:1(11c), C18:1(12c) tails.
; Parameterization:
;   This topology follows the standard Martini 2.0 lipid definitions and building block rules.
; Reference(s): 
;   S.J. Marrink, A.H. de Vries, A.E. Mark. Coarse grained model for semi-quantitative lipid simulations. JPC-B, 108:750-760, 
;   2004. doi:10.1021/jp036508g 
;   S.J. Marrink, H.J. Risselada, S. Yefimov, D.P. Tieleman, A.H. de Vries. The MARTINI force field: coarse grained model for 
;   biomolecular simulations. JPC-B, 111:7812-7824, 2007. doi:10.1021/jp071097f 
;   S. Baoukina, L. Monticelli, H.J. Risselada, S.J. Marrink, D.P. Tieleman. The molecular mechanism of lipid monolayer collapse. 
;   PNAS, 105:10803-10808, 2008. doi:10.1073/pnas.0711563105 
;   T.A. Wassenaar, H.I. Ingolfsson, R.A. Bockmann, D.P. Tieleman, S.J. Marrink. Computational lipidomics with insane: a versatile 
;   tool for generating custom membranes for molecular simulations. JCTC, 150410125128004, 2015. doi:10.1021/acs.jctc.5b00209
; Created: 2015.04.20
;
;@INSANE alhead=S P, allink=G G, altail=CCDC CCDC, alname=DVPS, charge=-1.0
;@RESNTEST DVP==DVPS if: atoms[0]==CNO
;@BEADS CNO PO4 GL1 GL2 C1A C2A D3A C4A C1B C2B D3B C4B 
;@BONDS CNO-PO4 PO4-GL1 GL1-GL2 GL1-C1A C1A-C2A C2A-D3A D3A-C4A GL2-C1B C1B-C2B C2B-D3B D3B-C4B 
;
;itp-file for YOPS auf Basis von itp-file von DVPS

[moleculetype]
; molname      nrexcl
  YOPS          1

[atoms]
; id 	type 	resnr 	residu 	atom 	cgnr 	charge
   1 	P5 	 1 	YOPS 	CNO 	 1 	0.0 	
   2 	Qa 	 1 	YOPS 	PO4 	 2 	-1.0 	
   3 	Na 	 1 	YOPS 	GL1 	 3 	0 	
   4 	Na 	 1 	YOPS 	GL2 	 4 	0 	
   5 	C1 	 1 	YOPS 	C1A 	 5 	0 	
   6 	C3 	 1 	YOPS 	D2A 	 6 	0	; DB des 18-tails in bead 2 verschoben (vorher in D3A)	
   7 	C1 	 1 	YOPS 	C3A 	 7 	0 	
   8 	C1 	 1 	YOPS 	C4A 	 8 	0 	
   9 	C1 	 1 	YOPS 	C1B 	 9 	0 	
  10 	C1 	 1 	YOPS 	C2B 	10 	0 	
  11 	C3 	 1 	YOPS 	D3B 	11 	0 	
  12 	C1 	 1 	YOPS 	C4B 	12 	0 	

[bonds]
;  i  j 	funct 	length 	force.c.
   1  2 	1 	0.47 	1250 	
   2  3 	1 	0.47 	1250 	
   3  4 	1 	0.37 	1250 	
   3  5 	1 	0.47 	1250 	
   5  6 	1 	0.47 	1250 	
   6  7 	1 	0.47 	1250 	
   7  8 	1 	0.47 	1250 	
   4  9 	1 	0.47 	1250 	
   9 10 	1 	0.47 	1250 	
  10 11 	1 	0.47 	1250 	
  11 12 	1 	0.47 	1250 	

[angles]
;  i  j  k 	funct 	angle 	force.c.
   2  3  4 	2 	120.0 	25.0 	
   2  3  5 	2 	180.0 	25.0 	
   3  5  6 	2 	180.0 	25.0 	
   5  6  7 	2 	180.0 	25.0 	
   6  7  8 	2 	120.0 	45.0 	
   4  9 10 	2 	180.0 	25.0 	
   9 10 11 	2 	180.0 	25.0 	
  10 11 12 	2 	120.0 	45.0 	

